default_name
130494
  93.5672688  57.2369294  61.4817128  92.5962941  57.4948366  61.3778240
  94.1382162  58.0577597  61.3390348  93.6696509  56.6909528  62.3252335
  93.9152230  56.3303926  60.3906363  94.7141976  56.7816458  59.8023257
  94.3893271  54.9565138  60.8906747  95.1381831  55.1212454  61.6653859
  93.5322342  54.4370015  61.3191589  94.9969993  54.1006985  59.7633644
  95.5893942  54.7041763  58.8436401  94.8912789  52.8423107  59.7793797
  92.6904830  56.1622754  59.4573590  91.5131421  56.3480038  59.8648727
  92.9919953  55.7908886  58.1995263  93.9605452  55.6059452  57.9808794
  92.0106691  55.6610404  57.1391301  91.0123256  55.9272927  57.4862888
  92.3720097  56.5628576  55.9318357  91.7355880  56.2958763  55.0881600
  92.1641729  58.0383844  56.2802632  92.8006541  58.3062423  57.1236158
  92.4232189  58.6553991  55.4198638  91.1203955  58.2060018  56.5458450
  93.7359674  56.3369827  55.5180422  93.9415140  56.9031903  54.7705398
  91.8764881  54.2464321  56.6244683  91.0343553  54.0151928  55.7410438
  92.7025784  53.3121558  57.0843906  93.5259341  53.5106509  57.6346492
  92.4268941  51.9273270  56.7295381  92.2137752  51.8580524  55.6628233
  93.6254586  51.0368371  57.0463109  94.5175599  51.4818687  56.6056279
  93.7439313  50.9823165  58.1284808  93.4419456  49.7295676  56.5242519
  94.2072477  49.1900791  56.7360648  91.1927542  51.4116735  57.4629126
  90.4568953  50.5637487  56.9381326  90.9336959  51.9243701  58.6555442
  91.3960467  52.7627721  58.9771232  89.9993627  51.2680397  59.5501730
  90.2407547  50.2091312  59.6425959  90.0905881  51.9128797  60.9344902
  90.2044192  52.9733725  60.7097753  89.1692726  51.7578342  61.4959513
  91.2772254  51.4398311  61.7655203  92.1587756  52.0505999  61.5707599
  90.8697749  51.5895752  63.2192730  89.9885018  50.9786925  63.4149226
  91.6874862  51.2630903  63.8618122  90.6401915  52.6346785  63.4270009
  91.7136298  50.0402571  61.4042478  92.0055888  50.0097300  60.3545204
  92.5617397  49.7518781  62.0252538  90.8890519  49.3473655  61.5717927
  88.5437668  51.3134485  59.0984600  87.7796105  50.3676271  59.3713946
  88.0954644  52.4102692  58.4732454  88.6074989  53.7660618  58.3636881
  89.2735969  53.8144081  57.5022496  89.1682896  53.9970950  59.2693572
  87.3858426  54.6421828  58.2028971  87.6381754  55.5684863  57.6867681
  86.9460744  54.8753598  59.1726052  86.4369071  53.7748838  57.3655502
  86.6862912  53.8104645  56.3050594  85.3805628  54.0088053  57.4979019
  86.7351207  52.3916815  57.9202385  86.0226582  52.2058995  58.7239676
  86.6152642  51.2977938  56.8764774  85.6563389  50.5099235  56.8818293
  87.6386574  51.1820890  56.0306638  88.3661515  51.8826964  56.0316704
  87.7082663  50.1139688  55.0389689  86.8279433  50.0692685  54.3977727
  88.9415767  50.3947040  54.1621694  89.7349707  50.8030968  54.7881418
  89.4208288  49.1348320  53.5075023  88.6280771  48.7260740  52.8809551
  90.2932952  49.3538217  52.8919172  89.6902097  48.4068815  54.2727620
  88.5891099  51.3811919  53.1756347  89.3508240  51.5656768  52.6212367
  87.7554285  48.7275973  55.6651285  87.5473711  47.7265078  54.9714961
  88.0152534  48.6320350  56.9435521  88.2409844  49.4454155  57.4981303
  88.0816075  47.3252797  57.5777073  88.4061820  46.5687810  56.8632423
  89.0965516  47.3810909  58.7280722  88.8113446  48.1794270  59.4132114
  89.0850423  46.4279329  59.2567095  90.4048753  47.6301557  58.2287088
  91.0258781  47.6618418  58.9601125  86.7233711  46.8156559  58.0611424
  86.5951886  45.6028780  58.3077595  85.7247571  47.6916244  58.1544342
  85.9025971  48.6672881  57.9632465  84.4015096  47.3128609  58.6856330
  83.8617266  48.2090249  58.9916125  83.5708560  46.5783426  57.6243449
  83.9494626  45.5647136  57.4927675  82.5207314  46.5386851  57.9137680
  83.6195061  47.2284265  56.2854984  84.4931236  46.8238932  55.3004714
  84.3178181  47.5597465  54.2272063  84.9190088  47.3973560  53.3326125
  83.3478230  48.4358742  54.4805947  82.9895701  49.1327959  53.8433703
  82.9056838  48.2414327  55.7584384  82.1078371  48.8661202  56.1600692
  84.6976826  46.5627194  59.9765053  84.2858073  45.4030272  60.1008183
  85.4589167  47.1958795  60.8692069  85.8101354  48.1115420  60.6277389
  85.8647047  46.6075587  62.1678006  86.2293460  45.5867352  62.0535403
  86.9701237  47.4534552  62.8058868  86.6010088  48.4754550  62.8917401
  87.3777536  46.9488141  64.1715647  87.7474375  45.9269593  64.0864405
  88.1640180  47.5866394  64.5753793  86.5160975  46.9685096  64.8388439
  88.0798715  47.4407932  61.9055200  88.7962744  47.9634022  62.2732794
  84.6410267  46.5105683  63.0651193  84.5747948  45.5581723  63.8489593
  83.7492523  47.4908174  63.0019666  83.9265549  48.2717965  62.3865524
  82.4989997  47.4928726  63.7972768  82.7436237  47.6883955  64.8413213
  81.5111118  48.5603039  63.3179553  80.6151606  48.4650489  63.9313860
  81.9885904  49.5191943  63.5195574  81.1327423  48.4844949  61.8620633
  81.8730254  49.1286708  60.8916267  82.7508294  49.6967711  61.1995579
  81.5245038  49.0658446  59.5567411  82.1122509  49.6041712  58.8131958
  80.4329802  48.3218298  59.1651504  80.1068522  48.2510582  57.8476255
  80.7014974  48.7541402  57.2864614  79.6881563  47.6603163  60.1180146
  78.8242877  47.0661368  59.8200509  80.0373168  47.7508995  61.4511281
  79.4431058  47.2364096  62.2063191  81.8274705  46.1305692  63.6762520
  81.1783581  45.7160402  64.6537733  81.9333766  45.4822727  62.5221699
  82.4557774  45.8995580  61.7651563  81.2583228  44.1873646  62.2789386
  80.2131851  44.2258263  62.5860332  81.3162288  43.9039837  60.7796688
  80.8252932  44.7780402  60.3517590  82.3642267  43.8935485  60.4801834
  80.6315831  42.6395330  60.2753181  79.9467953  42.2632388  61.0352978
  79.8498125  42.9711442  59.0051201  80.5340449  43.3470896  58.2444691
  79.3561369  42.0719601  58.6365377  79.1007558  43.7312886  59.2269194
  81.6477196  41.5214661  60.0394067  82.1595623  41.2918321  60.9739572
  81.1320208  40.6310167  59.6798851  82.3769291  41.8434356  59.2959766
  82.0106985  43.1909895  63.1498097  81.4075349  42.6938812  64.0997923
  83.3154716  43.0100131  62.9117641  83.7388771  43.5189213  62.1489800
  84.1668201  42.1052837  63.7064744  84.6525567  42.6733636  64.4998497
  83.5477711  41.3235887  64.1467363  85.2285456  41.4630512  62.8395849
  84.9069032  41.1497966  61.6768305  86.4436003  41.2574229  63.3596474
  86.6547495  41.6202437  64.2782748  87.5154447  40.5538769  62.6194949
  87.7176220  41.0099179  61.6503457  88.7937495  40.5344227  63.4189150
  88.6093949  40.0722890  64.3887324  89.5499800  39.9617576  62.8820068
  89.1472730  41.5551375  63.5647287  86.9888192  39.1449841  62.3372953
  87.2068027  38.6578075  61.2130128  86.3270181  38.5205050  63.3178120
  86.3039796  38.9381015  64.2371497  85.6718846  37.2028748  63.1270773
  85.3185756  36.8336383  64.0898527  84.4839103  37.3015691  62.1776493
  84.8520317  37.6521865  61.2134639  84.0701159  36.2994338  62.0654043
  83.4057392  38.2392271  62.6769584  82.9798432  38.1948559  63.8497732
  82.9284740  39.0877055  61.8995259  86.7037554  36.1941622  62.6035914
  87.7565511  36.0684646  63.2573853  86.4269459  35.4993538  61.4937969
  85.5187498  35.6328068  61.0725254  87.3124101  34.4427363  60.9391462
  88.3454718  34.7866996  60.9898627  87.1972538  33.1157822  61.7112109
  87.9580742  32.4570471  61.2924990  87.4476791  33.3473124  62.7464794
  85.8479958  32.4257006  61.6601113  85.1005318  33.1105864  62.0605233
  85.6176321  32.2063933  60.6175476  85.8165741  30.9037469  62.6025334
  86.8054281  29.8171355  61.5527061  87.8059477  30.2340768  61.4377294
  86.8738881  28.8310136  62.0120288  86.3341990  29.7294710  60.5737478
  87.0432823  34.3123505  59.4414377  86.0362818  34.8851448  59.0220160
  87.9285087  33.6765608  58.6693983  88.8258384  33.4758046  59.0872447
  87.7373734  33.3691212  57.2181563  88.4752592  32.6293997  56.9076150
  86.3315133  32.8094110  56.9371339  85.6211642  33.5440435  57.3163680
  86.2348727  32.7368588  55.8538533  86.0399182  31.4457955  57.5673737
  86.3244641  31.4956096  58.6183984  84.9651130  31.2818302  57.4898604
  86.7782880  30.2955056  56.8958910  86.7435431  29.1522469  57.4186466
  87.3910008  30.5282287  55.8322322  88.0535144  34.5528653  56.2899538
  87.3071318  35.5498381  56.3346321  89.1164584  34.4410152  55.4849186
  89.6984331  33.6346447  55.6614726  89.5585901  35.4178729  54.4528490
  88.7112644  36.0618832  54.2175002  90.7434201  36.3012255  54.8818014
  90.4450065  36.7964408  55.8058200  91.5771402  35.6286750  55.0835106
  91.1730518  37.3522642  53.8559714  91.5344694  36.8266941  52.9720855
  90.2848023  37.9286941  53.5974360  92.2575049  38.2926043  54.3660035
  92.0215807  39.5254114  54.4322108  93.3505641  37.7985178  54.7118794
  89.8452588  34.5611711  53.2196333  90.5621182  33.5638753  53.4114994
  89.3012908  34.9109876  52.0494528  88.7368414  35.7479202  52.0172047
  89.4470475  34.1126320  50.8074889  89.9535984  33.1730209  51.0280256
  88.0749880  33.7997930  50.2138388  87.5078509  34.7130524  50.0338057
  88.2222168  33.2723992  49.2713529  87.2107186  32.9190170  51.0683018
  86.3561152  33.4604426  52.0222166  86.3266818  34.5418219  52.1558296
  85.5430804  32.6388483  52.8030011  84.8864142  33.0818066  53.5517856
  85.5681331  31.2612457  52.6291211  84.9312668  30.6179132  53.2362657
  86.4152022  30.7009756  51.6701945  86.4488646  29.6211427  51.5255298
  87.2229014  31.5351804  50.8937118  87.8780888  31.1071834  50.1349972
  90.3042801  34.8943312  49.8223495  89.7771995  35.8659584  49.2341968
  91.5648744  34.4917444  49.6421667  91.9016071  33.7240192  50.2054681
  92.5166362  35.1578390  48.7205396  92.2113918  36.1965364  48.5939194
  93.9557849  35.1309222  49.2375865  94.2399141  34.1049593  49.4716161
  94.6283907  35.5293933  48.4780326  94.1881441  35.9320860  50.4770101
  94.2200039  37.3119756  50.4583680  94.4362030  37.7580635  51.6830257
  94.4959110  38.8282053  51.8813449  94.5461580  36.7175800  52.4931109
  94.7134199  36.7524511  53.4885542  94.3952572  35.5657156  51.7591045
  94.4549127  34.5945915  52.2504907  92.4378735  34.5187225  47.3304847
  93.4075497  34.7336408  46.5737152  91.3605321  33.7841680  46.9719904
  90.6165455  33.5992144  47.6295430  91.2458349  33.2478717  45.6474086
  92.1940269  32.7892054  45.3669513  90.4602753  32.4922969  45.6372908
  90.9092010  34.3115476  44.6567113  90.4825793  35.3970133  45.0380408
  91.1204696  33.9889526  43.3907891  91.5566854  33.1249030  43.1022874
  90.7559754  34.9313199  42.3843117  90.1448598  35.7220136  42.8195594
  92.0378968  35.5773617  41.7568656  92.6264168  36.0603750  42.5368922
  92.6390844  34.8076444  41.2729143  91.6142277  36.6164902  40.7227368
  91.0098631  36.1061422  39.9728107  91.0043343  37.3603643  41.2353608
  92.7804362  37.2997497  40.0490913  93.4080506  37.8304946  40.7649887
  93.3908999  36.5960317  39.4832162  92.1993252  38.2788878  39.1138675
  91.1920003  38.3035646  39.0446802  92.8973521  39.1290825  38.3976369
  92.2479191  39.9703178  37.5750404  91.2400133  39.9386046  37.5182929
  92.7707055  40.6304225  37.0173167  94.2041215  39.2100803  38.4766757
  94.7074475  38.6026487  39.1073814  94.7009405  39.8795048  37.9064648
  89.9458110  34.1875959  41.3775162  90.4042210  33.1975230  40.8105992
  88.7367125  34.6740749  41.1482894  88.4648477  35.5170248  41.6337010
  87.7653801  34.0423230  40.2628494  88.1935092  33.2273640  39.6792001
  86.5790611  33.4930546  41.0794597  86.2211715  34.2708171  41.7540713
  85.4379466  33.0625350  40.1427503  85.7949744  32.2844086  39.4681021
  84.6075502  32.6769326  40.7342329  85.1013530  33.9206814  39.5610372
  87.0314624  32.4101432  41.9053999  86.2939250  32.0665848  42.4149158
  87.3003643  35.0801287  39.2489615  86.5426035  35.9904841  39.6138803
  87.7225744  34.9253455  37.9789254  88.2339242  34.0898456  37.7328348
  87.5118050  35.9427751  36.9423762  86.6848204  36.5977167  37.2166884
  88.7828531  36.7922744  36.7959632  89.5375110  36.1229155  37.2089396
  88.9532528  36.9153251  35.7264201  88.8758501  38.1445260  37.4820937
  89.8413497  38.6105587  37.2853072  87.7439779  39.0319579  36.8959888
  86.7780765  38.5667727  37.0928035  87.7745452  40.0162860  37.3631767
  87.8838200  39.1365106  35.8200644  88.7991672  38.1224544  38.9980411
  89.6182029  37.5227637  39.3950941  88.8757091  39.1400603  39.3810827
  87.8484510  37.6886679  39.3079878  87.1421895  35.3296325  35.5936010
  87.9069295  34.5559619  35.0105295  85.9951148  35.7362750  35.0707057
  85.4517655  36.4293625  35.5651757  85.4433872  35.1705767  33.8458387
  85.7424443  34.1244562  33.7802964  83.9163572  35.2468616  33.7910575
  83.6014731  35.5248399  32.7852368  83.4888073  34.2783399  34.0504162
  83.3082017  36.2448024  34.7201076  82.4894950  35.8679681  35.7647545
  82.0982075  36.9425591  36.4235695  81.4424746  36.8558999  37.2899433
  82.6331885  38.0051386  35.8416475  82.5097635  38.9659946  36.1273427
  83.3923040  37.5920679  34.7747279  83.9175032  38.3256229  34.1630384
  86.0591944  35.8755079  32.6377499  87.0299091  36.6225225  32.7619080
  85.4916322  35.6803043  31.4510921  84.6055591  35.1973996  31.4089392
  86.1174065  36.0904080  30.1960736  86.9963041  36.7000246  30.4058491
  86.5542039  34.8632549  29.3800463  86.5950048  34.0153278  30.0637525
  85.7947275  34.6801970  28.6199243  87.9028237  35.0393369  28.7136238
  87.9880371  35.7796602  27.7111818  88.8782676  34.4259993  29.1976476
  85.1801798  36.9562054  29.3548097  84.0200444  37.1516412  29.6666378
  85.6835946  37.4112572  28.2230707  86.5382778  37.0111278  27.8631923
  85.0700761  38.5111737  27.4852104  84.6429572  39.2431657  28.1706711
  86.1430704  39.1973568  26.6459976  86.9420796  38.4748612  26.4796135
  85.7037735  39.4792648  25.6891036  86.7068448  40.4238341  27.3211966
  86.5217235  40.5870254  28.5493858  87.3267859  41.2234606  26.6024223
  83.9342938  38.0203515  26.5996200  84.1262466  37.1453705  25.7451229
  82.7639789  38.6289541  26.7753212  82.7271766  39.4120768  27.4120816
  81.5199462  38.1841666  26.1519267  80.7166961  38.8788349  26.3975366
  81.6681911  38.1273149  24.6360014  82.5043969  37.4678527  24.4036900
  80.7485623  37.7027346  24.2333668  81.9101784  39.4860799  24.0151715
  81.1913314  40.4725148  24.2771601  82.8595485  39.6324257  23.2215309
  81.0593706  36.8307530  26.6795872  80.2863028  36.1489362  25.9989977
  81.5341002  36.4306820  27.8756428  82.1661231  37.0285706  28.3886492
  81.1710124  35.1472560  28.4596935  81.0701371  34.4113556  27.6619629
  82.2200092  34.6475342  29.4564632  83.1655706  34.5046674  28.9333935
  82.3480149  35.3944950  30.2398941  81.8114965  33.4216983  30.0357219
  82.4795393  33.1230908  30.6571333  79.8540784  35.2477322  29.1896972
  79.6509026  36.1423677  30.0145002  78.9867849  34.2720313  28.9438853
  79.2506300  33.5528689  28.2856373  77.6389716  34.2350263  29.5069688
  77.3493157  35.2362624  29.8259120  76.5917018  33.6908265  28.4926835
  76.8954626  32.6935570  28.1744334  75.2130439  33.6218062  29.1255426
  74.9083836  34.6188473  29.4436494  74.4975005  33.2386323  28.3980290
  75.2422471  32.9583278  29.9898589  76.5433514  34.5777280  27.2426479
  76.1351820  35.5396324  27.5528710  77.5725378  34.7108424  26.9092479
  75.7020947  34.0132001  26.0908731  74.6726059  33.8802405  26.4234005
  75.7250817  34.7061920  25.2498421  76.1099607  33.0514488  25.7797789
  77.7026316  33.4097177  30.7809402  78.0672650  32.2329778  30.7302396
  77.4154830  34.0403701  31.9132777  77.2349765  35.0340869  31.9066677
  77.4388981  33.3554006  33.1887634  77.7529315  32.3207878  33.0507107
  78.4237054  34.0428986  34.1362501  78.1265957  35.0878897  34.2246735
  78.3425346  33.5590195  35.1095806  79.8548878  33.9651445  33.6526708
  79.8570947  34.2982252  32.6148109  80.5099169  34.6074917  34.2412530
  80.3883452  32.5505624  33.7075334  81.2414989  32.2106561  34.5721914
  79.9373914  31.7142010  32.7437029  80.2541645  30.7553930  32.7226437
  79.2861328  32.0526566  32.0498648  76.0443265  33.2606359  33.8206326
  75.0390885  33.8020174  33.2957968  75.9821676  32.4623145  34.9031353
  76.7913222  31.9098996  35.1485042  74.7811283  32.3348314  35.7254429
  74.0700411  33.1353381  35.5213761  74.0553581  30.9921590  35.6011713
  73.3511890  30.8712610  36.4243534  73.2922878  30.9735803  34.2681775
  73.9958953  31.0939719  33.4444401  72.7684642  30.0236143  34.1619987
  72.5702536  31.7899552  34.2508464  75.0466719  29.8635425  35.7598908
  75.5197257  29.9298602  36.7396480  74.5283193  28.9087991  35.6711485
  75.8083300  29.9363947  34.9835724  75.1760651  32.5373629  37.1711890
  75.9646197  31.7561784  37.7504008  74.5870882  33.5621658  37.7660900
  73.7611803  33.9430580  37.3268900  75.0785347  34.1976017  38.9797830
  75.7173472  33.5265608  39.5539970  75.8538257  35.4827205  38.6470302
  75.1586854  36.2679182  38.3498014  76.6303485  35.9319058  39.9004248
  77.3260707  35.1473564  40.1980042  77.1850569  36.8433512  39.6775651
  75.9298365  36.1231123  40.7133345  76.7777179  35.2400634  37.4392778
  76.2417732  34.5634804  36.7736206  76.9038588  36.2059276  36.9501006
  78.1782915  34.6396463  37.7727563  78.0529638  33.6734924  38.2615707
  78.7469172  34.5093643  36.8520009  78.7150487  35.3159391  38.4380530
  73.7929621  34.4197563  39.7546290  72.8143365  34.9633381  39.1942836
  73.7286739  33.9966905  41.0090290  74.5708449  33.1137474  41.7675435
  75.5929693  33.4837848  41.6873293  74.5061469  32.1251892  41.3129382
  74.0577464  33.1289170  43.1897649  74.5236285  33.9315508  43.7614571
  74.2497028  32.1749587  43.6809040  72.5514068  33.3637998  43.0195385
  72.1241595  33.8805925  43.8788894  71.9755818  32.4609737  42.8159944
  72.5305820  34.2769617  41.8047695  71.6443571  34.0212205  41.2239941
  72.4869250  35.7453853  42.1705334  73.5168351  36.3801705  42.4000264
  71.2688487  36.2763185  42.2094562  70.5019307  35.7337451  41.8385787
  70.9888316  37.6093157  42.7134611  71.8623321  38.2585298  42.7736038
  69.9217475  38.3012200  41.8543022  68.9894455  37.7452273  41.9532180
  69.7003750  39.7352260  42.2788337  70.6321916  40.2920031  42.1797467
  68.9377533  40.1885617  41.6455918  69.3713478  39.7604812  43.3176816
  70.3426119  38.1419324  40.3947195  70.4050187  37.0821449  40.1476203
  69.6070496  38.6222276  39.7494566  71.3165445  38.6075865  40.2439804
  70.5387311  37.4658225  44.1600824  69.7000827  36.5786086  44.4912415
  71.1254770  38.3192454  45.0338052  71.8891357  38.9028925  44.7235136
  70.6577336  38.4567164  46.4445681  70.3869582  37.4785847  46.8421083
  71.7490761  39.0404925  47.3040492  72.0340986  39.9861575  46.8429863
  71.3182880  39.2313584  48.2869489  72.9883400  38.1515841  47.4537290
  73.3438130  37.8815704  46.4593285  74.0760948  38.8562961  48.1966957
  73.7214965  39.1262351  49.1914277  74.9408878  38.1988093  48.2858303
  74.3606752  39.7587480  47.6556826  72.5878816  36.8602131  48.2299809
  71.8155322  36.3271630  47.6755141  73.4614620  36.2182844  48.3434975
  72.2062701  37.1310420  49.2144215  69.4839917  39.3963229  46.4930108
  69.6218489  40.5853212  46.1516629  68.3439659  38.9737206  46.9978093
  68.1355704  37.7869255  47.6885174  68.9034185  37.6980792  48.4570327
  68.2289651  36.9596365  46.9849767  66.7436152  37.8960812  48.2684095
  66.7691070  38.3649533  49.2520803  66.2786244  36.9133640  48.3468426
  66.0037347  38.7722371  47.2491565  65.1472984  39.3514367  47.5943284
  65.6997426  38.1347112  46.4189462  67.1155235  39.7089915  46.8037736
  67.0246224  39.8252224  45.7238080  66.9760692  41.0731158  47.4752604
  66.0340537  41.8265971  47.1449126  67.7696851  41.3821820  48.4632224
  68.5431420  40.8040757  48.7592918  67.4893254  42.5971400  49.2140382
  66.4980313  42.9696499  48.9558300  67.5314337  42.3197168  50.7243952
  68.5245662  41.9380178  50.9612350  67.3755112  43.2685785  51.2376689
  66.4689101  41.3061521  51.1863951  65.4751576  41.6808791  50.9411674
  66.6437744  40.3688618  50.6581798  66.5328957  41.0382380  52.6927569
  65.6939920  41.5383979  53.4512039  67.5068421  40.2387939  53.1323606
  67.5836239  40.0369820  54.1190104  68.1627106  39.8392223  52.4764030
  68.4717536  43.7069708  48.8614530  68.2908651  44.8609493  49.2939608
  69.5727472  43.3810814  48.1643223  69.7512781  42.4138425  47.9348120
  70.6091640  44.3971685  47.8069076  70.8050420  45.1068661  48.6106864
  71.9516168  43.7727596  47.3610330  72.6805765  44.5758063  47.2522535
  72.4689980  42.7504642  48.3641829  71.7407307  41.9468145  48.4731552
  73.4136683  42.3383863  48.0093726  72.6234426  43.2334307  49.3290621
  71.9163994  43.1664211  45.9600507  71.6640864  43.9401596  45.2349514
  72.8941088  42.7488279  45.7196344  71.1658243  42.3768366  45.9240760
  69.9810697  45.2983938  46.7398386  69.4176435  44.7271697  45.7881795
  69.9772949  46.6255431  46.9301716  70.2985111  46.9877177  47.8165964
  69.4423714  47.5577182  45.9616282  69.2820869  47.0427526  45.0144121
  68.1219270  48.1393688  46.4262475  67.7395486  48.7694787  45.6232235
  67.4368729  47.3080268  46.5925947  68.2383758  48.9388002  47.6678542
  68.9391335  48.4139204  48.3171158  68.6592821  49.9034452  47.3843052
  66.7267885  49.1989671  48.5367823  66.9613654  47.9346016  49.7211858
  67.8700270  48.1326418  50.2897042  66.1079988  47.9079268  50.3987952
  67.0525310  46.9738155  49.2145497  70.4472399  48.6545950  45.6427716
  70.0630151  49.7034600  45.1376583  71.7439338  48.3471659  45.8149180
  71.9859217  47.4019054  46.0757317  72.8417544  49.3326946  45.6409148
  72.4438002  50.3468337  45.6055097  73.8016812  49.2242927  46.8317908
  73.2202203  49.4396012  47.7282532  74.1505276  48.1921513  46.8648114
  74.9994287  50.1627931  46.7664014  75.4995145  50.0081568  45.8103142
  74.6309359  51.1871303  46.8216150  76.1823582  49.8822605  48.1094313
  77.5033580  49.0571885  47.2214106  77.8797897  49.7136267  46.4368808
  78.3115221  48.8169377  47.9122442  77.1230255  48.1386699  46.7744520
  73.6364862  49.0890905  44.3531456  74.1150949  47.9563136  44.1856852
  73.7863096  50.1008129  43.4909358  73.2403752  50.9379070  43.6369788
  74.6647140  50.0416725  42.3259675  74.4328072  49.1716436  41.7116645
  74.5153384  51.3201619  41.4815423  74.5417903  52.1742956  42.1581930
  75.6345950  51.4665142  40.4225123  75.6084786  50.6129189  39.7451693
  75.4810569  52.3845756  39.8553350  76.6035781  51.5052582  40.9201766
  73.1684483  51.3685895  40.7624814  73.2426021  50.6853394  39.9164487
  72.4258507  50.9942674  41.4671311  72.7458862  52.7544480  40.2638235
  73.4878162  53.1292501  39.5587256  71.7777531  52.6831732  39.7681045
  72.6710670  53.4381790  41.1094084  76.0967542  49.8637910  42.8001996
  76.6095641  50.6407936  43.6132974  76.7778684  48.8918725  42.2187137
  76.2799958  48.4110884  41.4831398  78.1375971  48.4747507  42.5169994
  78.5575664  49.1177230  43.2905054  78.1633134  47.0262366  43.0169831
  77.4194895  46.9958873  43.8131640  77.8648377  46.3502935  42.2156634
  79.5121013  46.5941339  43.5676194  80.2919727  46.8439375  42.8482450
  79.7873729  47.3116292  44.8849349  79.0081161  47.0619316  45.6050104
  80.7556778  46.9977712  45.2747803  79.7953438  48.3887185  44.7178554
  79.5560494  45.0731108  43.7357958  79.3976412  44.5954119  42.7689401
  80.5282747  44.7786812  44.1310053  78.7735670  44.7607475  44.4273517
  79.0021344  48.5484682  41.2594164  78.5136774  48.4810522  40.1407785
  80.3114774  48.5961651  41.4560070  80.6484459  48.2856830  42.3560917
  81.2913534  49.0535055  40.4675493  81.0219567  48.8487294  39.4314068
  81.5687581  50.5725855  40.6167159  81.6765908  50.7927422  41.6787905
  82.8198627  51.0058553  39.8822771  82.7125843  50.7864266  38.8199950
  82.9690508  52.0770038  40.0182347  83.6799289  50.4664958  40.2791135
  80.3358835  51.3495167  40.2034640  79.4976391  51.0676327  40.8406373
  80.5272151  52.4175842  40.3070194  80.0943488  51.1232093  39.1649329
  82.5535860  48.2509310  40.7555075  82.9662520  48.1210264  41.9438688
  83.2579845  47.6992372  39.7355846  83.0756962  47.8745187  38.3235874
  83.3529263  48.8954135  38.0608755  82.0246819  47.7112234  38.0852543
  83.9791583  46.8441045  37.6830620  84.2677688  47.1528393  36.6783302
  83.4866443  45.8728241  37.6367382  85.1888115  46.8000607  38.6244690
  85.9133673  47.5968669  38.4564875  85.6960123  45.8357871  38.5924785
  84.5173079  46.9884701  39.9758257  84.2718096  45.9963160  40.3545857
  85.4304395  47.7092669  40.9822767  85.7386292  48.8620070  40.7336980
  85.8400721  47.0422931  42.0694138  85.5237211  46.0893040  42.1781943
  86.7210696  47.6123772  43.1126216  87.3163149  46.8009258  43.5313444
  87.3806858  48.3381399  42.6369385  85.9579973  48.2990314  44.2378538
  86.6356882  48.8084379  45.1512092  84.6191611  48.3033105  44.2082173
  84.1639316  47.9057835  43.3989969  83.7697390  48.9346068  45.2579830
  84.3457614  49.6925845  45.7888004  82.5388990  49.6027731  44.6332905
  82.8976959  50.2982013  43.8745129  81.9507471  48.8181787  44.1572769
  81.6697905  50.3505645  45.6367707  81.2645557  49.6330016  46.3502054
  82.3004790  51.0677843  46.1620611  80.5222256  51.0951464  44.9964289
  80.3677765  51.1202127  43.7775724  79.6923016  51.7098748  45.8241826
  78.9053824  52.2246161  45.4555350  79.8497462  51.6613857  46.8206571
  83.4036056  47.8559716  46.2807470  82.8766149  46.8373445  45.8729189
  83.6414401  48.0717827  47.5731357  83.9983113  48.9749289  47.8507489
  83.4251104  47.0577121  48.6149851  83.7220000  46.0814067  48.2318617
  84.2488503  47.3614289  49.8770674  83.9924702  48.3654934  50.2150375
  83.9740799  46.3501579  51.0128042  84.2306777  45.3458539  50.6757126
  84.5789974  46.6065663  51.8825334  82.9184787  46.3837397  51.2823946
  85.6509535  47.3068762  49.5788231  86.1547702  47.4979174  50.3733495
  81.9446986  46.9905297  49.0114044  81.2223954  47.9979200  49.0112424
  81.4875232  45.7884822  49.3582841  82.0169495  44.9326242  49.2727605
  80.1021024  45.7037027  49.8197345  79.7550235  46.6782786  50.1630089
  79.2150236  45.2493933  48.6646106  79.1470566  46.1577494  48.0659714
  79.8065205  44.5060457  48.1301334  77.8131886  44.6994246  48.9151499
  77.8706730  43.9102151  49.6647797  76.8952542  45.7943574  49.4064711
  76.8368967  46.5837671  48.6571210  75.9002613  45.3844675  49.5799075
  77.2854518  46.2058632  50.3373359  77.2013803  44.0553967  47.6656910
  77.8312661  43.2288196  47.3368847  76.2048332  43.6811774  47.9001162
  77.1324257  44.7976358  46.8704392  79.9717204  44.7746135  51.0166200
  80.3097665  43.5931583  50.8977146  79.5226895  45.2915587  52.2140868
  80.0087868  46.5579083  52.6444381  79.4345630  47.3252169  52.1252033
  81.0559378  46.6267537  52.3497617  79.8273346  46.6123305  54.1441965
  78.8406624  46.9977675  54.4011309  80.5923085  47.2380966  54.6039063
  79.9862459  45.1484995  54.5741696  79.4391078  44.9053679  55.4850076
  81.0288776  44.8513575  54.6869765  79.3659370  44.4247503  53.3900273
  79.9474430  43.5174117  53.2266696  77.9088432  44.0561015  53.6318754
  77.0119921  44.9084326  53.5050341  77.6640725  42.8125843  54.0236831
  78.3818785  42.1194374  54.1798917  76.2786455  42.4269539  54.2268339
  75.6499106  43.3144538  54.2984959  75.7883778  41.5675261  53.0331222
  76.4095365  40.6736025  52.9768934  74.7567559  41.2802897  53.2364725
  75.8548606  42.3149130  51.7096423  76.7230612  42.9724552  51.6652943
  75.9773844  41.2636778  50.6696887  75.1092608  40.6059741  50.7131155
  76.0306566  41.7296854  49.6857681  76.8823713  40.6820277  50.8451372
  74.6287341  43.1314483  51.4671532  74.5154620  43.8639584  52.2663390
  74.7187104  43.6480409  50.5115709  73.7555674  42.4793423  51.4462586
  76.0325869  41.6246369  55.4834916  76.8487111  40.7621701  55.8372392
  74.8524699  41.8612261  56.1059901  74.3279362  42.6827649  55.8413435
  74.3243449  41.0127783  57.2003257  75.0460049  40.2337681  57.4461897
  74.0705867  41.8505045  58.4444421  74.2388257  42.8856871  58.1474712
  73.0179605  41.7100224  58.6900902  74.8934812  41.5389865  59.6209646
  74.7507240  40.5159626  59.9690211  75.9305715  41.6767654  59.3150844
  74.5945606  42.4920912  60.7734997  75.1265837  43.6264502  60.8120355
  73.6830232  42.0806143  61.6839103  73.4505069  42.6760670  62.4658781
  73.2389154  41.1797287  61.5777282  73.0392882  40.2956362  56.7400417
  71.9497300  40.8855117  56.6853808  73.1658320  39.0094027  56.4425607
  74.0776160  38.5755255  56.4649201  72.0262532  38.2023070  56.0223956
  71.2548169  38.8392698  55.5896559  72.4665640  37.1939016  54.9755803
  73.1074449  36.4559275  55.4580378  71.6057707  36.6927932  54.5328330
  73.2522245  37.9130949  53.8845191  73.7831780  38.7655720  54.3081605
  74.2333536  36.9578456  53.3015358  73.7030811  36.1052625  52.8772576
  74.8048962  37.4559476  52.5183792  74.9116726  36.6117176  54.0813942
  72.3301757  38.4308264  52.8313149  71.6236990  39.1303806  53.2780967
  72.9079800  38.9411729  52.0607372  71.7844861  37.5995807  52.3848260
  71.4125571  37.5124933  57.2327216  72.0301218  36.6348013  57.8418460
  70.1894610  37.9184850  57.5610169  69.7949980  38.6431253  56.9784409
  69.4086178  37.4388592  58.6852330  70.0514754  36.9939876  59.4447872
  68.6688664  38.6469911  59.3091089  68.6564992  39.5038357  58.6354892
  67.6453849  38.3406959  59.5253702  69.2616700  39.1319567  60.6165592
  70.5115502  39.7081181  60.6537936  71.0857574  39.8146076  59.7334426
  71.0393727  40.1513020  61.8538859  72.0311404  40.6033816  61.8649071
  70.3136740  40.0242051  63.0465961  70.7476161  40.3563885  63.9897018
  69.0607962  39.4829362  63.0249351  68.4716769  39.3853436  63.9368091
  68.5373884  39.0512006  61.8076834  67.5313431  38.6339573  61.7643164
  68.3967330  36.3553997  58.2839974  67.5932644  35.9551855  59.1169011
  68.2360530  36.0451837  56.9881606  68.8974620  36.4133853  56.3195314
  67.1051753  35.2073964  56.4797668  66.3572197  35.0603404  57.2588920
  66.4478323  35.9238150  55.3007559  65.9056238  36.7928674  55.6733912
  67.2068786  36.2476654  54.5886676  65.4650260  35.1041533  54.5337400
  64.3647877  34.5139226  55.1257547  63.6787330  33.8549481  54.2180970
  62.7736434  33.3107622  54.4878628  64.2908954  34.0038587  53.0468038
  63.9954703  33.6117204  52.1641649  65.3988243  34.7820751  53.2266727
  66.0363445  35.0272968  52.3772402  67.5251060  33.8145788  56.0338540
  68.2041964  33.7973602  55.0896990  66.9860081  32.6707358  56.5264660
  65.8340157  32.6023610  57.2646926  64.9856980  32.8086177  56.6120706
  65.8765651  33.3540272  58.0529099  65.8161323  31.1930239  57.8124070
  64.7957896  30.8711631  58.0207466  66.4113983  31.1240066  58.7228994
  66.4443632  30.3669234  56.6839280  65.8367883  29.9983497  55.8574263
  66.9261118  29.5262280  57.1831768  67.4964999  31.3321292  56.1615831
  68.3761690  31.2233295  56.7959672  67.8636566  30.9700084  54.7085737
  68.8734296  30.3525908  54.5316104  67.0291825  31.3011228  53.7247865
  66.1460503  31.7381129  53.9466346  67.3384719  31.0189074  52.2937660
  67.5730380  29.9607163  52.1783987  66.1573376  31.3588789  51.3863802
  65.2801525  31.4745049  52.0229933  66.3817295  32.3090942  50.9017782
  65.8790841  30.3030975  50.3271165  66.8297281  29.9776643  49.9046593
  65.3728478  29.4509007  50.7805341  65.0152092  30.8401476  49.2131868
  64.9346915  32.0450258  48.9893685  64.3458640  29.9435291  48.5117210
  63.7504265  30.2425625  47.7526857  64.4324842  28.9629102  48.7375191
  68.5581325  31.8091512  51.8202886  69.3830146  31.2343053  51.1041546
  68.6457060  33.0869364  52.1895984  67.9158014  33.5081169  52.7463260
  69.8236018  33.9134285  51.8337592  69.9457744  33.9257271  50.7506979
  69.6542849  35.3507493  52.3222065  69.2409611  35.2922194  53.3291012
  70.6525881  35.7862913  52.3645614  68.7631930  36.2168518  51.4617207
  69.1814573  36.2616690  50.4561625  67.7823164  35.7428312  51.4258775
  68.6250903  37.6231067  52.0148640  68.5552036  37.7619391  53.2484063
  68.6040795  38.5747597  51.2133279  71.0231879  33.2968352  52.5439703
  72.0762568  33.1786043  51.9232277  70.8399079  32.9136040  53.8055226
  69.9718036  33.0793323  54.2944278  71.9509590  32.3181574  54.5475669
  72.8412735  32.9305575  54.4047196  71.6428241  32.2441683  56.0471877
  70.7253502  31.6722120  56.1857766  72.7667850  31.5821658  56.8043862
  73.6845572  32.1538494  56.6666441  72.5184155  31.5446871  57.8650504
  72.9108054  30.5688613  56.4294544  71.4557431  33.6331655  56.6424772
  70.6269316  34.1345929  56.1427332  71.2385495  33.5465223  57.7070989
  72.3676414  34.2140754  56.5043249  72.3019654  30.9320428  53.9837283
  73.4377514  30.4801570  54.1493974  71.4600551  30.3184489  53.1618824
  70.5231745  30.6490340  52.9800378  71.8870723  29.0313836  52.5449252
  72.5545578  28.5095133  53.2306465  70.7100511  28.1384988  52.2454261
  69.9382996  28.7317380  51.7549508  71.0371586  27.3434310  51.5753753
  70.1845176  27.5688723  53.4333828  69.4379314  27.0061443  53.2153320
  72.7099405  29.2877957  51.2779943  73.7777735  28.6788038  51.1506700
  72.2208741  30.1486779  50.3858671  71.3618860  30.6294269  50.6119627
  72.8785278  30.4529619  49.0863410  72.9502732  29.5619030  48.4626699
  72.0182582  31.4866541  48.3632548  71.1454168  30.9481763  47.9940819
  71.7073683  32.2048349  49.1219800  72.6773779  32.2159508  47.2223102
  73.6224158  32.6507592  47.5478037  72.8589491  31.5331019  46.3923395
  71.5746695  33.5354330  46.6746107  70.3133073  33.4647533  47.9450683
  70.7668032  33.6501525  48.9187560  69.5552075  34.2226613  47.7476835
  69.8494439  32.4783828  47.9427728  74.2678195  31.0294528  49.3245862
  75.2104220  30.6182488  48.6476218  74.3744794  31.9392076  50.2778269
  73.5521924  32.2813457  50.7541513  75.6819929  32.5689077  50.5903829
  76.2298503  32.8821849  49.7016710  75.4914400  33.7893823  51.5056928
  74.9255185  33.4679123  52.3800435  76.8110361  34.3954470  51.9518055
  77.3773563  34.7175977  51.0779626  76.6181217  35.2535274  52.5956862
  77.3858303  33.6507024  52.5023224  74.6251164  34.8317618  50.8216947
  73.6494287  34.4019904  50.5949084  74.4989943  35.6899867  51.4817272
  75.1040578  35.1527549  49.8966652  76.6140756  31.5073787  51.1758973
  77.8185599  31.5620507  50.8937385  76.0673004  30.5421648  51.9124637
  75.0946934  30.5494234  52.1846444  76.9437995  29.4346900  52.4286641
  77.8387493  29.8615835  52.8813516  76.2132608  28.5939719  53.4847641
  75.4808130  29.2450913  53.9619046  75.6966363  27.7933050  52.9554894
  77.1245217  27.9951634  54.5439813  77.6871732  27.1734256  54.1009563
  77.8160151  28.7637795  54.8891891  76.3168633  27.4789850  55.7174504
  75.4354795  26.9638136  55.3355341  76.9306052  26.7775901  56.2826633
  75.8819966  28.5496820  56.6144453  76.3686537  29.4281926  56.5072848
  74.9140489  28.4640323  57.5344222  74.2337323  27.3432928  57.7234728
  74.4433956  26.5285040  57.1646698  73.5084788  27.3087106  58.4255490
  74.6319832  29.5196181  58.2802798  75.1473361  30.3784238  58.1500325
  73.9025892  29.4618346  58.9765154  77.4320167  28.5483115  51.2688205
  78.6459945  28.2959431  51.2104340  76.5347531  28.0130915  50.4340303
  75.5683772  28.0430425  50.7261258  76.8695147  27.2742865  49.2093835
  77.5296557  26.4321279  49.4169457  75.5439597  26.7321420  48.6382361
  74.9759920  26.2808836  49.4517948  74.9903799  27.5807642  48.2363780
  75.7159213  25.7108187  47.5479715  76.6812242  24.9370012  47.4953805
  74.7437118  25.6893029  46.6471654  74.7833603  25.0318742  45.8814531
  73.9677764  26.3304364  46.7306687  77.6913454  28.1174992  48.2371199
  78.3301917  27.5394004  47.3555650  77.7656411  29.4466756  48.3874671
  77.1957126  29.9646102  49.0409382  78.6779406  30.1917864  47.5211676
  78.5825399  29.8341533  46.4959377  78.3615405  31.6684522  47.5486501
  77.9092713  31.8210643  48.5285793  79.3156491  32.1935732  47.5036534
  77.4297226  32.2128588  46.4678959  76.4046450  31.8716160  46.6123613
  77.4870342  33.7440748  46.6211593  78.5117915  34.0861338  46.4763595
  76.8407935  34.2087240  45.8764614  77.1491423  34.0227379  47.6192957
  77.7543928  31.8282422  45.0585881  77.7242996  30.7429946  44.9614728
  77.0243660  32.2733862  44.3825637  78.7513293  32.1878037  44.8037705
  80.1372644  29.9685554  47.9229772  80.9765073  29.6270331  47.0711493
  80.4173323  30.0921721  49.2339546  79.6979593  30.4490878  49.8465009
  81.7880576  29.8971984  49.7908023  82.5012242  30.5891503  49.3428122
  81.8308988  30.0387536  51.3344849  80.8316064  29.8316227  51.7173841
  82.8295807  29.0896549  51.9833554  83.8292438  29.2965018  51.6012709
  82.8175547  29.2319569  53.0639600  82.5577645  28.0602260  51.7499218
  82.1224551  31.4844693  51.7599764  82.2045648  31.4792834  52.8468673
  83.0859261  31.7495606  51.3246033  81.0850851  32.4964576  51.3390381
  80.1213761  32.2322717  51.7744350  81.3808099  33.4865257  51.6860413
  81.0027358  32.5025471  50.2521704  82.3299308  28.5752354  49.2391463
  83.5183997  28.5363544  48.8926654  81.4791258  27.5689332  49.0786203
  80.5283241  27.6784518  49.4012364  81.8859619  26.2568461  48.5246285
  82.8258304  25.9437110  48.9792632  80.8253856  25.1905649  48.8099954
  79.9326374  25.4939389  48.2631280  81.2082010  24.2596284  48.3917734
  80.4733965  24.9803820  50.2834617  80.3220455  25.9674848  50.7202932
  79.5489119  24.4071662  50.3531326  81.5466397  24.2634934  51.0700751
  81.4355462  23.0771469  51.3678033  82.5889213  24.9876746  51.4396691
  83.3359190  24.5593740  51.9675464  82.6334715  25.9659440  51.1924735
  82.1705200  26.3862127  47.0154442  83.1563612  25.7751183  46.5970823
  81.3720024  27.1362740  46.2380152  80.5224550  27.4834609  46.6597139
  81.5494932  27.3006215  44.7624455  82.0890720  26.4518451  44.3422876
  80.1644624  27.3743901  44.1065995  79.5390973  26.5891295  44.5313153
  79.7282462  28.3474662  44.3322946  80.2060796  27.1994840  42.6008579
  80.2967794  26.0788241  42.1092157  80.1401122  28.2933541  41.8641073
  80.1645794  28.2223850  40.8569010  80.0654927  29.1959243  42.3112089
  82.5356966  28.4347280  44.3987050  83.7380598  28.1889865  44.6193834
  82.1102359  29.6149231  43.8907634  81.1098486  29.7428248  43.8363042
  82.9974801  30.6975272  43.3448786  84.0369714  30.3696950  43.3539933
  82.5971678  31.0222191  41.8955839  83.2883375  31.8087021  41.5925523
  82.7974943  30.1204212  41.3170254  81.1676846  31.4789269  41.6437014
  80.3174481  31.3502255  42.5446091  80.9084086  31.9495069  40.5174832
  82.9984023  31.9910670  44.1802779  83.8230256  32.8617445  43.8288249
  82.1468336  32.1424017  45.2042708  81.5127534  31.3652889  45.3231706
  82.0125360  33.2859565  46.0963715  81.2608723  33.0573998  46.8519260
  83.3270125  33.6310768  46.8024589  84.1295050  33.3472937  46.1215975
  83.3321782  34.7125247  46.9386341  83.5401373  32.9434818  48.1593837
  83.2003418  33.5988288  48.9613564  82.9783456  32.0099473  48.1910903
  85.0436676  32.6452112  48.3413186  85.2180138  32.3539149  49.3771028
  85.3175763  31.8217239  47.6818172  85.8931229  33.8009485  48.0283920
  85.8845098  34.5506541  48.7051244  86.6555005  33.9350274  46.9362596
  86.7305093  32.9831826  46.0088443  86.2014257  32.1302045  46.1210887
  87.3161656  33.1182791  45.1971453  87.3686826  35.0518446  46.7704141
  87.3269757  35.7821081  47.4668879  87.9465053  35.1611227  45.9492698
  81.5137588  34.5300155  45.3637410  81.6443214  35.6655811  45.8757481
  80.9121233  34.3321926  44.2050324  80.6843999  33.3858642  43.9353956
  80.5918317  35.4037252  43.2857298  80.7980639  36.3946297  43.6902983
  81.3984676  35.2242945  41.9933702  81.0898715  34.3112289  41.4842730
  81.1350475  36.4156942  41.0963499  81.4438426  37.3291524  41.6046208
  81.7005745  36.3064924  40.1709563  80.0708582  36.4701655  40.8669276
  82.7796380  35.0651152  42.3494478  83.3041709  34.9510010  41.5535561
  79.1127447  35.4208673  42.9770104  78.5617886  34.4215429  42.4989109
  78.4884410  36.5649034  43.2259829  78.9886494  37.3212809  43.6707121
  77.1022019  36.7681339  42.8876762  76.7565262  35.9342650  42.2767177
  76.2299686  36.8566979  44.1246804  75.2052081  37.1400964  43.8845751
  76.2311004  35.8868769  44.6222203  76.7236965  37.8474207  45.1212053
  77.8737419  37.6372714  45.8382002  78.4343387  36.7163073  45.6780240
  78.3402465  38.6026368  46.7832383  79.2655794  38.4256067  47.3314354
  77.6201381  39.7573966  47.0014302  77.9498920  40.5084443  47.7192670
  76.4578065  39.9509834  46.2863670  75.8488550  40.8338492  46.4808564
  76.0551798  39.0191891  45.3112192  75.1879584  39.2266779  44.6843418
  76.9898676  38.0532644  42.1064557  77.9614813  38.7933422  41.9682246
  75.7662279  38.3234963  41.6353287  75.0113473  37.7097609  41.9065913
  75.4688656  39.4252777  40.7376191  76.4081857  39.7886920  40.3208374
  74.5521699  38.9793865  39.5750138  73.6039774  38.6213452  39.9760592
  74.3693960  39.8243601  38.9111512  75.0359969  38.1776783  39.0170938
  74.7939824  40.5730780  41.4674820  73.7678143  40.3617947  42.1135381
  75.2929479  41.8041789  41.2741683  76.1634603  41.9224075  40.7758418
  74.6651518  42.9805171  41.8534776  73.8212031  42.6900564  42.4791631
  75.6299387  43.8271053  42.6937893  76.3982596  44.2525812  42.0482256
  74.8281824  44.9941416  43.3981920  74.0599295  44.5694076  44.0443262
  75.5123874  45.5966091  43.9956843  74.3588366  45.6219252  42.6407595
  76.3214874  42.9915684  43.6902357  76.8885217  42.2122678  43.1810553
  77.0009816  43.6108775  44.2757640  75.5874769  42.5323244  44.3523719
  74.0271355  43.8008555  40.7483056  74.7115309  44.4647300  39.9630028
  72.7111963  43.7788925  40.7340341  72.2179845  43.2869232  41.4653395
  71.9453949  44.4044735  39.7030615  72.3557989  44.1521985  38.7252961
  70.5028510  43.9202472  39.7650120  70.2657133  44.1511446  40.8035453
  69.9025326  44.5489157  39.1073694  70.1920369  42.4484699  39.4864148
  70.8405169  41.8623071  40.1375582  68.7606657  42.0496078  39.7146066
  68.1115743  42.6350593  39.0634341  68.6382205  40.9898093  39.4911449
  68.4928962  42.2343455  40.7549296  70.6385437  42.1104278  38.0751880
  71.7104039  42.2846895  37.9811244  70.4215275  41.0629358  37.8659854
  70.1047091  42.7406284  37.3638746  71.9896131  45.9076488  39.8525471
  71.8459235  46.4349183  40.9612103  72.0778699  46.6038720  38.7004824
  72.2768052  46.1170917  37.8381779  71.9765180  48.0563862  38.6658925
  72.2017830  48.4320337  39.6640126  72.9818609  48.6529065  37.6810950
  72.7635845  48.2931335  36.6756007  72.9093953  49.7403120  37.7010534
  73.9905401  48.3512619  37.9633645  70.5642692  48.4968685  38.3285950
  70.2448242  48.9480972  37.2263189  69.7384567  48.5150732  39.3419574
  70.0452213  48.3971182  40.2969870  68.3189996  48.6945441  39.0918439
  67.9940886  47.9856237  38.3302903  67.4951142  48.4621706  40.3591076
  67.8707947  49.1956821  41.0724969  66.4572229  48.6904119  40.1166458
  67.5765442  47.1073310  40.9548623  66.8922360  46.0073776  40.3845836
  66.3047247  46.1658169  39.4802457  66.9592806  44.7463758  40.9552081
  66.4547605  43.9039968  40.4819651  67.6824715  44.5543290  42.1336880
  67.7496007  43.2996272  42.7573154  67.2563333  42.6215464  42.2898826
  68.3653497  45.6606583  42.7288324  68.9251035  45.5269028  43.6545136
  68.3129990  46.9211865  42.1171486  68.8522856  47.7617283  42.5539088
  68.0130423  50.0885659  38.5853320  68.3878044  51.0776709  39.2089005
  67.2183382  50.1457601  37.5237821  67.0259346  49.2941445  37.0160113
  66.6660392  51.3899694  37.0163013  67.3980697  52.1941839  37.0902578
  66.2956984  51.1992281  35.5423236  65.6242243  50.3459927  35.4463484
  65.7966850  52.0965821  35.1764802  67.4713453  50.9653876  34.7767395
  67.2340334  50.8465443  33.8541566  65.4646912  51.8485844  37.8347331
  65.4212264  53.0041005  38.2697635  64.4713261  50.9701662  38.0311949
  64.5233909  50.0454230  37.6284064  63.2590425  51.3413859  38.7616978
  63.1752084  52.4273903  38.8025101  62.0087179  50.7784490  38.0714367
  62.1024118  50.8838366  36.9905971  61.9334698  49.7216926  38.3277637
  60.7316606  51.4811224  38.5207904  59.6443638  50.9175756  38.4299512
  60.8642130  52.6995573  39.0296797  60.0471778  53.2050229  39.3412207
  61.7815207  53.1157990  39.1030987  63.2747804  50.8973800  40.2197502
  62.6975764  51.5951540  41.0528895  63.9300437  49.7724775  40.5372725
  64.2713960  49.2693314  39.7307851  64.1299206  49.1680986  41.8825537
  64.7456263  48.2757007  41.7701634  64.8120378  50.1127983  42.8880409
  64.2449717  51.0419443  42.9448113  64.8665229  49.4829200  44.2335095
  65.4338650  48.5538875  44.1776287  65.3515381  50.1626492  44.9341014
  63.8541698  49.2697288  44.5767182  66.2032713  50.4285819  42.4563279
  66.1802799  50.9121446  41.4797315  66.6663022  51.0976188  43.1816496
  66.7820785  49.5072389  42.3914415  62.8435327  48.6520126  42.5175210
  62.8188139  47.5227150  43.0120177  61.8069079  49.4939327  42.6072228
  61.9253945  50.4717524  42.3837748  60.4946853  49.0364613  43.0099556
  60.5652934  48.5878907  44.0008633  59.4799492  50.1698861  43.0603133
  58.7974241  50.0016129  43.8933456  60.0053891  51.1135910  43.2067164
  58.6838812  50.2263315  41.7512263  59.3575569  50.5560486  40.9603101
  58.3074031  49.2309190  41.5155987  57.5091501  51.1858009  41.8192519
  57.6619133  52.3468359  42.2150891  56.3293329  50.6997959  41.4486409
  55.5120373  51.2926854  41.4733659  56.2552454  49.7397177  41.1439077
  59.9296133  48.0134231  42.0622133  58.8776306  47.4557460  42.3824658
  60.5675757  47.7852938  40.9112246  61.3583125  48.3563414  40.6490425
  60.1178991  46.7538327  39.9781100  59.4301030  46.0829605  40.4928588
  59.4049848  47.3498385  38.7721252  60.1497364  47.9110431  38.2077728
  59.0467209  46.5149578  38.1698618  58.2424775  48.2589412  39.1171035
  58.1496639  48.2786610  40.2029661  58.4541926  49.2641876  38.7527472
  56.9470304  47.7645489  38.5091017  56.9549528  47.3394491  37.3249293
  55.9153403  47.8248260  39.2286184  61.2935002  45.9192008  39.5193968
  61.3013745  45.4020506  38.4034646  62.3164054  45.7822144  40.3563439
  62.3640830  46.3080921  41.2173195  63.4565474  44.8957087  40.0085078
  64.3338576  45.1779056  40.5905653  63.1156100  43.4373151  40.3146759
  62.4615804  43.0860567  39.5165769  64.0503556  42.8771575  40.2907147
  62.4333805  43.2275187  41.6582147  61.5350983  43.8437766  41.6958470
  62.1570150  42.1772629  41.7514183  63.3540513  43.6090299  42.7957319
  64.3473194  43.2061176  42.5977944  63.4090907  44.6958844  42.8575159
  62.8884292  43.0934346  44.0711658  62.0094834  43.4473679  44.4208582
  63.5416807  42.1978182  44.7949993  64.6938767  41.7135725  44.3615210
  65.0709644  42.0292842  43.4793470  65.1911645  41.0303761  44.9147362
  63.0428687  41.7877321  45.9470830  62.1623062  42.1593992  46.2735388
  63.5442784  41.1043556  46.4963403  63.8191335  45.0840021  38.5379661
  64.1720851  44.0899309  37.8924138  63.7231936  46.3151001  38.0438061
  63.4648547  47.0864684  38.6424306  64.0878638  46.6080473  36.6405344
  63.7132477  45.8227934  35.9839230  63.4710622  47.9394654  36.2111820
  62.3972762  47.8666178  36.3837400  63.8907460  48.7110098  36.8566933
  63.7266583  48.3012433  34.7581692  64.8079508  48.3655758  34.6366428
  63.3439304  47.4695153  34.1666904  63.0860734  49.5959431  34.2851463
  62.4434736  50.2748641  35.1142915  63.2365593  49.9262203  33.0914278
  65.5930693  46.7850107  36.6504380  66.0268564  47.4622900  37.5320971
  66.3202734  46.1212952  35.7598444  65.8666590  45.4619853  35.1436920
  67.7823637  46.2751887  35.6637158  68.0559610  47.3298726  35.6934761
  68.4844490  45.5667081  36.7817338  68.2275471  44.5076476  36.7595449
  69.5621317  45.6811481  36.6650994  68.1751631  45.9951729  37.7350750
  68.2281626  45.7328186  34.3156995  67.5199315  44.8689152  33.7825299
  69.3286296  46.2431923  33.7714008  69.7682497  47.0218883  34.2409389
  69.8555201  45.8290554  32.4923293  69.5158980  44.8141347  32.2857090
  69.4011005  46.7437066  31.3409579  69.6915193  47.7578969  31.6151372
  69.9585242  46.4330442  30.4572908  67.9021743  46.7074473  31.0367875
  67.6374722  45.6807467  30.7839644  67.3836818  47.0015941  31.9493347
  67.4906045  47.6325481  29.8986334  66.2801023  47.6969626  29.5654904
  68.3781060  48.3081126  29.3374919  71.3647593  45.7086156  32.5601038
  71.9446517  44.9855037  31.7204253  72.0015311  46.2364730  33.6292096
  71.4778354  46.8239415  34.2622364  73.4225523  46.0431280  33.8826489
  73.7836473  45.2077071  33.2828309  74.2412434  47.2994868  33.5213603
  73.6913212  48.1261067  33.9712316  75.2714628  47.3128224  33.8771273
  74.2929384  47.5707583  32.0449605  73.3115595  48.3237472  31.4015244
  72.5152997  48.7912072  31.9807924  73.3488621  48.4775793  30.0255926
  72.6022789  49.0884471  29.5180941  74.3408234  47.8506728  29.2957399
  74.3622633  47.9683258  28.2123203  75.3029369  47.0778810  29.9284669
  76.0842438  46.5869121  29.3482866  75.2681589  46.9350720  31.2731238
  76.0105940  46.3142911  31.7746428  73.6215323  45.6803883  35.3253349
  72.6805994  45.6832087  36.1154762  74.8689266  45.3874401  35.6709801
  75.6054421  45.4420045  34.9820193  75.2188310  44.9853259  37.0236579
  75.0034412  45.7890465  37.7277457  74.6636476  44.0925053  37.3113071
  76.7008206  44.6784442  37.0646395  77.4004733  44.7574597  36.0591477
  77.1598434  44.2694088  38.2382020  76.5332985  44.1954224  39.0269141
  78.5669604  43.9193894  38.4348186  79.0248907  43.7534276  37.4597003
  79.3050164  45.0435444  39.1309959  78.8467788  45.1628968  40.1127666
  80.8252433  44.8096842  39.2968524  81.2842782  44.6906963  38.3154104
  81.2715799  45.6645238  39.8049195  80.9925137  43.9088234  39.8872515
  79.1320481  46.2100541  38.3101067  79.5851852  46.9545784  38.7125377
  78.5737968  42.6695950  39.2828712  77.7670369  42.5318210  40.2147864
  79.4661915  41.7471854  38.9622060  80.0388506  41.7896869  38.1313302
  79.5993569  40.5909986  39.8322497  78.6102795  40.1857719  40.0458298
  80.4599524  39.4827736  39.2153237  80.4093196  38.5880864  39.8358649
  79.9438422  39.1719025  37.8538897  79.9945964  40.0660556  37.2325895
  80.5497305  38.3841437  37.4061906  78.9087978  38.8375864  37.9247175
  81.8323686  39.9060819  39.1354819  82.3614539  39.2049715  38.7480372
  80.2090110  41.0697021  41.1357196  80.9461691  42.0551023  41.1665788
  79.8810773  40.3628051  42.2119487  79.1346003  39.6889583  42.1181296
  80.5158968  40.5162054  43.5197260  81.2850169  41.2884280  43.5047056
  79.5066122  40.8589375  44.5966880  78.7348646  40.0899187  44.6300946
  80.0088496  40.9111331  45.5626763  79.0490542  41.8226565  44.3731136
  81.1989103  39.2075766  43.8304966  80.7043733  38.1644346  43.4566799
  82.3639341  39.2681304  44.4540868  82.7349673  40.1846855  44.6599032
  83.1521776  38.0969156  44.8424078  82.5728484  37.1949583  44.6450507
  84.4785151  38.0123503  44.0585949  84.2777327  37.3871568  43.1885841
  84.7032940  39.0275961  43.7317151  85.6789854  37.4457499  44.8293115
  85.9685608  38.2369721  45.5208420  85.3618223  36.5687933  45.3936286
  86.8754793  37.0780859  43.9439666  86.6542678  36.6865250  42.7708325
  88.0300983  37.1316910  44.4397270  83.3919086  38.2721689  46.3297360
  83.8039529  39.3528773  46.7577441  83.1122213  37.2940658  47.0859736
  82.7614582  36.4210860  46.7185897  83.2425549  37.4338989  48.5377263
  82.9564971  38.4363189  48.8561979  82.3964691  36.3956925  49.2927661
  82.6378561  35.3937698  48.9378244  82.7092486  36.4961222  50.7890037
  82.4676660  37.4976964  51.1447951  82.1144681  35.7638536  51.3350070
  83.7684852  36.2983802  50.9533664  80.9185607  36.5930112  49.0201160
  80.5226978  37.3071442  49.7422015  80.7996729  36.9919378  48.0127319
  80.1752738  35.3066818  49.1355205  80.2933188  34.9073517  50.1428440
  79.1177303  35.4782747  48.9348792  80.5702958  34.5921442  48.4133755
  84.7131269  37.3014689  48.9116316  85.4272225  36.4536832  48.3649206
  85.1831882  38.1329077  49.8357170  84.6115248  38.8653538  50.2317259
  86.5785245  38.0505480  50.2422038  87.0182436  37.1215828  49.8792024
  87.3704743  39.2310149  49.6559724  88.4180276  38.9313478  49.6254599
  87.0172072  39.4190154  48.6420897  87.2316020  40.4848287  50.4755817
  88.0525817  40.7448149  51.5646494  88.8312873  40.0275883  51.8240779
  87.8910510  41.9098622  52.3264911  88.5304468  42.1141083  53.1853032
  86.9056456  42.8075768  51.9711821  86.6846473  43.9768491  52.6457154
  87.2839643  44.1024065  53.3850760  86.0892137  42.5544706  50.9068728
  85.3049088  43.2647890  50.6453118  86.2541872  41.4040043  50.1630462
  85.6044260  41.2087147  49.3099504  86.7802076  37.9992867  51.7517247
  87.9211514  37.8004561  52.1822531  85.7317267  38.1934570  52.5563100
  84.9090108  38.6202052  52.1549076  85.7203608  37.8751608  53.9709179
  86.5490066  37.2041626  54.1972070  85.8323099  39.1061662  54.8639666
  85.0041637  39.7835010  54.6554206  85.7971321  38.8013227  55.9098792
  86.7757662  39.6148277  54.6658429  84.4222365  37.1166700  54.2667744
  83.6058086  36.8342931  53.3635962  84.1996949  36.8179355  55.5459858
  84.7648596  37.1864807  56.2975592  83.1467964  35.8567238  55.8766788
  82.1800763  36.2177365  55.5256499  83.4496615  34.5070769  55.1878341
  83.4421536  34.6919425  54.1136518  84.4531981  34.2169761  55.4990509
  82.4915689  33.4077224  55.5101368  81.2707113  33.3283677  54.8749654
  81.0103415  34.0851401  54.1349637  80.3830948  32.3105056  55.1634141
  79.4222070  32.2505135  54.6523394  80.7241294  31.3574319  56.1173177
  79.8649125  30.3279527  56.4422699  79.0425291  30.3555161  55.9477747
  81.9395742  31.4267868  56.7581200  82.2115881  30.6809286  57.5049832
  82.8129193  32.4435380  56.4522044  83.7787654  32.5018374  56.9540437
  83.0216239  35.7099723  57.3860150  83.8963588  36.1317683  58.1476107
  81.8981175  35.1207813  57.8047827  81.2020463  34.8266425  57.1346584
  81.6136797  34.9353683  59.2250299  82.4023630  34.3480511  59.6952814
  81.5419839  36.3322669  59.9298129  82.4776014  36.8702712  59.7772662
  80.7179572  36.9124922  59.5145798  81.3137872  36.1226579  61.4247294
  81.1140739  37.0986272  61.8671086  80.4357950  35.4866519  61.5375486
  82.4909316  35.4842940  62.1244326  82.6751202  34.4713805  61.7664104
  83.3984041  36.0782144  62.0155668  82.1356398  35.4227319  63.5528438
  81.2862990  35.8917279  63.8334901  82.8271121  34.7804668  64.4649812
  82.3994132  34.8026439  65.7382604  81.5584328  35.3086846  65.9765350
  82.9207801  34.3131779  66.4514919  83.9042134  34.0906962  64.1761209
  84.2275220  34.0415425  63.2205291  84.4055305  33.6117617  64.9105605
  80.3084266  34.1572743  59.3856315  79.4461047  34.1520399  58.4950538
  80.1788013  33.4940307  60.5501053  80.9110124  33.5713085  61.2414767
  79.0218502  32.6379231  60.8525286  78.1792347  32.9297714  60.2256930
  79.3428084  31.1635114  60.5860480  80.2814750  30.9621626  61.1022485
  78.5414047  30.5920379  61.0543109  79.4680094  30.7613455  59.1465233
  79.2097774  31.6173710  58.5231155  80.4997043  30.4686080  58.9515629
  78.5495986  29.6097429  58.8238761  77.3715121  29.6769007  59.2479562
  78.9874307  28.6401480  58.1572235  78.6225911  32.8146086  62.3113862
  79.2595969  32.2383618  63.1832745  77.5456306  33.5299306  62.5789838
  77.0377765  33.9137400  61.7948448  77.1211483  33.8984284  63.9249928
  77.8571910  33.5288357  64.6389546  76.9845903  35.4208876  64.1031332
  76.2259857  35.7511025  63.3935020  76.6266208  35.5850822  65.1194983
  78.2714256  36.2178560  63.8810943  78.7742908  35.8037596  63.0071655
  77.9775320  37.2473892  63.6766757  79.2190803  36.1878696  65.0735176
  79.5151159  37.2639096  65.6523707  79.6656778  35.0810185  65.4445070
  75.8344193  33.1617481  64.3058754  75.3555934  32.2710454  63.6032329
  75.3222303  33.4896378  65.4954635  75.8244262  34.1215974  66.1025267
  74.0681328  32.9188574  65.9760778  73.3524618  32.8973278  65.1542197
  74.2426756  31.5049839  66.5051766  75.2463883  31.4149875  66.9205810
  73.5077833  31.3397368  67.2930387  74.0526599  30.4660622  65.4082984
  73.6825536  30.9850138  64.5240974  75.0063779  29.9913388  65.1777301
  73.0665541  29.4014322  65.7870057  73.2865470  28.2118937  65.5395582
  71.9591312  29.8254449  66.3630931  71.2527322  29.1602388  66.6434548
  71.8222567  30.8135253  66.5214090  73.5022786  33.8171015  67.0601671
  74.1830800  34.1372622  68.0407264  72.2479574  34.1984679  66.8932961
  71.7192047  33.7792658  66.1417713  71.5917141  35.1985830  67.7256413
  72.0076461  35.1617787  68.7324904  71.7937212  36.6002670  67.1667512
  72.8578607  36.7795293  67.0132216  71.2806767  36.6161794  66.2051732
  71.2190912  37.6906586  68.0679107  71.4683315  37.7019194  69.3143530
  70.5350151  38.5793758  67.4957685  70.1375705  34.7452154  67.6776274
  69.5489823  34.7063869  66.5948433  69.6048945  34.2840185  68.8092190
  70.1856291  34.2091380  69.6321647  68.2257960  33.8006363  68.8869484
  67.9705124  33.5320149  69.9120201  67.2938108  34.9040389  68.4291664
  67.4567826  35.2733637  67.4166751  66.2801796  34.5122370  68.5136829
  67.3687558  36.0644029  69.3146339  66.6235354  36.0927490  70.4668058
  65.8999690  35.3074688  70.6856357  66.7938497  37.0954298  71.3207345
  66.2279427  37.0420015  72.2507858  67.6404696  38.1773196  71.0808319
  67.7203555  39.0147718  71.7739351  68.3814152  38.1660065  69.9382832
  69.0557477  38.9903188  69.7061516  68.2728412  37.0989337  69.0714393
  68.8989083  37.0548308  68.1802632  67.9923082  32.5327561  68.0953769
  66.9110694  32.3228089  67.5422189  68.9937829  31.6729146  68.0508779
  69.8466011  31.8365857  68.5666417  68.8930443  30.4691188  67.2579489
  69.7743192  29.8553354  67.4442918  68.0001021  29.9244750  67.5647332
  68.8030243  30.7696861  65.7593317  68.7322760  29.8797112  64.9053941
  68.7835033  32.0610355  65.4255584  68.6958315  32.7688034  66.1407350
  68.8796363  32.4929039  64.0293331  68.2857760  31.8337699  63.3961099
  68.4098985  33.9410115  63.8420134  69.0735566  34.6040162  64.3970656
  68.4306021  34.3216445  62.3643426  67.7667751  33.6593264  61.8086727
  68.0944901  35.3521286  62.2493130  69.4453493  34.2257363  61.9780928
  67.0210511  34.1885120  64.3874953  66.3090816  33.6436769  63.7675316
  66.9818622  33.8053028  65.4071592  66.6597383  35.6881539  64.3879234
  66.6982630  36.0719890  63.3684695  65.6542349  35.8200432  64.7875075
  67.3710456  36.2336154  65.0080957  70.3381604  32.3627178  63.6485220
  71.2119403  32.9796765  64.2857007  70.6177616  31.5877100  62.6105961
  69.9553022  30.9288421  62.2270080  71.9581398  31.6318328  62.0395090
  72.7051690  31.6295497  62.8332605  72.1822259  30.4092599  61.1559028
  71.4646937  30.4639596  60.3372120  73.1941506  30.4778121  60.7566420
  72.0141712  29.0792232  61.8927786  72.7426149  29.0489443  62.7030587
  71.0073150  29.0390372  62.3083802  72.2291860  27.8939413  60.9771709
  71.3919864  27.6696633  60.0657427  73.2323324  27.1847015  61.1743770
  72.1867881  32.9302693  61.2493524  71.3850980  33.3218865  60.4006156
  73.2540339  33.6395449  61.5790013  73.8607391  33.3185160  62.3199119
  73.5627085  34.9011369  60.9363718  72.7398759  35.1742117  60.2757086
  73.8057187  36.0301759  61.9419677  74.5546317  35.7131045  62.6677055
  74.2952244  37.2570107  61.2196386  73.5465894  37.5749732  60.4940036
  74.4670153  38.0581850  61.9384629  75.2269823  37.0273879  60.7027250
  72.5275644  36.3372520  62.6902371  71.8446632  36.8043667  61.9806242
  72.1123354  35.3850279  63.0203185  72.7105955  37.2340350  63.8673577
  73.1253871  38.1866938  63.5379810  71.7473289  37.4045469  64.3481303
  73.3930616  36.7673555  64.5776745  74.7864270  34.6906210  60.0692836
  75.5272115  33.7179335  60.2184529  74.9842663  35.6122733  59.1289722
  74.2991853  36.3407685  58.9873456  76.1450523  35.5734059  58.2462230
  76.9875660  35.1028484  58.7530223  75.8700153  34.8120331  56.9408958
  74.8396623  34.9673116  56.6209574  76.8054649  35.3472651  55.8935550
  77.8360862  35.1919173  56.2125970  76.6345237  34.8253043  54.9520474
  76.6252369  36.4133350  55.7552995  76.0649477  33.3357594  57.1567926
  75.3774732  32.9868227  57.9273275  75.8680387  32.8028693  56.2265482
  77.0907455  33.1466257  57.4731278  76.5455458  37.0062506  57.9693349
  75.7155926  37.8028475  57.5235008  77.8095843  37.3291381  58.2582056
  78.3602063  36.6429387  58.7542351  78.4295472  38.6041015  57.9287754
  77.6747717  39.2958399  57.5547285  79.0829113  39.2168653  59.1656776
  79.7332921  38.4541317  59.5938616  79.6861643  40.0580342  58.8241798
  78.1030869  39.6929759  60.2178148  77.9096436  40.7540724  60.0604785
  77.1735102  39.1345037  60.1078233  78.6614868  39.4803055  61.6249967
  78.4976649  38.4366701  61.8934859  79.7320221  39.6827002  61.5919821
  78.0099746  40.3760669  62.6596336  77.5407288  41.2298951  62.1708735
  77.2570099  39.8171723  63.2153134  79.0719664  40.8620584  63.6054786
  79.7695554  41.3803362  63.0908355  78.6533968  41.4613721  64.3024167
  79.5066129  40.0710566  64.0587970  79.4736930  38.3762958  56.8361730
  80.4200539  37.6070407  57.0361318  79.3185326  39.0576680  55.6972422
  78.4793176  39.5991358  55.5468091  80.2978492  38.9868631  54.6195703
  81.2064442  38.5091978  54.9861629  79.7608643  38.1721835  53.4192181
  80.5700735  37.9799371  52.7147175  79.2123929  36.8705965  53.9160674
  78.4027730  37.0620376  54.6203166  78.8320728  36.2911734  53.0748028
  80.0024823  36.3096827  54.4153029  78.6910011  38.9672454  52.7595831
  79.1028413  39.9155183  52.4142306  78.2968199  38.4115337  51.9087568
  77.8881159  39.1582231  53.4716251  80.7496241  40.3696860  54.1312372
  80.0627431  41.3942376  54.2467461  81.9456943  40.3743265  53.5550170
  82.5419777  39.5693001  53.6833834  82.4670715  41.5087292  52.7947208
  81.7036309  42.2851193  52.7449604  83.7297621  42.1020494  53.4405416
  84.5314740  41.3719021  53.3298964  83.9863266  43.0084800  52.8922185
  83.5443606  42.4413477  54.9401792  82.5864187  42.9512155  55.0425650
  83.5135830  41.4983076  55.4859173  84.6757029  43.3407501  55.5216782
  84.8669604  44.1437660  54.8098601  84.3195882  43.7651759  56.4603712
  85.9852205  42.5533807  55.7753593  85.7249988  41.4985994  55.8637988
  86.6303087  42.6964776  54.9084777  86.7173574  43.0018148  57.0314609
  86.1199335  42.8688984  57.8349021  87.5591698  42.4551462  57.1437338
  86.9589522  43.9790655  56.9495334  82.7281343  40.9943693  51.3888424
  83.2966156  39.8917930  51.2257241  82.2362635  41.7424826  50.3884133
  81.6796900  42.5504711  50.6281627  82.4397536  41.4382116  48.9800877
  83.1676275  40.6345851  48.8683599  81.1361747  41.0185530  48.2886726
  80.4003058  41.8169777  48.3841449  81.3293658  40.8275191  47.2330764
  80.7513274  40.1125668  48.7568402  83.0061785  42.6710077  48.3026796
  82.9827285  43.7661745  48.8611092  83.3908211  42.4839506  47.0434637
  83.2212043  41.5702411  46.6479079  84.0682808  43.4830711  46.2163992
  83.7591848  44.4914784  46.4914878  85.6062596  43.3632259  46.3410919
  85.8826303  43.2132570  47.3847532  86.0781099  42.1569038  45.5067789
  85.8024860  42.3063713  44.4628481  87.1609899  42.0609807  45.5859647
  85.6051360  41.2487392  45.8804524  86.2548125  44.6659282  45.8893254
  85.7811909  44.9506041  44.9497814  86.0323655  45.4149429  46.6493213
  87.7687181  44.5762146  45.6900959  87.9919331  43.8276765  44.9298555
  88.1514703  45.5449301  45.3688636  88.2431077  44.2920129  46.6293956
  83.6408161  43.3083862  44.7481697  83.5469613  42.1814726  44.2342456
  83.3984330  44.4267048  44.0649801  83.4597768  45.3322394  44.5080864
  83.0351448  44.3705996  42.6472104  82.2037833  43.6778261  42.5168180
  82.7352171  45.3641062  42.3139125  84.2103875  43.8985955  41.8026396
  85.3618288  44.2242576  42.0757571  83.8997030  43.0936919  40.7862074
  82.9204453  42.9035180  40.6281327  84.8700785  42.5167348  39.8710654
  85.8637418  42.8611457  40.1576201  84.8624000  40.9862075  39.8768400
  83.9580011  40.6618250  40.3915612  84.8295827  40.6515979  38.8399892
  86.0696805  40.3914201  40.5589387  85.9607724  39.3068755  40.5605844
  86.9552061  40.6662662  39.9858715  86.2228154  40.9062296  42.0416086
  86.4472598  41.9728605  42.0369044  85.2947194  40.7331623  42.5863883
  87.3058070  40.2028141  42.7261953  87.2439229  39.1947525  42.7352292
  88.3461286  40.7788849  43.3162354  88.4629435  42.0929047  43.3782456
  87.7495515  42.6800559  42.9702929  89.2651318  42.5045953  43.8333329
  89.2831726  40.0113396  43.8629682  89.1943418  39.0060110  43.8239351
  90.0798479  40.4368614  44.3150063  84.6052912  42.8776835  38.4256974
  85.4648439  43.4461344  37.7426603  83.4577988  42.4600013  37.9213923
  82.7368606  42.0861587  38.5218831  83.2250536  42.4687400  36.4947447
  83.9054092  43.1830984  36.0311635  83.4497737  41.1015704  35.8621611
  83.2733068  40.3166591  36.5976018  82.7743982  40.9657811  35.0174545
  84.8890344  41.0268832  35.3770534  84.9063547  41.5583254  34.4255441
  85.5825448  41.5021829  36.0707649  85.3286610  39.6372497  35.1489455
  85.3227819  38.8247578  36.0568636  85.8013782  39.3569874  33.9411750
  86.1164574  38.4208560  33.7302614  85.8439347  40.0810836  33.2383414
  81.8283840  42.9470362  36.2711855  80.9308036  42.6378370  37.0601775
  81.7010446  43.7731470  35.2373772  82.5140129  44.0922907  34.7301009
  80.4109773  44.2765932  34.8451958  79.7499856  44.2751179  35.7119063
  80.4949252  45.7036775  34.2962477  80.2671885  45.6169462  33.2338387
  79.6953068  46.2511846  34.7951931  81.7934437  46.4426388  34.4716867
  82.0819001  46.3782297  35.5208508  82.5487346  45.9529123  33.8570277
  81.6753848  47.9633307  34.0498324  80.8965019  48.4086917  34.6687784
  82.6320169  48.4344030  34.2757644  81.3536373  48.2069089  32.6449576
  80.4589293  48.6249991  32.4333034  82.1585151  47.8731428  31.6296675
  83.3591448  47.3345544  31.8319148  83.6824924  47.1684507  32.7742289
  83.9411179  47.0945440  31.0421035  81.7659850  48.1213611  30.3853831
  80.8698879  48.5566451  30.2191366  82.3653806  47.8736953  29.6111188
  79.8286859  43.3358727  33.8093611  80.4446641  42.3317939  33.4556953
  78.6657080  43.6134320  33.3038908  78.2496108  44.5145509  33.4908327
  77.9275730  42.6754341  32.5084585  78.4348283  42.5270901  31.5551561
  77.8138530  41.3186720  33.2204447  77.2586347  40.5901821  32.6295687
  78.8206585  40.9441876  33.4053886  77.1221618  41.3983739  34.5767175
  75.7557422  41.6642507  34.6867762  75.1889677  41.8337194  33.7712726
  75.1163875  41.7159326  35.9192841  74.0451187  41.9108068  35.9693616
  75.8714112  41.5113653  37.1348977  75.3915882  41.5858553  38.1107670
  77.2229107  41.2170405  37.0478846  77.8063659  41.0361582  37.9506369
  77.8541176  41.1509739  35.7598007  78.9137407  40.9069367  35.6840074
  76.5486807  43.2564548  32.2480395  75.9561749  43.9139800  33.1020808
  76.0095032  43.0199203  31.0506085  76.5462870  42.6024475  30.3038295
  74.6265955  43.3745268  30.7889777  74.3624737  44.2385125  31.3987871
  74.3822997  43.7233328  29.3097769  75.2448620  44.2780833  28.9405378
  74.2818741  42.7937264  28.7495566  73.0823055  44.5906659  29.1236096
  72.3235271  44.1820710  29.7909972  73.3261854  45.6076114  29.4309313
  72.5436492  44.6060967  27.6847304  73.3530362  44.9074885  27.0197832
  72.2211967  43.5966662  27.4294388  71.3445926  45.5910482  27.5235139
  71.7435836  46.5027161  27.0788025  70.6452339  45.1248096  26.8295267
  70.6273958  45.9302828  28.8084336  71.2751607  46.3627129  29.4514768
  69.8701419  46.5693095  28.6127006  70.2572372  45.0857001  29.2204551
  73.7559962  42.1805831  31.1797772  74.0242542  41.0273842  30.8468434
  72.6801271  42.4857528  31.9118572  72.4958114  43.4192227  32.2506212
  71.7713610  41.4125319  32.3091595  72.3131501  40.4725927  32.4144108
  71.0359784  41.7108732  33.6377027  70.5141604  42.6628718  33.5402144
  70.0363634  40.6181049  33.9703260  70.5575389  39.6658172  34.0684339
  69.5359055  40.8561923  34.9089190  69.2968007  40.5464712  33.1728190
  72.0388379  41.8656427  34.7847202  72.7188530  42.6886661  34.5649153
  71.5031525  42.0750194  35.7106263  72.6093081  40.9435554  34.8961633
  70.7736129  41.1668633  31.1690141  70.2346689  42.1115677  30.6322853
  70.5503222  39.9092623  30.8079172  71.0575717  39.1570906  31.2518034
  69.6218118  39.5762048  29.7222726  69.4314471  40.4579906  29.1104603
  70.2220559  38.4865392  28.8349475  70.3742555  37.6387963  29.5029792
  69.5045047  38.2142778  28.0609358  71.5558828  38.8689191  28.1830631
  72.2025076  39.2887617  28.9535885  72.2445632  37.6710862  27.5395737
  71.5986945  37.2509597  26.7685703  73.1852293  37.9900717  27.0906902
  72.4429637  36.9143979  28.2986261  71.3111178  39.9628214  27.1588923
  70.8810342  40.8341006  27.6528559  72.2553331  40.2405747  26.6904781
  70.6210254  39.6001894  26.3970724  68.2610998  39.1359029  30.2630344
  67.2517072  39.3123413  29.6375345  68.2449406  38.5495754  31.4559753
  69.1048875  38.3366287  31.9409953  67.0029023  38.0764836  32.0236328
  66.2593334  38.8716487  31.9696246  66.4628498  36.8461150  31.2723343
  66.4034912  37.1238849  30.2199941  67.2016381  36.0545207  31.3975155
  65.0958456  36.3470753  31.7457144  64.8597439  35.4416576  31.1866299
  65.1930080  36.1050114  32.8040451  63.9785596  37.3645911  31.5586113
  63.1242262  37.1824939  30.6550074  63.9459313  38.3510298  32.3253650
  67.0940171  37.8121425  33.5110937  68.1610067  37.5042690  34.0437907
  65.9597040  37.9334933  34.1869694  65.1372064  38.3030631  33.7319802
  65.8666938  37.5726176  35.6060704  66.7697651  37.0411036  35.9061609
  65.7192517  38.8077784  36.4757759  64.8324711  39.3214300  36.1044520
  65.5300082  38.4402548  37.4843458  66.8998746  39.7821939  36.5012151
  67.1766238  40.0663905  35.4859600  66.4736703  41.0079525  37.2670543
  66.1971923  40.7245995  38.2826181  67.2976891  41.7206608  37.3008293
  65.6173922  41.4665181  36.7724778  68.1123844  39.1404640  37.1795650
  68.4050407  38.2454219  36.6306101  68.9413837  39.8481280  37.1881142
  67.8555396  38.8701337  38.2037971  64.6802457  36.6500546  35.8168226
  63.5468447  36.9991145  35.4685333  64.9406854  35.4684122  36.3695742
  65.8882294  35.1913614  36.5828873  63.8615417  34.5088372  36.6250242
  62.8897331  34.9964892  36.5483234  63.9334769  33.3650839  35.5566597
  64.9215015  32.9051146  35.5749549  63.1777295  32.6101102  35.7733638
  63.6754436  33.9610167  34.1749301  62.6736882  34.3905594  34.1838817
  64.4080798  34.7522725  34.0159944  63.7786251  32.9485299  33.0594620
  64.7807468  32.5259105  32.9870471  63.0527929  32.1434987  33.1743169
  63.4824199  33.6769122  31.8137398  63.2732596  34.6613798  31.8984449
  63.5037023  33.1418417  30.6149397  63.2101610  33.9139343  29.5554226
  62.9788275  34.8874817  29.6925002  63.2221455  33.5173284  28.6266278
  63.8321272  31.8891851  30.4082916  64.0807983  31.2999512  31.1899989
  63.8348744  31.5194838  29.4683916  63.9427601  33.9422822  38.0425795
  65.0318900  33.8623828  38.6243847  62.7930963  33.5476465  38.5891988
  61.9066933  33.7905591  38.1704118  62.7845206  32.7881376  39.8384841
  63.2069449  33.4734307  40.5733516  61.3389884  32.4467846  40.2564182
  60.8688626  31.8737032  39.4572563  61.3229379  31.6266101  41.5499054
  61.7925148  32.1992657  42.3496946  60.2927319  31.3987159  41.8234723
  61.8721311  30.6973531  41.3983502  60.6560148  33.6517272  40.6171818
  59.7558755  33.4435252  40.8779527  63.6117609  31.5360737  39.6144051
  63.4613908  30.8704710  38.5844236  64.5067249  31.2432079  40.5504009
  64.6229450  31.8482763  41.3507036  65.3710618  30.0894296  40.4317438
  65.7423514  30.0153423  39.4096116  66.5717795  30.2011165  41.3832568
  66.8829060  31.2456524  41.3988858  66.2322210  29.9087840  42.3769075
  67.7626751  29.3172021  40.9673373  67.7539614  29.1768402  39.8864472
  68.6805286  29.8273504  41.2595627  67.7320380  27.9426718  41.6391921
  67.9089686  26.9162287  40.9699395  67.5293714  27.9086393  42.9579237
  67.5022955  27.0209047  43.4388558  67.4040085  28.7707750  43.4689105
  64.5823088  28.8276456  40.7205391  63.5049342  28.8718058  41.3167303
  65.1081924  27.6933133  40.2901269  65.9227760  27.6641685  39.6937180
  64.4282919  26.4509252  40.5833862  63.5152703  26.6622264  41.1400212
  64.0559853  25.6966054  39.2976011  63.3843744  26.3278496  38.7157344
  64.9699806  25.5199098  38.7305990  63.4222418  24.4578741  39.5699758
  63.2068861  24.0200180  38.7432329  65.2320794  25.5665033  41.5266749
  66.1912222  24.9121839  41.1140405  64.8705102  25.6005861  42.8122064
  65.2522240  24.9107263  43.4434650  63.8925206  26.5623917  43.3398800
  63.5847728  27.2302562  42.5353010  62.6415721  25.8701558  43.9100916
  63.0066032  24.9956790  44.4487399  62.1461223  26.5453283  44.6077818
  61.6392794  25.4247371  42.8272982  62.0139765  25.2852458  41.6476096
  60.4398301  25.2507029  43.1648043  64.5189340  27.4548574  44.4263778
  65.4814868  27.0649964  45.0931308  63.9496575  28.6467933  44.6108553
  63.1401942  28.9059667  44.0652384  64.4592095  29.5992239  45.5821156
  63.6175838  30.1454217  46.0080656  64.9722059  29.0499852  46.3715907
  65.4298701  30.5925858  44.9584649  66.3955958  30.1840614  44.3148791
  65.2692642  31.6904165  45.0825557  64.3554508  32.0810197  45.2627601
  66.3981002  32.6264104  44.8193206  66.3419242  33.5345352  45.4195312
  67.7537296  31.9359899  45.0591593  67.8106896  31.0570581  44.4170263
  68.9166327  32.8633036  44.7518097  68.8606084  33.7423114  45.3939213
  69.8561067  32.3410657  44.9327986  68.8689599  33.1729943  43.7078183
  67.8449977  31.3779653  46.4802127  67.0603961  30.6284242  46.5836013
  68.8193395  30.8989946  46.5768806  67.6887635  32.4203876  47.5578883
  66.7144020  32.8995043  47.4621451  67.7654151  31.9464014  48.5364386
  68.4733446  33.1700764  47.4554228  66.2742194  33.2566175  43.4302844
  65.4752873  34.1752921  43.6093277  66.4887442  33.3276526  42.4617958
  66.8503084  32.3857463  42.4150697  66.5725618  34.1801885  41.2374633
  65.8754287  33.7757993  40.5035873  66.2422944  35.6533449  41.4639970
  65.1778219  35.7233819  41.6878104  66.8172882  35.9928732  42.3255088
  66.5666885  36.5297211  40.2596535  67.6341611  36.7491019  40.2814517
  66.3283456  35.9771108  39.3508539  65.8071662  37.8325142  40.2446638
  64.6196043  37.8803205  39.9372873  66.4936574  38.9141055  40.5704367
  66.0372092  39.8150512  40.5777397  67.4714739  38.8345953  40.8105501
  67.9329125  33.9936447  40.5648822  68.9495184  34.1430833  41.2405934
  68.0537487  33.6993058  39.3703642  67.2679517  33.5238009  38.7605934
  69.4015841  33.5455307  38.8256368  70.1239319  33.9705178  39.5225579
  69.7454263  32.0787666  38.6025478  68.9750096  31.6520462  37.9603119
  70.7073017  32.0381921  38.0914222  69.8248153  31.2846017  39.8926026
  69.5312452  31.9002229  40.7428543  69.1517600  30.4309064  39.8132111
  71.2319749  30.7718411  40.1286185  72.1765320  31.2070650  39.4547914
  71.3947933  29.8720955  41.0968437  72.3149325  29.5027591  41.2892907
  70.5973910  29.5631846  41.6342682  69.4603757  34.3347081  37.5309736
  68.5400664  34.2365618  36.7199625  70.4981093  35.1682732  37.3776006
  71.2068853  35.2078749  38.0960487  70.6240267  36.0620579  36.2321803
  69.6706291  36.1190214  35.7069306  71.0375276  37.4669269  36.6425034
  71.9951016  37.4273229  37.1617178  71.1317434  38.0923644  35.7547807
  70.2825170  37.8893969  37.3055097  71.6368010  35.4724316  35.2710075
  72.7081939  35.0186798  35.6991189  71.2622709  35.4251155  33.9953165
  70.2924002  35.6103764  33.7828818  72.1474361  35.0516127  32.9045882
  72.9858906  34.4844582  33.3088518  71.4399636  34.1945222  31.8486357
  70.5595745  34.7434632  31.5144530  72.1275319  34.0677454  31.0124075
  71.0137241  32.8145020  32.3748382  71.9135460  32.2832900  32.6850562
  70.3689714  32.9717688  33.2395134  70.2735522  31.9914993  31.3348473
  69.3637934  32.5186816  31.0475900  70.9125487  31.8676504  30.4605222
  69.9086928  30.6139543  31.8999387  70.8334371  30.1199914  32.1981824
  69.2807834  30.7688137  32.7773482  69.1823423  29.7572384  30.9124586
  69.7641760  29.6132647  30.0995374  68.9671343  28.8653316  31.3346999
  68.3252129  30.2145796  30.6362932  72.6931991  36.3534215  32.3323624
  71.9175902  37.2170163  31.8737614  74.0145360  36.4874680  32.3350951
  74.5984409  35.6880638  32.5353633  74.6589847  37.7675136  32.0890172
  73.9705310  38.4824172  31.6384137  75.2154417  38.3782140  33.4161068
  75.7261223  39.3111956  33.1776748  74.0878829  38.6546634  34.4330452
  73.5770057  37.7220080  34.6723346  74.5139079  39.0786292  35.3423615
  73.3752619  39.3588732  34.0036719  76.2636661  37.4398072  34.0420815
  77.0886653  37.2985317  33.3438554  76.6409157  37.8799023  34.9651734
  75.8044572  36.4757898  34.2609387  75.7854478  37.5548339  31.0869523
  76.4921664  36.5372607  31.1590061  75.9401444  38.5400297  30.1665137
  75.1920869  39.2125548  30.0758528  77.0956270  38.6673297  29.2842849
  77.5146151  37.6773291  29.1041546  76.7262012  39.2972729  27.9329526
  75.8979570  38.7232274  27.5175220  76.3992546  40.3192876  28.1245040
  77.8943644  39.3119290  26.9296471  78.7413222  39.8445698  27.3621482
  78.1798463  38.2795586  26.7276237  77.5182499  39.9834691  25.6061530
  76.3362751  40.2463324  25.3528992  78.5107850  40.2825827  24.7662112
  78.3041508  40.7262763  23.8827296  79.4642295  40.0639522  25.0176983
  78.0956614  39.5289296  30.0524768  77.8643124  40.7426909  30.2283122
  79.1868055  38.9151867  30.5498541  79.2541320  37.9107756  30.6318590
  80.3015143  39.7242408  31.0289738  79.9815945  40.2471599  31.9302541
  81.5239567  38.8604451  31.3475542  81.8703361  38.3797094  30.4326690
  82.6504267  39.7298853  31.9269246  82.3049250  40.2106170  32.8421438
  83.5148681  39.1044123  32.1496922  82.9317978  40.4923296  31.2005582
  81.1989411  37.7818280  32.3684959  80.4435762  37.1358800  31.9209740
  82.1132164  37.2114198  32.5323092  80.6966091  38.3035640  33.6759630
  79.7820315  38.8737320  33.5130028  80.4892727  37.4687121  34.3453904
  81.4516714  38.9492741  34.1243371  80.6418931  40.7606942  29.9575128
  80.7119106  40.4537011  28.7614669  80.8420520  42.0072530  30.3573911
  80.6746422  42.3067790  31.3073161  81.2593698  43.0212248  29.3661359
  80.9563870  42.7193154  28.3635635  80.5915805  44.3571800  29.6971148
  80.8207732  44.5233833  30.7497052  81.0589812  45.1374456  29.0964299
  79.0810953  44.3961589  29.4939573  78.6075128  43.7339059  30.2186927
  78.5593385  45.8071135  29.6827582  79.0321540  46.4699072  28.9580176
  77.4795297  45.8186245  29.5344975  78.7906911  46.1486341  30.6916884
  78.7064100  43.8735045  28.1200391  79.0471295  42.8432343  28.0173120
  77.6237976  43.9113810  27.9991380  79.1786956  44.4898177  27.3550532
  82.7871388  43.0927954  29.3924174  83.3753733  42.7361588  30.4243266
  83.4480766  43.4693796  28.2802064  82.9197681  43.5565993  26.9910144
  82.0513334  44.2141664  27.0300908  82.6048741  42.5571474  26.6909532
  84.0219722  44.1020562  26.1114664  84.0046746  45.1918502  26.0992625
  83.9262196  43.7262440  25.0927917  85.2985751  43.5696762  26.7735468
  86.2063338  44.1524377  26.6171430  85.4699803  42.5399155  26.4599980
  84.9076112  43.6063883  28.2420292  85.3089065  42.7044559  28.7041746
  85.4883182  44.8446160  28.9465576  86.4336849  44.8399714  29.2721698
  84.9168449  45.6544802  29.0776656  95.9545295  59.7926379  29.9163560
  95.4975719  60.4693355  29.3219058  95.2576809  59.1610264  30.2845534
  96.7615526  59.4270908  29.4313934  96.4893807  60.4976347  31.0789968
  96.0314460  60.0921981  31.9812253  98.0174793  60.3500504  31.1939465
  98.2364984  59.2862486  31.1019919  98.4476146  60.8836217  30.3463704
  98.6233439  60.8848048  32.4936845  99.7057120  60.7735839  32.4287991
  98.3701961  61.9434448  32.5511025  98.1141657  60.1732522  33.7397657
  97.6506684  60.8530300  34.6909131  98.1654576  58.9245626  33.7696035
  96.0663275  61.9646025  31.1023495  96.1079316  62.6112496  32.1534169
  95.6445855  62.4912044  29.9672221  95.6739725  61.9558756  29.1112672
  95.1579894  63.8531200  29.9084510  95.8729159  64.6000203  30.2535876
  94.7584669  64.1871932  28.4540213  93.9857015  63.4854168  28.1402636
  94.2330741  65.6098529  28.3271328  95.0055001  66.3122677  28.6402959
  93.9626890  65.8066950  27.2897109  93.3542000  65.7309869  28.9603844
  95.8673665  63.9475746  27.5772553  95.6132818  64.1567946  26.6754414
  93.9629113  64.0382683  30.8354492  93.8826265  65.0161081  31.5908488
  92.9640492  63.1640243  30.7076296  93.0328270  62.3694400  30.0879485
  91.7057004  63.3797276  31.4217118  91.4082594  64.4257303  31.3475076
  90.6053615  62.5153089  30.8119121  91.0263987  61.5129585  30.8901466
  89.7592481  62.6075874  31.4928503  90.1375258  62.7574963  29.3884554
  90.9990776  62.7380291  28.7210346  89.1006971  61.6286910  28.9501990
  88.2385997  61.6478478  29.6169222  88.7724807  61.8134435  27.9273396
  89.5810668  60.6518575  29.0062501  89.4893066  64.1404701  29.2406700
  90.2136721  64.9116927  29.5026043  89.1653377  64.2821539  28.2096166
  88.6278020  64.2113370  29.9046630  91.8753417  63.0823757  32.9164428
  91.2885745  63.7642002  33.7756428  92.7190022  62.0921946  33.2163684
  93.0885230  61.5258798  32.4661408  93.0849116  61.7551745  34.5735846
  92.2220006  61.3731100  35.1190298  94.1623948  60.6713896  34.5429422
  94.7312469  60.7667686  33.6180587  94.8279871  60.8127200  35.3944777
  93.5224312  59.2534266  34.6144730  93.0135775  59.2175227  35.5777380
  92.7839633  59.2321302  33.8130283  94.6045591  57.8188035  34.4617976
  95.3655485  57.6700093  36.1231631  94.5847714  57.5207822  36.8689630
  96.0471630  56.8195214  36.1363067  95.9177807  58.5811394  36.3533428
  93.5539335  62.9884353  35.2954844  92.9417448  63.3855052  36.3086406
  94.6021009  63.6310050  34.7511588  95.0419983  63.2387349  33.9309675
  95.1241024  64.8899376  35.2831214  95.6566163  64.6963867  36.2142854
  96.0914742  65.5549246  34.2939066  95.5599421  65.6841665  33.3511079
  96.3588423  66.5319025  34.6965583  97.3199605  64.7643937  34.0625526
  97.6182728  63.8879143  34.8972373  97.9841788  65.0237369  33.0484372
  94.0176218  65.8990433  35.5471652  93.9073260  66.4957222  36.6241867
  93.2160552  66.1316813  34.5174489  93.3426915  65.6984436  33.6139182
  92.1623916  67.1128755  34.6663740  92.5602961  68.0329895  35.0943476
  91.5655215  67.4294685  33.3003886  92.3817401  67.5436077  32.5870452
  90.9346291  66.5932289  32.9990944  90.7553503  68.6757188  33.3295192
  89.7037898  68.4407598  33.1648506  90.8695880  69.1722582  34.2931065
  91.2399590  69.5813491  32.2416252  90.5966978  70.4587780  32.1750473
  92.2627244  69.8961708  32.4488390  91.2155961  68.8820629  30.9529324
  91.9555363  68.2219373  30.7610418  90.2818274  69.0708326  30.0315035
  89.3312222  69.9713834  30.1936421  89.3084083  70.5314565  31.0338192
  88.6307746  70.0964861  29.4768281  90.2998008  68.3354553  28.9190238
  91.0224572  67.6422911  28.7871477  89.5906751  68.4750881  28.2135154
  91.0749298  66.6602714  35.6479123  90.2983300  67.5011414  36.1094741
  90.9778029  65.3699521  35.9743910  91.4201745  64.6385098  35.4364330
  90.1263598  64.9853642  37.0974038  89.3527700  65.7446685  37.2119239
  89.4668512  63.6081757  36.8863794  90.2521553  62.9019003  36.6169859
  88.7058991  63.0853306  38.1703342  87.9200850  63.7909026  38.4400839
  88.2628576  62.1119923  37.9595555  89.4095248  62.9922167  38.9975825
  88.4705059  63.7180382  35.7611202  87.5408234  64.1333856  36.1500645
  88.8721488  64.3818427  34.9955183  88.2077473  62.3921503  35.1728005
  87.8056216  61.7278828  35.9377472  87.4861130  62.4904648  34.3618275
  89.1369482  61.9763387  34.7832029  90.9041372  65.0043112  38.4126898
  90.4341425  65.5751087  39.4032716  92.0930614  64.3681064  38.4546623
  92.4718769  63.8689397  37.6625571  92.8240811  64.3163123  39.7217363
  92.1722629  63.9210511  40.5008389  94.0590407  63.4155348  39.6128478
  94.4489107  63.2675286  40.6199202  93.7339219  62.4582821  39.2053369
  95.1619396  64.0050772  38.7181345  94.7950747  64.0038639  37.6917283
  95.3386700  65.0316660  39.0390456  96.4612798  63.2208464  38.7921476
  97.2716237  63.8399529  38.4072463  96.6625810  62.9653795  39.8324907
  96.3609410  61.9368052  37.9613436  97.2477432  61.3368978  38.1657779
  95.4733573  61.3956939  38.2892047  96.2676145  62.2035807  36.4925958
  97.0901759  62.7046030  36.1885082  96.2039345  61.3271798  35.9946338
  95.4457165  62.7590960  36.3028974  93.1979999  65.7273691  40.1740829
  93.5810075  65.9163189  41.3384587  93.0385822  66.7174225  39.2977540
  92.8805347  66.5128904  38.3213898  93.1627539  68.1159678  39.7011018
  93.9431326  68.2149048  40.4556345  93.5343984  68.9975024  38.4879381
  94.3317094  68.4847052  37.9499480  92.6505110  69.0603317  37.8531976
  93.9969984  70.4112890  38.8609551  94.2490479  70.3960325  39.9213037
  94.8941922  70.6185872  38.2777117  92.9628262  71.4951373  38.6017819
  92.6344646  71.4246325  37.5648119  92.1121452  71.3324685  39.2635825
  93.5549818  72.8994804  38.8600417  92.8294220  73.5958725  38.4396830
  93.5733038  73.0054285  39.9447253  94.9330971  73.2043593  38.2985019
  94.9162269  73.1066617  37.2933799  95.1936736  74.1496664  38.5405648
  95.6056395  72.5594500  38.6882170  91.8709229  68.6023865  40.3620605
  91.8478138  68.9081862  41.5563245  90.7931593  68.7128487  39.5875956
  90.8332225  68.4622639  38.6099958  89.5373324  69.2324340  40.1174106
  89.6733983  70.2552172  40.4688359  88.4751230  69.2300408  39.0265983
  88.9314700  69.6557431  38.1329404  88.2104075  68.1895728  38.8383114
  87.2340638  70.0081400  39.3752739  86.8134013  69.6057867  40.2968246
  87.4873841  71.0583305  39.5202937  86.1802499  69.9076331  38.2726209
  85.0635731  70.4165529  38.4146724  86.5316763  69.2403582  37.1755700
  85.8741933  69.1429542  36.4150900  87.4541653  68.8345817  37.1087791
  89.0337880  68.4326028  41.2998666  88.0688301  68.8659838  41.9352327
  89.6381842  67.2711829  41.5755677  90.2054219  66.8126643  40.8769252
  89.4772073  66.6247674  42.8619714  88.4345756  66.6842060  43.1741980
  89.8778547  65.1619731  42.7841802  90.9099210  65.2138849  42.4374189
  89.8578614  64.7942534  43.8100859  89.0920504  64.2174572  41.8931699
  89.0785402  64.5614412  40.8589584  89.8233868  62.8861735  41.9748517
  89.8369044  62.5412996  43.0087657  89.3114225  62.1510879  41.3538506
  90.8466353  63.0108160  41.6205536  87.6943057  64.0700748  42.2685390
  87.2003688  65.0405451  42.2204423  87.2042463  63.3791500  41.5825608
  87.6295285  63.6799441  43.2842658  90.3173377  67.3124605  43.9330364
  89.8846528  67.4272270  45.0837581  91.5346317  67.7281427  43.5813253
  91.9518388  67.4476438  42.7053356  92.3212289  68.5515042  44.4879237
  92.5920061  67.9859915  45.3795370  93.6346998  69.0008559  43.7620772
  94.2083088  68.1236925  43.4626505  93.3845548  69.5894318  42.8794073
  94.4662665  69.8493715  44.7199884  93.8904276  70.7459592  44.9494246
  94.6123684  69.2690014  45.6309916  95.8095499  70.2451777  44.1548468
  96.4581649  69.3816338  44.0075727  95.7102239  70.7887676  43.2153023
  96.4281886  71.1354723  45.1520538  95.8958313  71.3242397  45.9893482
  97.6229168  71.6666132  45.0364339  98.0744646  72.4675461  46.0160589
  97.4945871  72.6499091  46.8226479  98.9917398  72.8836463  45.9414507
  98.4069198  71.4202104  44.0141512  98.0946994  70.8008721  43.2799586
  99.3191853  71.8509595  43.9659290  91.5209379  69.7527369  44.9683656
  91.5454124  70.1051916  46.1622909  90.7781099  70.3876679  44.0684265
  90.7342295  70.0782289  43.1079988  90.0319017  71.5880512  44.4450207
  90.6487831  72.1999676  45.1031354  89.6412497  72.4253708  43.2209893
  88.6649157  72.0580269  42.9048729  89.5451214  73.4511238  43.5769247
  90.5998118  72.3858828  42.0473877  91.5868790  72.7037463  42.3831883
  90.6536617  71.3602803  41.6822318  90.1301734  73.2941952  40.9317545
  88.9716193  73.8025074  41.0678133  90.9056698  73.4956605  39.9552075
  88.7466700  71.2805986  45.2299706  87.9062292  72.1661172  45.4384536
  88.5168358  70.0329018  45.6327978  89.1150009  69.2863300  45.3088713
  87.3772015  69.6894968  46.4759181  86.7537290  70.5676886  46.6437286
  86.5333249  68.6152433  45.7851095  87.1666614  67.7762833  45.4967864
  85.7340066  68.2597450  46.4353489  85.8602237  69.1222674  44.4964919
  85.9129851  70.3791869  43.9829887  86.4834316  71.1171701  44.5469668
  85.2063212  70.4418935  42.8194411  85.1070348  71.2630224  42.2397954
  84.6556162  69.2167153  42.5620632  83.8695215  68.7938540  41.5143927
  83.6134863  69.4993705  40.7239554  83.4573197  67.4939174  41.5394011
  82.8118562  67.1352756  40.7376201  83.8359639  66.6015856  42.5627376
  83.5119453  65.5608592  42.5628140  84.6239587  67.0244523  43.5857831
  84.9400408  66.2902547  44.3268274  85.0377025  68.3607217  43.6123940
  87.7930326  69.2272817  47.8640858  87.2769757  69.6438247  48.9003388
  88.8480646  68.2568666  47.8421723  89.1566963  67.8790532  46.9578066
  89.5376118  67.8125192  49.0739202  89.2104606  68.4481980  49.8967103
  89.2563826  66.3608299  49.4389100  88.1824680  66.2376400  49.5790203
  89.5864449  65.7434800  48.6034233  89.9835094  65.9337010  50.7016627
  90.1209176  66.7783848  51.6083277  90.3923327  64.7635383  50.7766880
  91.0205040  67.9534839  48.7523073  91.4425209  67.6363368  47.6409215
  91.7989741  68.3863311  49.6082849  91.3803147  68.5366076  50.5150598
  93.2070195  68.8017202  49.4070889  93.3324667  69.1168828  48.3712150
  93.6245745  69.9615342  50.3278849  93.4369022  69.6319296  51.3497651
  94.6954852  70.1045759  50.1836995  92.8953536  71.2832343  50.0765367
  91.8350497  71.1201588  50.2695725  93.2874698  72.0058848  50.7921625
  93.0770345  71.8196417  48.6624476  92.0631474  72.0954799  47.9738408
  94.2416658  71.9753976  48.2377027  94.1195911  67.5926815  49.5541924
  95.3196847  67.8606142  49.5635993  93.8481813  66.3092722  49.6721388
  92.8630706  66.1447675  49.8224532  94.7575162  65.1517924  49.6759377
  95.6038750  65.3614056  50.3300312  94.0502794  63.8773529  50.1784921
  93.1835421  63.6798087  49.5477449  94.7794077  63.0766971  50.0543059
  93.5978087  63.9027778  51.6342262  93.2890663  64.9519461  52.2242372
  93.5004531  62.7254002  52.2365293  93.2054349  62.6780094  53.2013185
  93.7217681  61.8814689  51.7277068  95.3239303  64.9456637  48.2766311
  94.5958464  65.1027426  47.2952483  96.6296630  64.6243383  48.1971265
  97.1501118  64.5933318  49.0621531  97.3593483  64.4489889  46.9426477
  96.9788973  65.1552177  46.2046795  98.8703801  64.6925454  47.1241831
  99.0575218  64.4473036  48.1696178  99.4030555  63.9881356  46.4853061
  99.3640007  66.1178273  46.8368952  98.7990652  66.5142260  45.9932028
  99.1800650  67.0331338  48.0482839  99.7451201  66.6376062  48.8923037
  99.5406588  68.0330360  47.8068951  98.1231387  67.0820211  48.3102327
 100.8175984  66.1107956  46.4246242 100.9371899  65.5100075  45.5230417
 101.1445298  67.1315485  46.2264310 101.4211945  65.6857502  47.2265638
  97.1289137  63.1161148  46.2396226  96.9981690  62.0835421  46.8362947
  97.0839763  63.1904168  44.8851047  97.1147736  64.1383435  44.5378500
  96.9177682  62.0986914  43.9160621  95.9854251  61.5716564  44.1187188
  96.8752491  62.6350146  42.4807756  96.2617833  63.5359867  42.4836756
  97.8952202  62.8914932  42.1944582  96.2988826  61.6261729  41.4736877
  95.5176590  61.0587474  41.9794731  95.8620009  62.1898277  40.6493518
  97.3490549  60.6705155  40.9329047  98.1255761  61.2451931  40.4280686
  97.7884019  60.1187367  41.7639365  96.7174988  59.6848594  39.9423554
  95.9041331  59.1711713  40.4548604  96.3149636  60.2605640  39.1089114
  97.6958147  58.6779418  39.4259864  98.0686099  58.1440838  40.1980739
  97.2299896  58.0562082  38.7805762  98.4493598  59.1537081  38.9506809
  98.0178855  61.0597508  44.0898156  97.7689215  59.8604253  43.9330856
  99.2312028  61.5524310  44.4382413  99.2374417  62.5623709  44.4472804
 100.4875308  60.8460166  44.7184958 101.0240875  60.6443464  43.7913846
 101.3832043  61.7294081  45.6278788 101.5352006  62.6904440  45.1365474
 100.7814248  61.8719695  46.5254521 102.7339103  61.1358013  46.0111152
 103.6085992  61.0118402  45.1178056 102.9370552  60.8509563  47.2127181
 100.2937252  59.4620785  45.3517689 100.8876099  58.4814834  44.8839568
  99.4554376  59.3896260  46.3999256  99.0431855  60.2462242  46.7410811
  99.2100704  58.1640003  47.1411736  99.8030509  57.3449796  46.7341374
  99.6147026  58.3808428  48.6165034 100.6119712  58.8198419  48.6453871
  98.8888951  59.1043886  48.9876975  99.5833057  57.1446495  49.4860557
 100.5630019  56.3606727  49.4420451  98.6067361  56.9863427  50.2552194
  97.7622352  57.6572280  46.9885788  97.5439157  56.6325029  46.3391851
  96.7845456  58.3940097  47.5569982  97.1166485  59.2015427  48.0646373
  95.3539048  58.0739527  47.6180756  95.1927100  57.2449823  48.3072226
  94.5487701  59.2787020  48.1061444  93.4932508  59.0540789  47.9527735
  94.7436378  59.3957062  49.1721823  94.8788764  60.4815023  47.4306786
  94.3447113  61.2000038  47.7771221  94.7164284  57.5040765  46.3307132
  93.9928229  56.5129411  46.4129798  94.9143900  58.0219886  45.1965363
  95.5710577  58.7893772  45.1977978  94.1895553  57.7216299  43.9431420
  93.2255717  57.2621517  44.1615787  93.9484028  59.0222171  43.1781378
  94.8614920  59.5990792  43.3250988  93.8367042  58.7828825  42.1206207
  92.7483577  59.8425804  43.6432461  92.6050470  59.6821727  44.7118116
  92.9717037  61.3197882  43.3794608  93.1146423  61.4810536  42.3109754
  92.1038654  61.8852809  43.7188358  93.8573012  61.6558744  43.9187784
  91.4842702  59.3715315  42.9534051  91.3092586  58.3223245  43.1913864
  90.6386632  59.9674124  43.2968814  91.5942112  59.4855024  41.8749698
  94.8733173  56.6264351  43.0975085  96.1008584  56.5837937  43.0278691
  94.0859766  55.6610920  42.3960605  92.6751903  55.4618048  42.4903713
  92.1949326  56.4286190  42.3396296  92.4594029  55.1024521  43.4965524
  92.3006968  54.4551440  41.4260072  92.0837536  54.9526136  40.4807249
  91.4350935  53.8689247  41.7345185  93.5502628  53.5722869  41.3203613
  93.6714432  53.1316303  40.3307977  93.5894535  52.7864767  42.0747259
  94.6524901  54.5881335  41.5720451  95.4316256  54.0838098  42.1436250
  95.2432979  55.1372469  40.2894654  94.9082568  56.2360612  39.8514270
  96.1669912  54.3598944  39.6349217  96.3326820  53.4183933  39.9608383
  96.9650182  54.8559273  38.5199538  96.8665460  55.9384233  38.4386838
  98.4477773  54.5128367  38.7507941  98.9555933  54.4471318  37.7885545
  98.9088539  55.2967777  39.3515810  98.5583151  53.2636936  39.4331223
  99.4851633  53.0566304  39.5733974  96.5548404  54.3336797  37.1463834
  96.9487390  54.9323728  36.1427941  95.9484402  53.1441451  37.1038835
  95.8294039  52.6042982  37.9491616  95.4882050  52.5575430  35.8266602
  96.3172247  52.5674611  35.1190394  94.9953315  51.1190271  35.9814139
  94.2343689  51.0949174  36.7614484  94.5557861  50.8016206  35.0358173
  96.0969480  50.1515687  36.3510348  96.3991687  49.9638365  37.5265977
  96.7014080  49.5314370  35.3505941  97.4443413  48.8747329  35.5426609
  96.4170724  49.7176517  34.3995009  94.3912650  53.4841976  35.3207008
  93.7319507  54.0777840  36.1598271  94.2448949  53.7470403  34.0099306
  95.0402058  53.3671838  32.8600851  95.3145524  52.3192503  32.9812032
  95.9409487  53.9809710  32.8652481  94.1867577  53.6061560  31.6349355
  93.5828967  52.7280883  31.4059202  94.8068064  53.8547667  30.7736378
  93.3110183  54.7975706  32.0410460  92.3543678  54.7618191  31.5198546
  93.7613842  55.7809110  31.9057243  93.1035545  54.5214840  33.5213041
  93.0613624  55.4860055  34.0272847  91.8170737  53.7287867  33.8205287
  90.8213571  54.3598270  34.0991278  91.8620118  52.3966540  33.7193402
  92.7160838  51.9778061  33.3798896  90.6793547  51.5063235  33.9572346
  89.7617377  51.8934242  33.5142546  90.9223265  50.0625114  33.4596873
  90.1754763  49.4047859  33.9043359  90.8188640  49.9943865  31.9405413
  91.5657664  50.6515467  31.4951447  90.9928401  48.9705327  31.6095481
  89.8238916  50.3122936  31.6289900  92.2402605  49.4540341  33.9604731
  92.9876008  49.6664933  33.1959835  92.4967388  49.9863381  34.8764266
  92.2082153  47.9678564  34.2339814  91.9522413  47.4348171  33.3183143
  93.1878823  47.6408088  34.5823946  91.4613771  47.7546617  34.9987563
  90.2394771  51.5257889  35.4342030  89.0254393  51.3823614  35.6617982
  91.1614978  51.5946293  36.4081014  92.1438948  51.5855984  36.1737642
  90.7847843  51.6102661  37.8258614  89.8950151  51.0013017  37.9857743
  91.9218220  51.0407408  38.6650231  92.7643436  51.7230782  38.5524523
  91.6100589  51.0183892  39.7092473  92.3387592  49.6464161  38.2316709
  91.6292237  48.9964095  37.4187720  93.3789950  49.1848460  38.7326255
  90.4072643  53.0100910  38.3189465  89.4631399  53.1724391  39.1028662
  91.1442728  54.0242822  37.8983889  91.9933283  53.8765852  37.3717109
  90.7856133  55.3869039  38.2607790  90.8489581  55.5327408  39.3391195
  91.7829914  56.3473418  37.5729084  92.7790013  55.9564537  37.7809229
  91.6279114  56.3902041  36.4948485  91.7665019  57.7624600  38.0649397
  90.9029183  58.6887335  37.4915440  90.2286300  58.3568318  36.7020653
  90.8878259  60.0280104  37.9100827  90.1878942  60.7332943  37.4620079
  91.7501763  60.4462120  38.8783973  91.7483395  61.4877350  39.1998416
  92.6374797  59.5378114  39.4592717  93.3189018  59.8770973  40.2394314
  92.6561554  58.2010125  39.0469795  93.3649971  57.5031005  39.4925827
  89.3440378  55.6576306  37.8779736  88.5667009  56.1837383  38.6841411
  88.9475150  55.2539382  36.6666198  89.5659685  54.7547048  36.0434179
  87.6091031  55.5871249  36.1921737  87.4750506  56.6688481  36.1941819
  87.4028615  55.0712871  34.7656700  86.5735935  55.6339539  34.3369277
  88.3148743  55.2890831  34.2098843  87.1206888  53.6754071  34.6873907
  87.0037755  53.4236304  33.7684024  86.5289869  55.0286347  37.1040831
  85.4595614  55.6368493  37.2135787  86.7859251  53.8784313  37.7400233
  87.6517716  53.3956128  37.5469031  85.8341858  53.2533432  38.6504936
  84.8156244  53.3792407  38.2833674  86.1354974  51.7745599  38.7418465
  87.2165796  51.6674305  38.8306370  85.6554277  51.3537404  39.6253306
  85.6576275  51.0425906  37.5141547  84.4481391  51.3281193  36.9339096
  83.8320514  52.1017898  37.3921337  84.0038927  50.6710629  35.8065747
  83.0420700  50.9253823  35.3612427  84.7803531  49.6728368  35.2503079
  84.3661274  49.0225150  34.1309355  83.5180426  49.3352552  33.8076008
  85.9887813  49.3423014  35.8209994  86.6132839  48.5520261  35.4043917
  86.4120712  50.0440285  36.9599251  87.3655237  49.7990645  37.4279218
  85.8858148  53.9311389  40.0153161  84.8459162  54.3376602  40.5618483
  87.0819171  54.1174809  40.5753418  87.9153565  53.6463391  40.2536223
  87.1884014  54.9987665  41.7394461  86.8744787  54.4680315  42.6382631
  88.6087952  55.4479240  41.9192713  89.2738795  54.5876925  41.8433519
  88.9095064  56.2041362  41.1941397  88.8269688  56.0325350  43.2524162
  89.3611433  55.4106517  44.3509187  89.6551791  54.3680306  44.2301553
  89.4098911  56.2747919  45.4051025  89.7982814  56.0729919  46.3153383
  88.8664735  57.4641045  45.0228433  88.6918738  58.6362575  45.7422974
  89.0028354  58.6683833  46.7865050  88.1257329  59.7007846  45.0732627
  87.9718208  60.6390723  45.6062048  87.7367822  59.6113147  43.7093838
  87.3060775  60.4626722  43.1823324  87.8949702  58.4459432  43.0208274
  87.5588558  58.4136581  41.9844464  88.4861440  57.3460266  43.6693696
  86.2836004  56.2116442  41.6332679  85.4079713  56.4445886  42.4641936
  86.4019203  56.9271657  40.5132936  87.0785204  56.6834199  39.8041394
  85.5948230  58.1410305  40.3189791  85.5642522  58.8466829  41.1491714
  86.0961443  58.8830355  39.0578008  86.0996931  58.1843412  38.2211928
  85.2308421  60.0298595  38.7353664  85.2271534  60.7292658  39.5713796
  85.6085030  60.5314449  37.8443643  84.2153760  59.6790646  38.5513198
  87.5616576  59.2101036  39.2579336  88.1243105  58.2873916  39.3998007
  87.9404316  59.7348148  38.3808316  87.6762357  59.8437783  40.1373818
  84.1125996  57.7993459  40.2190767  83.2507327  58.5738052  40.6135779
  83.7938146  56.6487486  39.6255383  84.4961174  56.0067882  39.2867805
  82.3910135  56.3077147  39.4239468  81.8481171  57.1369971  38.9704566
  82.3039362  55.1036227  38.4958687  82.8353116  54.2622413  38.9406354
  81.2583615  54.8343024  38.3464014  82.7557162  55.3511929  37.5352944
  81.7227863  56.0010623  40.7570525  80.5439063  56.3198960  40.9956235
  82.4734479  55.3599369  41.6355844  83.4119968  55.0663889  41.4052480
  81.9581534  55.0336120  42.9340695  80.9467016  54.6412411  42.8286677
  82.8334975  53.9606180  43.5853357  83.8474414  54.3420457  43.7058786
  82.4249382  53.7012128  44.5620078  82.8525065  53.0732175  42.9526760
  81.8967410  56.2487447  43.8427335  81.0673591  56.2711592  44.7514558
  82.7567897  57.2537388  43.6542869  83.4068806  57.2845836  42.8819335
  82.8579872  58.2802626  44.6840859  82.2585922  58.0023291  45.5510218
  84.3079205  58.4302268  45.1230188  84.9623457  58.4015537  44.2518100
  84.4159362  59.3909409  45.6264678  84.7303574  57.3234538  46.0875149
  84.4878453  57.3741949  47.3179925  85.3509349  56.2994681  45.5421996
  85.6581414  55.5318215  46.1222363  85.5172371  56.2857978  44.5460784
  82.2541514  59.6150122  44.3031257  82.2853449  60.5375319  45.1192975
  81.6184939  59.6932388  43.2542176  81.4838162  58.9046561  42.6376962
  81.0009132  60.9654958  42.8950461  81.5981936  61.7976703  43.2676598
  80.9162043  61.0676810  41.3941152  81.1361094  60.0443932  41.0897751
  79.8655198  61.2853846  41.2023671  81.7782031  62.0215914  40.6076756
  81.4834056  63.0492099  40.8202679  83.2097012  61.8188960  41.0096168
  83.5053819  60.7915614  40.7968835  83.8456930  62.5031790  40.4480368
  83.3193073  62.0145053  42.0763051  81.5585042  61.7433026  39.0999416
  80.5083775  61.8961142  38.8509798  82.1737165  62.4235405  38.5109666
  81.8385868  60.7141308  38.8753129  79.5847231  61.0901305  43.4276300
  78.7815643  60.1798613  43.2039180  79.1954075  62.2701738  44.0205897
  79.9660618  63.3417853  44.4590879  80.5976929  63.6585827  43.6291591
  80.5929009  62.9877653  45.2775264  78.9998421  64.4187696  44.8973395
  78.7337379  65.0647496  44.0606809  79.4283787  65.0208367  45.6985716
  77.7881147  63.6236137  45.3983112  76.8202998  64.1233914  45.3576228
  77.9787596  63.2843967  46.4164889  77.7980536  62.4383519  44.4463319
  77.5565156  61.5521786  45.0332344  76.7715564  62.6096516  43.3464956
  76.1969443  63.6840472  43.2217438  76.4390835  61.5534563  42.6201043
  76.7716587  60.6293512  42.8557373  75.6320360  61.7112108  41.4176848
  75.3599455  62.7621380  41.3196133  76.4011737  61.2631331  40.1666374
  75.7072885  61.0059404  39.3663401  77.2720998  62.4148876  39.7262700
  77.9666122  62.6723681  40.5259305  77.8331114  62.1275619  38.8369947
  76.6463086  63.2775213  39.4974741  77.2684881  60.0460528  40.4948158
  78.0129105  60.3498623  41.2307749  76.6251697  59.2784916  40.9250374
  77.9661258  59.4915673  39.2712842  78.6100264  60.2584650  38.8407499
  78.5691525  58.6292856  39.5557632  77.2222850  59.1870963  38.5350111
  74.3343837  60.9461127  41.5221852  74.2065560  60.0096061  42.3041593
  73.3465104  61.3988979  40.7281318  73.3945008  62.3088508  40.2924920
  72.1521397  60.6012899  40.5248580  71.5460466  60.6293911  41.4303748
  71.3141000  61.1190266  39.3615063  71.9642491  61.2084271  38.4912115
  70.5391733  60.3791695  39.1610066  70.6699936  62.4586162  39.6496027
  70.6942102  62.9762722  40.7850263  70.1012917  63.0706800  38.7251244
  72.5854993  59.1575326  40.2897978  73.6034792  58.8854091  39.6380097
  71.8566666  58.2230137  40.8879377  71.2685522  58.4443972  41.6786400
  71.9181081  56.8309527  40.4363748  72.8982008  56.4091810  40.6591439
  70.8367541  55.9864049  41.1655070  70.0067950  56.6725981  41.3340478
  70.5104501  55.1752987  40.5145597  71.2963664  55.4160172  42.4901460
  72.5334128  55.2613165  42.7222106  70.4122288  55.0713416  43.2835786
  71.7137688  56.7351790  38.9082616  72.2755325  55.8352236  38.2597551
  70.9171504  57.6459292  38.3206995  70.3381656  58.2924959  38.8372530
  70.8554545  57.6746228  36.8619750  70.4467838  56.7305607  36.5016498
  69.9763950  58.8074650  36.3595927  69.8420879  58.7116393  35.2821521
  69.0052212  58.7584569  36.8520556  70.5846620  60.0388633  36.6471189
  70.0275767  60.7529828  36.3288596  72.2461081  57.8224862  36.2799673
  72.5910214  57.2048034  35.2768004  73.0838104  58.5907605  36.9228013
  72.8626337  59.0321136  37.8039299  74.3740357  58.8863794  36.3047318
  74.2652213  58.9718263  35.2235484  74.9091884  60.2185532  36.8510043
  74.5905249  60.3140578  37.8889983  75.9981876  60.2188546  36.8043064
  74.3624623  61.3991317  36.0378684  73.2746468  61.3490992  35.9903818
  74.7695355  62.6540554  36.7093889  75.8573081  62.7050246  36.7568405
  74.3905394  63.5072572  36.1467971  74.3609155  62.6752047  37.7196774
  74.9195416  61.3348358  34.6356795  74.6191092  60.3975083  34.1674307
  74.5346429  62.1714319  34.0525318  76.0075302  61.3890934  34.6735724
  75.3328911  57.7345929  36.5594596  76.1244304  57.3518261  35.6894039
  75.3029747  57.2137985  37.7784802  74.8102255  57.6816760  38.5257340
  76.0209037  55.9828729  38.0881851  77.0946744  56.1661680  38.1271521
  75.5572902  55.4622996  39.4708999  74.5723554  55.0164261  39.3323378
  76.2645529  54.6916434  39.7774427  75.4796001  56.5520469  40.5614278
  75.3131024  57.5169515  40.0825350  74.6439589  56.3268850  41.2240801
  76.7918052  56.6037946  41.3845552  77.6280570  56.5581998  40.6869141
  76.8161963  57.5537042  41.9185742  76.9305226  55.5178977  42.3536823
  76.4975249  54.6320226  42.1349643  77.5848061  55.6388306  43.5120507
  78.1119553  56.8009993  43.8947041  78.0194858  57.6135225  43.3019516
  78.6016419  56.8641893  44.7757907  77.7279966  54.5618692  44.3061745
  77.3411468  53.6733620  44.0215657  78.2216619  54.6469821  45.1831860
  75.7979248  54.9131287  37.0045132  76.7253629  54.2090249  36.6234115
  74.5561391  54.7249204  36.5748506  73.7972629  55.2855533  36.9352629
  74.2414130  53.6643157  35.6232692  74.7278529  52.7348964  35.9193350
  72.7197761  53.4631651  35.6094934  72.2362408  54.4379545  35.6733650
  72.2739837  52.7555395  34.3260484  72.7567813  51.7804156  34.2617018
  71.1919802  52.6244716  34.3398516  72.5555407  53.3575107  33.4620719
  72.2209576  52.6158608  36.7949433  72.4809433  51.5805193  36.5745431
  72.7715307  52.9487849  37.6747901  70.7364665  52.7163627  37.0620285
  70.1851942  52.3831445  36.1827309  70.4764991  52.0871056  37.9132345
  70.4757812  53.7514112  37.2829758  74.7936546  54.0378318  34.2562136
  75.4682163  53.2376482  33.5757823  74.5482342  55.2810132  33.8415683
  73.8503749  55.8652703  34.2794443  75.2253512  55.7858995  32.6490091
  74.8339796  55.3068102  31.7515678  74.9798381  57.2792896  32.5475484
  73.8969861  57.4035763  32.5566964  75.4023790  57.7120492  33.4543441
  75.5624229  57.9868090  31.3273942  76.6378995  57.8095153  31.3231753
  75.1222260  57.5686583  30.4221436  75.3151543  59.5011545  31.3385337
  76.1375564  60.3081460  30.8809056  74.1830109  59.8828009  31.8854151
  73.9523623  60.8651746  31.9283624  73.5486773  59.1920133  32.2602949
  76.6980346  55.4254657  32.6655046  77.2516104  55.0520649  31.6295163
  77.3467438  55.4451540  33.8392178  76.9260753  55.5670877  34.7493109
  78.7959026  55.3116418  33.7601405  79.1575549  55.8405669  32.8783553
  79.4768769  55.8875028  34.9825558  79.0903669  55.3934795  35.8739873
  80.5538201  55.7315798  34.9194572  79.1870835  57.3651210  35.0616345
  78.1173176  57.5668282  35.0067163  79.7316256  57.8179318  36.4557907
  80.8014977  57.6169535  36.5112904  79.5558424  58.8857888  36.5857234
  79.2176517  57.2671345  37.2435429  79.8911809  58.0902799  33.9093371
  79.5278930  57.7008627  32.9582979  79.6803432  59.1580580  33.9684871
  80.9667225  57.9283334  33.9806286  79.1975530  53.8704039  33.6157510
  80.2896969  53.5542665  33.1426707  78.3478018  52.9798830  34.1518193
  77.5286034  53.3125503  34.6400260  78.5913420  51.5174148  34.1020684
  79.6295456  51.3011247  34.3539632  77.6823373  50.8035999  35.1127102
  77.6483054  51.4835981  35.9639114  76.6868814  50.7174860  34.6771051
  78.1556652  49.4241048  35.5803626  78.5546301  48.8861833  34.7203810
  79.2323679  49.5364371  36.6530278  78.8339745  50.0738750  37.5135753
  79.5444922  48.5385742  36.9611657  80.0898252  50.0773211  36.2526383
  76.9869710  48.5992746  36.1026787  76.2513077  48.4674487  35.3092551
  77.3472825  47.6237169  36.4291200  76.5246121  49.1154273  36.9440524
  78.3385519  51.0488737  32.6716586  79.0776392  50.1949883  32.2212503
  77.3620944  51.6485744  31.9736652  76.8292048  52.3722175  32.4346085
  77.0147031  51.3031615  30.5670895  76.7491881  50.2482286  30.4984043
  75.8215508  52.1400406  30.0947834  76.0278087  53.1684846  30.3911950
  75.8066625  52.0720074  29.0070106  74.4688500  51.7145070  30.6479838
  74.1032606  50.9044335  30.0169323  74.6372232  51.3401110  31.6577265
  73.4442558  52.8235446  30.6869360  73.6229491  53.4142242  31.5854154
  73.5925327  53.4486089  29.8063634  72.0224982  52.3008816  30.7011419
  71.8435197  51.7751547  29.7632302  71.9244878  51.6029976  31.5326772
  71.0298052  53.3928192  30.8528056  71.1201678  54.0393747  30.0821563
  70.0982300  53.0026322  30.8574717  71.1952085  53.8798252  31.7220386
  78.2055771  51.5693526  29.6435607  78.3187703  50.8524145  28.6290717
  79.0645667  52.5419439  29.9714115  78.8843344  53.0822073  30.8055165
  80.2406847  52.9127783  29.1275386  79.9856432  53.0954782  28.0836643
  80.9778741  54.1484377  29.7026581  81.2179647  53.9588781  30.7488531
  82.2532864  54.4210548  28.9339583  82.0139442  54.6111772  27.8876938
  82.7531942  55.2928742  29.3560054  82.9123170  53.5556749  29.0039268
  80.0973421  55.4035964  29.7867070  79.3646175  55.2183310  30.5721318
  80.7506212  56.2232091  30.0859745  79.3808581  55.7720255  28.5055951
  78.7269939  54.9530252  28.2059284  78.7858098  56.6708825  28.6670654
  80.1129982  55.9579012  27.7197701  81.1478520  51.6761463  29.0487165
  81.2867447  51.0212404  30.0952302  81.7195021  51.3574120  27.8783783
  81.5314404  51.9511458  27.0832605  82.5634776  50.1404829  27.6706236
  82.4819439  49.4879512  28.5399072  82.1141389  49.3663791  26.4365555
  82.0748195  50.0609085  25.5973999  82.8656892  48.6018109  26.2398126
  80.7610649  48.7101904  26.6119304  80.2548763  48.5247972  27.7375447
  80.1250626  48.3490318  25.6046462  84.0428550  50.5133055  27.5529730
  84.8445554  49.5831136  27.3248819  84.4032494  51.7869953  27.7059311
  83.6664381  52.4487547  27.9041305  85.7636369  52.2908587  27.5579706
  86.4786372  51.4700090  27.5024782  85.8402909  53.1137447  26.2238402
  85.4942166  52.4850637  25.4034184  85.1917716  53.9854356  26.3114635
  87.1628366  53.5354724  25.9675206  87.1860989  54.0358162  25.1485488
  86.1461330  53.1445247  28.7783300  85.3463591  53.9617888  29.2545454
  87.3726126  52.9217925  29.2766916  87.9118341  52.1195318  28.9839165
  87.9231797  53.7817597  30.3092895  87.2489699  53.7668641  31.1656296
  89.2957322  53.2641862  30.7570911  89.9844825  53.2817069  29.9124514
  89.6821955  53.9000128  31.5536278  89.1973640  52.2424821  31.1238931
  88.0116355  55.2450067  29.8272961  87.4944315  56.1436639  30.5104689
  88.6617496  55.5233456  28.6570101  89.1146767  54.8026084  28.1134162
  88.8019657  56.9249880  28.2157077  89.3113031  57.5054072  28.9849854
  89.5907608  57.0310787  26.8792317  89.1588968  56.3355699  26.1596059
  89.5215331  58.4438870  26.3223196  89.9536648  59.1399571  27.0412419
  90.0800775  58.4943299  25.3876622  88.4811492  58.7118242  26.1381722
  91.0546852  56.6285333  27.0861896  91.5171049  57.4144886  27.6833018
  91.0492684  55.6976996  27.6533041  91.8542347  56.4332874  25.7907214
  91.8604893  57.3638998  25.2232522  92.8781979  56.1499925  26.0343248
  91.3926511  55.6471118  25.1932531  87.4261023  57.5564930  28.1190666
  87.1346083  58.6220796  28.6846658  86.5390546  56.8570611  27.4549782
  86.7493626  56.0108640  26.9452525  85.1944679  57.3909851  27.3749423
  85.2229846  58.3977804  26.9582298  84.3155779  56.5130328  26.4755458
  84.7757111  56.3952707  25.4944705  84.1705295  55.5322000  26.9283459
  82.9708039  57.2046417  26.3242607  82.5843508  57.4257397  27.3191831
  83.1750411  58.1375269  25.7987948  81.9290960  56.4462426  25.5644901
  82.1088299  55.2761089  25.1595445  80.7791834  57.1150330  25.3884382
  80.0179575  56.6810601  24.8861395  80.6801169  58.0493514  25.7590275
  84.5833312  57.5506815  28.7672551  83.7939248  58.4840485  28.9868741
  84.9347895  56.6689809  29.7238465  85.5647407  55.8983596  29.5523717
  84.3206391  56.7832269  31.0515513  83.2567009  56.9865209  30.9298706
  84.4834031  55.5064845  31.8858424  84.4226800  54.6411578  31.2258260
  85.4580732  55.5231250  32.3735322  83.3704497  55.4155200  32.9597871
  83.6924854  55.9647479  33.8445145  82.4625888  55.8688584  32.5618236
  83.1014513  54.0205466  33.3219970  82.6514312  53.9682470  34.3133827
  82.4301487  53.5645549  32.5943131  84.3437636  53.2770725  33.3366746
  85.0940640  53.6072642  33.9266933  84.5441214  52.1947933  32.6104966
  83.6209320  51.7583531  31.7459508  82.7519173  52.2625600  31.6425635
  83.7972767  50.9266846  31.2006714  85.6827013  51.5259677  32.7514405
  86.3777097  51.8509067  33.4083103  85.8483991  50.6954342  32.2011160
  84.9010196  57.9854051  31.8109097  84.1628165  58.7646148  32.4445985
  86.1963321  58.2416221  31.6084934  86.7410045  57.6082989  31.0407495
  86.8811406  59.4103073  32.2126937  86.6875313  59.4444805  33.2848163
  88.3946072  59.3012471  31.9912942  88.4825951  59.1511114  30.9152753
  88.8581332  60.2492054  32.2644585  89.1002906  58.1588260  32.7246829
  88.4196084  57.3098197  32.7876193  90.3670507  57.7399952  31.9909415
  91.0484645  58.5884139  31.9280130  90.8494520  56.9266298  32.5329991
  90.1113423  57.4046939  30.9858113  89.4181355  58.5398722  34.1624080
  88.4931725  58.7720372  34.6902737  89.9191436  57.7077785  34.6570918
  90.0702006  59.4132702  34.1716833  86.3241358  60.6852456  31.5686128
  86.3842832  61.7234467  32.2484854  85.8358310  60.6429540  30.3153727
  85.8489542  59.7957296  29.7657020  85.3572353  61.8785792  29.6796885
  85.9634547  62.7235243  30.0062845  85.4598591  61.7621217  28.1380170
  86.5104408  61.5735743  27.9170481  84.8683118  60.8900390  27.8593707
  84.9715338  63.0039148  27.3245681  83.8823994  62.9615729  27.3342747
  85.3055568  63.8795062  27.8812282  85.4970613  63.1061611  25.7855647
  84.6159004  63.1893111  25.1493725  86.0884597  64.0184227  25.7072942
  86.3016393  61.9887334  25.3225684  85.7869712  61.1665010  25.0412321
  87.6366990  61.9530569  25.2738152  88.3973345  63.0119482  25.5788675
  87.9615666  63.8790972  25.8586155  89.4033803  62.9386928  25.5278276
  88.2367454  60.8299233  24.8711785  87.6795987  60.0287182  24.6108750
  89.2449381  60.7868830  24.8288271  83.9465011  62.1822478  30.1456461
  83.5298087  63.3427126  30.2392300  83.1646667  61.1596643  30.4524487
  83.3846397  60.1889444  30.2809432  81.8571211  61.4839768  31.0047077
  81.3940651  62.2921580  30.4385617  80.9683598  60.2658297  30.9218161
  81.1163595  59.7779702  29.9583907  81.2306801  59.5745070  31.7226662
  79.1770968  60.5552393  31.0712622  78.8194597  59.2802287  30.9473994
  81.9900901  61.9963495  32.4334759  81.2078193  62.8577006  32.8616705
  82.9934044  61.5022538  33.1667015  83.6104617  60.7960268  32.7917574
  83.1464540  61.8818955  34.5687262  82.2045896  61.7409398  35.0989357
  84.2250562  61.0051163  35.2381547  85.0039075  60.7823184  34.5088735
  84.6578742  61.5526744  36.0753815  83.5954164  59.6598033  35.7606504
  83.2115017  59.8446407  36.7639178  82.7644505  59.4502041  35.0871053
  84.5502115  58.4489274  35.7909301  85.7865400  58.6760084  35.5205655
  84.0963686  57.3258629  36.0980029  83.4274756  63.3628711  34.6657778
  82.6028866  64.1042860  35.2112903  84.5268254  63.8236151  34.0310267
  85.1798252  63.1784541  33.6097691  84.8481730  65.2563041  34.0041944
  85.1155736  65.5978791  35.0041557  86.0204713  65.5078684  33.0767927
  86.6623229  64.6628830  33.3260422  85.6416506  65.3887087  32.0617085
  86.8205444  66.7960777  33.1704403  87.6357528  66.7132397  32.4516399
  86.0127771  68.0821653  32.8865466  85.1976131  68.1659387  33.6052875
  86.6664781  68.9497287  32.9765991  85.6035567  68.0394403  31.8771836
  87.5046225  66.9555113  34.5295323  88.1869538  66.1214629  34.6935039
  88.0639721  67.8908690  34.5478375  86.7510248  66.9679555  35.3169551
  83.6422636  66.1079008  33.5986840  83.3948372  67.1624559  34.2003713
  82.8371358  65.6431233  32.6358709  83.0704942  64.8108946  32.1133400
  81.6175136  66.3728249  32.2731337  81.8362605  67.4366692  32.1810227
  81.0681182  65.8645391  30.9258601  81.7850770  66.0955403  30.1380100
  80.9681803  64.7832048  31.0198207  79.6946482  66.4798196  30.5691766
  79.5891184  67.7234462  30.4387872  78.7195864  65.7125781  30.3873386
  80.5235854  66.2748297  33.3301489  79.5778031  67.0802144  33.3137149
  80.6196867  65.3157633  34.2356297  81.3199219  64.5923635  34.1552389
  79.6718406  65.2425908  35.3464395  78.7341728  65.6382827  34.9561751
  79.4654899  63.7901333  35.7974910  80.4444799  63.3565032  36.0015593
  78.6039247  63.6928137  37.0351966  77.6245451  64.1258552  36.8317476
  78.4866439  62.6460193  37.3154952  79.0782622  64.2362724  37.8523598
  78.6999506  62.9262991  34.7927318  77.6501132  63.2169677  34.8308640
  79.0979618  63.1336057  33.7993988  78.8293122  61.3897216  35.0985003
  78.4310516  61.1815568  36.0915541  78.2678090  60.8224840  34.3561697
  79.8789011  61.0981952  35.0600911  80.1373057  66.0951986  36.5242664
  79.3462316  66.8541754  37.0996175  81.4257186  65.9863426  36.9071878
  82.0612609  65.3178383  36.4957424  81.9342821  66.8745446  37.9504392
  81.3698548  66.6985781  38.8661667  83.4133499  66.6511288  38.2396604
  83.9774540  67.2333432  37.5110232  83.6092481  67.0350336  39.2408302
  83.8524641  65.1526132  38.1613370  83.5234145  64.5907356  39.0354770
  83.4783934  64.6704364  37.2581876  85.7196928  65.1785670  38.1152017
  86.0417251  66.4274396  39.3333779  85.6270948  66.1160336  40.2921308
  87.1177906  66.5700648  39.4325828  85.5784280  67.3646276  39.0249370
  81.7790015  68.3140878  37.5341013  81.6339245  69.1907962  38.3800736
  81.8284713  68.5752534  36.2219542  82.0444026  67.8529953  35.5497814
  81.6261372  69.9385477  35.7336645  82.3454180  70.6006124  36.2157482
  81.8148318  70.0363675  34.1968940  81.3026638  69.2029319  33.7160944
  81.3561588  70.9739453  33.8827810  83.2900888  70.0341903  33.7465795
  84.2093368  69.9743666  34.5765201  83.5042587  70.0649467  32.4382373
  84.4502239  70.0651776  32.0843312  82.7204230  70.0879975  31.8017068
  80.2364398  70.4431527  36.1160098  80.1005885  71.4800624  36.7557845
  79.1787151  69.6937557  35.7928127  79.2981113  68.7941218  35.3495263
  77.7870977  70.2008420  36.0051017  77.7692985  71.2882823  35.9326028
  76.8550150  69.6243175  34.9374026  76.7775714  68.5553877  35.1361255
  75.8822969  70.0926785  35.0875943  77.3063703  69.8417299  33.4978790
  78.2432207  70.3980052  33.5290256  77.4818052  68.8599817  33.0579982
  76.2988167  70.5976146  32.6584339  75.3428673  70.0811819  32.7453649
  76.2084005  71.6008513  33.0748958  76.6910129  70.6908814  31.1981968
  75.8704686  71.1601743  30.6554521  77.5799415  71.3173740  31.1246297
  76.9746377  69.3607771  30.6104505  76.1509278  68.7802420  30.6781306
  77.2310959  69.4694696  29.6396184  77.7352269  68.9259298  31.1129552
  77.2388081  69.8943215  37.4038271  76.0180707  70.0175756  37.5789431
  78.1018552  69.5394891  38.3582198  79.0810838  69.4649151  38.1223186
  77.6849275  69.2218494  39.7537180  76.8104943  68.5711609  39.7453305
  78.8168294  68.5068157  40.4804923  79.7242940  69.1103067  40.4603439
  78.5383830  68.3047443  41.5147721  79.2597953  66.9137074  39.7615923
  80.2251122  66.6319730  40.6320446  77.3177832  70.5110598  40.4918843
  77.7172539  71.5830007  40.0094376  76.5761206  70.4213767  41.6046299
  76.1577349  69.5509830  41.9003790  76.3024733  71.6428660  42.4059955
  77.1560481  72.2948412  42.2204221  75.0299179  72.3334823  41.8741300
  74.1724061  71.6915854  42.0759764  74.8207894  73.6916017  42.5500263
  75.6777472  74.3342519  42.3482250  73.9171376  74.1580046  42.1576223
  74.7184189  73.5506145  43.6260112  75.2188131  72.6727751  40.4951941
  74.4286180  73.1029950  40.1603766  76.1543288  71.3185816  43.8891145
  77.0554503  70.6664039  44.4303800  75.0916506  71.8082830  44.5266585
  74.4977682  72.4488694  44.0196554  74.7629894  71.5163018  45.9461911
  75.6784859  71.2766863  46.4870699  74.1056031  72.6968896  46.6118680
  73.2281432  72.9836161  46.0322550  73.7979770  72.4075130  47.6167200
  74.9997486  73.7944916  46.6893823  74.5616910  74.5345555  47.1160096
  73.8593991  70.2814537  46.0026594  73.4317592  69.8507119  44.9252237
  73.6493872  69.6943190  47.1841757  74.1067973  70.0786321  47.9985337
  72.7946285  68.4846610  47.3582447  72.3882427  68.1634739  46.3991886
  73.6459676  67.3472819  47.9353197  74.3254947  67.8633155  48.6135906
  73.0000985  66.6805157  48.5066130  74.4576158  66.5292814  46.9236546
  73.8167062  66.2995318  46.0724491  75.6851238  67.2924156  46.4431423
  76.3267861  67.5221320  47.2937884  76.2359777  66.6820110  45.7275538
  75.3722785  68.2199913  45.9637347  74.8578606  65.1869602  47.5206204
  73.9623312  64.6272358  47.7905003  75.4330923  64.6201736  46.7885257
  75.4650878  65.3511789  48.4107924  71.6223295  68.7937427  48.2912102
  71.8601776  68.7844550  49.5147183  70.4010214  69.0025709  47.7733055
  70.2669788  69.0570999  46.7737263  69.2435295  69.1844285  48.6352233
  69.5163104  69.7683321  49.5142832  68.1514254  69.9284687  47.8760336
  67.3278967  70.1826482  48.5433360  68.5500097  70.8389306  47.4284963
  67.4250340  68.9825901  46.5229267  66.5685835  69.9248121  46.1387281
  68.7121740  67.8197365  49.1181510  68.8855448  66.7665576  48.4791560
  67.9956958  67.8645675  50.2341685  67.9022809  68.7354284  50.7371346
  67.3678995  66.6753134  50.7910334  68.0944720  65.8668390  50.8720362
  66.8294288  66.9831018  52.1743254  67.5971253  67.4897375  52.7591864
  66.5492463  66.0540283  52.6707326  65.3686306  68.0503497  52.0955507
  66.2462379  66.1880735  49.8701476  65.5453250  66.9738473  49.2183488
  66.1029379  64.8589084  49.8085270  66.6846272  64.2516090  50.3679235
  65.1686919  64.2463472  48.8612218  65.4392394  64.5332199  47.8450489
  65.2047609  62.7176929  48.9645855  66.2304361  62.3986935  48.7793043
  64.9193764  62.4490602  49.9816854  64.2636562  62.0211650  47.9675956
  63.2440617  62.3279012  48.2009213  64.5254334  62.3635946  46.9664380
  64.3623814  60.5057236  48.0262535  65.3796825  60.2063617  47.7741028
  64.1265039  60.1736149  49.0372753  63.3818250  59.8660349  47.0368716
  62.3768821  60.1923737  47.3046276  63.6281198  60.2308232  46.0396918
  63.4402066  58.3708272  47.0491723  63.2115950  58.0325852  47.9729844
  62.7772132  58.0025374  46.3821622  64.3712145  58.0682191  46.8006730
  63.7536776  64.7833297  49.0661079  63.0740638  65.1659172  48.0979355
  63.3230116  64.8680183  50.3372632  64.0172378  64.8492059  51.0706085
  61.9172422  64.8962348  50.7176961  61.3535617  64.1579977  50.1472843
  61.7915286  64.5623391  52.2124117  61.8137802  65.5149457  52.7416988
  60.8135834  64.0985012  52.3411663  62.8926130  63.6215590  52.7897944
  62.4834951  63.2076745  53.7114358  63.1172625  62.8110581  52.0964526
  64.1780496  64.3492329  53.1155313  64.2609882  65.5476824  52.9091968
  65.1951875  63.6260018  53.5607988  66.0697882  64.0767525  53.7888318
  65.0911648  62.6273357  53.6701001  61.2465379  66.2218482  50.3896048
  60.1936290  66.2266053  49.7391870  61.8843608  67.3519360  50.7295012
  62.7263735  67.2803183  51.2826608  61.3576040  68.7115126  50.4164632
  60.2899245  68.6208093  50.2166300  61.5538568  69.6551932  51.5998933
  60.9803888  69.2929361  52.4531249  61.2106522  70.6538532  51.3297288
  63.2620092  69.7739742  52.1869056  62.0031927  69.2616171  49.1336030
  61.3150747  70.0439819  48.4516434  63.2424276  68.8596624  48.7914066
  63.7201699  68.2478901  49.4376235  63.9615621  69.2806672  47.5511879
  64.9261803  68.7743554  47.5157014  63.1809129  68.9389178  46.2743511
  62.4009597  69.6949051  46.1834925  63.8859604  69.0440986  45.4497633
  62.5518514  67.5535130  46.2300194  63.3288479  66.8087965  46.0574663
  62.0641830  67.3546181  47.1843372  61.5241444  67.4417083  45.1307997
  61.8377880  67.1328838  43.9854294  60.2724588  67.6910863  45.4791899
  59.5380190  67.6328192  44.7883177  60.0571083  67.9385817  46.4344237
  64.2207362  70.7856055  47.5873915  64.4528832  71.3488456  46.5017505
  64.2741914  71.4001978  48.7754882  64.1475580  70.8459153  49.6102542
  64.3700883  72.8802376  48.9181136  64.4635884  73.3326261  47.9308439
  63.1234078  73.4604652  49.6088100  63.0304186  72.9481937  50.5664270
  63.3256939  74.5176001  49.7809903  61.8189741  73.3125605  48.8228907
  61.9309068  73.8558666  47.8845995  61.6918770  72.2503163  48.6141256
  60.5967084  73.8330006  49.5678031  59.4672454  73.7674605  49.0194430
  60.7613998  74.3018355  50.7137301  65.6441010  73.3639723  49.6053933
  66.1821733  74.3569620  49.0925271  66.1317990  72.7195278  50.6740307
  65.6904909  71.8651427  50.9828553  67.2419291  73.2418224  51.4525115
  67.3971884  74.3055995  51.2725892  67.0634123  73.0207648  52.9586902
  67.9767127  73.3424645  53.4591818  65.8809349  73.7952890  53.5162710
  64.9671437  73.4737811  53.0165531  65.7947053  73.6070769  54.5864297
  66.0315374  74.8613797  53.3463591  66.9334915  71.6268555  53.2454992
  66.8225278  71.5037151  54.1910804  68.5124255  72.5707237  50.9350035
  68.5809743  71.3468149  50.8682696  69.4816304  73.3600171  50.4646986
  69.2966023  74.3032176  50.1544782  70.8235549  72.8200302  50.2744363
  70.7545738  71.9478025  49.6243904  71.8005609  73.8277848  49.6431970
  72.7419508  73.2987520  49.4948439  71.3825703  74.1030539  48.6748939
  72.0507241  75.0914591  50.4680136  71.0837336  75.5419338  50.6918500
  72.5277237  74.7763573  51.3960661  72.9353173  76.1123677  49.7640224
  73.3111695  77.1364440  50.3889415  73.2683173  75.8873758  48.5810167
  71.3170346  72.2861108  51.6255339  70.9855421  72.8214580  52.6914444
  72.1003927  71.2104074  51.5934376  72.3598779  70.7533868  50.7309418
  72.5705037  70.6327452  52.8536261  72.2782227  71.2611858  53.6948950
  72.0538570  69.1830469  53.0853655  72.5801808  68.5190027  52.3997060
  72.2895773  68.7101451  54.5476339  71.7631436  69.3734785  55.2338970
  71.9145002  67.6936045  54.6662219  73.3565747  68.7313535  54.7693678
  70.5647318  69.0506584  52.7264583  70.4063139  69.6142256  51.8070038
  70.3733257  67.9936290  52.5416557  69.6230939  69.5529082  53.7921060
  69.8136002  70.6100604  53.9771369  68.5935462  69.4227100  53.4586704
  69.7806138  68.9894648  54.7117901  74.0946861  70.6382414  52.8729566
  74.7035071  70.6924852  53.9437823  74.7189794  70.4949057  51.6942515
  74.2046160  70.2327458  50.8655164  76.1655528  70.6486651  51.5904281
  76.4485373  71.6116565  52.0154769  76.9066538  69.5497532  52.3392292
  76.5822532  69.5293125  53.3796361  76.6014997  68.2306675  51.6948885
  76.9260620  68.2501866  50.6545146  77.1280340  67.4366242  52.2243751
  75.5282560  68.0449265  51.7367081  78.3174225  69.7816751  52.2854521
  78.7747605  69.0837391  52.7601389  76.5537995  70.6632237  50.1182143
  75.7003939  70.6407420  49.2146355  77.8696453  70.7315823  49.8789657
  78.5524924  70.6709897  50.6206851  78.3454429  70.9256159  48.5171402
  77.5704798  70.6158833  47.8160004  78.7157359  72.3960346  48.2253819
  79.1027019  72.4558221  47.2081390  77.5264119  73.3137457  48.3654095
  77.1391555  73.2548461  49.3825934  77.8303681  74.3384543  48.1516763
  76.7492520  73.0118854  47.6632675  79.7375189  72.7947656  49.1493440
  79.9809164  73.7083063  48.9826064  79.5679219  70.0693005  48.2384861
  80.2192745  69.5414619  49.1492178  79.9109268  70.0113883  46.9437607
  79.3283388  70.4637265  46.2537746  81.0534074  69.2312490  46.4801891
  80.9285405  68.1885528  46.7722371  81.1753944  69.3011369  44.9541842
  81.9252058  68.5709813  44.6496274  80.2085079  69.0254366  44.5332093
  81.5787534  70.6935987  44.4419347  80.8519209  71.4118304  44.8213534
  82.5636387  70.9255320  44.8472863  81.6241919  70.7726761  42.9256194
  82.2800697  69.9874549  42.5496525  80.6182599  70.6240444  42.5330525
  82.1519762  72.1386620  42.4735230  83.1330658  72.2834992  42.9258347
  82.2526552  72.1148430  41.3884444  81.2512510  73.2663143  42.8656308
  81.1581700  73.2888270  43.8710804  81.6450980  74.1391009  42.5443397
  80.3422244  73.1325192  42.4462640  82.3344867  69.6621756  47.1453020
  83.2039501  68.8250539  47.4209371  82.4609222  70.9633124  47.4220620
  81.7169334  71.5896238  47.1494560  83.6731946  71.5390419  48.0094913
  84.5560805  71.2222527  47.4542829  83.5762246  73.0841639  47.9457368
  82.8552630  73.4461454  48.6787326  84.5641952  73.4787020  48.1831265
  83.1506840  73.6123947  46.5130982  81.9603704  73.8361456  46.2079437
  84.1346677  73.8384636  45.6737395  83.9332737  74.1763891  44.7434995
  85.0884180  73.6733918  45.9622051  83.9304679  71.0366627  49.4342690
  85.0851857  71.0438439  49.8851539  82.8814639  70.6257129  50.1628649
  81.9631336  70.6237411  49.7424307  83.0087705  70.1962691  51.5861990
  83.7570703  70.8097770  52.0879506  81.6774603  70.3495859  52.3226989
  80.9966645  69.6027744  51.9141786  81.8653964  70.1326015  53.3742206
  81.0515465  71.7300336  52.1941772  80.6352100  71.7902672  51.1886243
  80.2434161  71.7707552  52.9244965  81.9980462  72.8971318  52.4209240
  82.4675025  73.0602841  53.5645127  82.2633484  73.6360143  51.4540623
  83.4680362  68.7340868  51.6644029  83.9541129  68.3436614  52.7363006
  83.3956583  67.9784447  50.5676074  83.0583569  68.3873696  49.7078937
  83.7238938  66.5241019  50.5774694  83.1744580  65.9803280  51.3459286
  83.4614736  65.8760078  49.2023586  83.8829440  66.5214329  48.4317163
  84.0900244  64.4915269  49.1044432  83.6686832  63.8453554  49.8745305
  83.8838771  64.0670051  48.1219030  85.1678157  64.5703569  49.2467493
  81.9600911  65.8329215  48.8970225  81.5305913  65.0623185  49.5371802
  81.5538732  66.8049364  49.1767968  81.6157273  65.5396466  47.4566613
  82.0212439  64.5675143  47.1762778  80.5324317  65.5292514  47.3364040
  82.0445281  66.3101315  46.8158939  85.1760697  66.3486409  51.0105348
  85.9840235  67.2159965  50.6467493  85.4848589  65.3050574  51.7929559
  84.7294398  64.7317868  52.1405220  86.8688088  64.9816623  52.2221868
  87.5573772  65.1807620  51.4010095  87.2899453  65.8222376  53.4274944
  88.3747668  65.9264602  53.4474744  86.8315708  66.8095895  53.3715571
  86.8893823  65.2363067  54.7538617  85.5646392  65.2479731  55.1531317
  84.8137020  65.6841058  54.4943590  85.1877078  64.7129375  56.3761152
  84.1392658  64.7193144  56.6741580  86.1352837  64.1753884  57.2110613
  85.8421699  63.7665306  58.1780254  87.4531814  64.1529835  56.8273420
  88.2029980  63.7222883  57.4909510  87.8317362  64.6758310  55.6002577
  88.8777985  64.6477458  55.2951925  86.9477912  63.4894318  52.5391032
  85.9035753  62.9473132  52.9551869  88.1056972  62.8437350  52.3365685
  88.9134104  63.3475936  51.9991886  88.2250514  61.4170324  52.5449390
  87.2419757  60.9555321  52.4517781  89.1631735  60.7788573  51.5209803
  88.7147660  60.8805944  50.5327093  90.1133602  61.3124031  51.5449395
  89.3849350  59.4065116  51.8000054  89.9764765  59.0373446  51.1401613
  88.7258812  61.0956360  53.9432694  89.7113355  61.6790511  54.4000217
  88.0347689  60.1603799  54.6077917  87.1267389  59.8863476  54.2606792
  88.5115280  59.5574291  55.8399394  89.4131959  60.0691210  56.1764887
  87.4487075  59.6664069  56.9369228  86.5202791  59.8651657  56.4015587
  87.3703881  58.7116796  57.4569824  87.6984002  60.7772810  57.9498933
  88.0930424  61.6471946  57.4249087  86.4025412  61.1623884  58.6748035
  86.0075220  60.2930388  59.2004364  86.6090645  61.9569696  59.3918039
  85.6689196  61.5111937  57.9480059  88.7622453  60.4294239  58.9962073
  89.7100985  60.2263664  58.4977684  88.8853629  61.2673279  59.6823998
  88.4491808  59.5467562  59.5538696  88.8958617  58.1043524  55.6443839
  89.3010002  57.4426352  56.6175509  88.7506591  57.5700096  54.4189717
  88.4036874  58.1362360  53.6579870  89.0542559  56.1711985  54.1555131
  89.6160001  55.7594713  54.9939780  87.7920533  55.3571223  53.9728700
  88.0509561  54.3058471  53.8468181  87.1543042  55.4711355  54.8494412
  87.1049601  55.8112337  52.8306131  86.3036773  55.2957207  52.7131737
  89.9129371  56.0201825  52.9139166  89.8321096  56.8295413  51.9883026
  90.7362402  54.9668294  52.9009479  90.8295708  54.3316823  53.6806766
  91.5808865  54.7561898  51.7344383  92.1409139  55.6623791  51.5035933
  92.5972922  53.6009987  52.0293825  93.1753620  53.8379192  52.9225809
  92.0581984  52.6662598  52.1834636  93.5401846  53.4538145  50.8375333
  92.9473600  53.1105808  49.9896828  93.9496569  54.4399370  50.6184511
  94.6702883  52.4839479  51.0865901  95.3074012  52.8061513  51.9102229
  94.3042275  51.4763664  51.2837663  95.4717272  52.4615093  49.8508384
  95.2047294  51.7914153  49.1438833  96.4790165  53.2668982  49.6023589
  97.1344169  53.1422563  48.4364946  96.8473315  52.4377920  47.7721061
  97.9113211  53.7535668  48.2295672  96.8499275  54.2074634  50.4359752
  96.3531410  54.3310308  51.3066268  97.6308643  54.8044566  50.2039502
  90.7111421  54.4404849  50.5185500  91.0002437  54.8750796  49.3920369
  89.6252436  53.6906787  50.7306818  89.4215897  53.2972964  51.6383573
  88.7720502  53.3125891  49.6033667  89.4030906  52.9521025  48.7910018
  87.7643585  52.2079711  49.9709378  88.3430960  51.3831923  50.3867526
  87.1156265  52.6215291  50.7430886  86.9113850  51.6968787  48.8088492
  86.3101243  52.5291860  48.4429929  87.5995022  51.3752014  48.0271091
  85.9977004  50.5392927  49.1881699  85.2401504  50.0416835  48.3173862
  86.0426378  50.1131049  50.3619410  88.0777173  54.5454327  49.0139395
  87.8540531  54.6365597  47.7908127  87.7057982  55.5017978  49.8611066
  87.7790338  55.3859228  50.8617608  87.1753985  56.7588682  49.3479681
  88.0468528  57.3839806  49.1532861  86.6918091  56.5064970  48.4042788
  86.1885524  57.5379757  50.2205432  85.5858278  57.0254824  51.1413177
  85.9525709  58.7924864  49.8817962  86.3521585  59.5003871  48.7387711
  86.3535801  58.8055016  47.8989899  87.3648584  59.8658459  48.9089997
  85.3562599  60.6237894  48.5610571  84.5080304  60.2984351  47.9587695
  85.8260900  61.4870153  48.0896740  84.9307106  60.9489625  49.9983449
  83.9367005  61.3812528  50.1130965  85.6662804  61.6001635  50.4705461
  84.9717325  59.5708381  50.6380427  85.3792331  59.6937010  51.6415098
  83.6246383  58.9716281  50.7244700  82.7897891  59.4965445  51.4709307
  83.3258363  58.0622928  49.8236528  84.0573828  57.7997651  49.1786580
  82.0258938  57.4380731  49.6792355  81.3246935  57.8727803  50.3915887
  81.4961331  57.6529856  48.2937969  81.5458445  58.7227219  48.0905920
  82.1572318  57.1224120  47.6085668  80.1227254  57.1846607  48.1066284
  79.9976258  56.7893974  47.0985521  79.8921795  56.4054152  48.8330766
  79.0231954  58.5329650  48.3382671  79.0593422  59.4588755  46.8155310
  78.7337614  58.8208586  45.9939286  78.3915886  60.3166832  46.8953541
  80.0748147  59.8060826  46.6248369  82.1984186  55.9630571  49.9761651
  83.2009412  55.3402293  49.6119609  81.2434980  55.4117091  50.6827917
  80.3928837  55.8863448  50.9497666  81.4297458  54.0406172  51.1142445
  81.7431129  53.4373954  50.2621742  82.4583159  53.8702033  52.2405557
  82.1534534  54.4612131  53.1041913  82.5178552  52.8191060  52.5229554
  83.4351637  54.2090923  51.8955604  80.0949392  53.5170037  51.6070783
  79.1699711  54.2852581  51.9984556  79.9831522  52.1999208  51.4752015
  80.7463634  51.6974624  51.0449183  78.8505253  51.4430071  51.9586909
  77.9281122  52.0227197  51.9931348  78.6096788  50.1918805  51.1153877
  79.5219258  49.5964089  51.0790667  77.8086508  49.6017037  51.5605233
  78.3263975  50.4837094  50.1041079  79.1924330  50.9993568  53.3604482
  80.1962516  50.2931961  53.5536459  78.3542255  51.3478163  54.3213119
  77.6618705  52.0647828  54.1579014  78.4324500  50.7508754  55.6529036
  79.1480972  49.9288944  55.6357144  78.8858010  51.7777342  56.7133261
  78.1912388  52.6171956  56.7447471  78.8739517  51.2609150  57.6729393
  80.2833018  52.2894910  56.4332054  81.3811240  51.5174018  56.7449517
  81.2338910  50.5505077  57.2261353  82.6272963  51.9462626  56.4610961
  83.5001019  51.3378815  56.6981293  82.7907567  53.2033179  55.8524997
  84.0616233  53.6728610  55.5511472  84.7569497  53.0597428  55.8005604
  81.7014862  53.9890403  55.5406853  81.8234004  54.9692201  55.0797245
  80.4676632  53.5232015  55.8169172  79.5905337  54.1158071  55.5569892
  77.0696928  50.1883425  55.9899072  76.0413695  50.6601142  55.4735898
  77.0815373  49.1492843  56.8208084  77.9763685  48.8117088  57.1454915
  75.8734897  48.4377883  57.2487015  74.9854746  48.8115134  56.7389390
  76.0022149  46.9273693  56.9702233  76.3616309  46.7954575  55.9496750
  76.9877047  46.2426976  57.9589663  76.6286874  46.3737964  58.9797604
  77.0516592  45.1787917  57.7306802  77.9746100  46.6948486  57.8605839
  74.6530423  46.3101210  57.0611564  73.9931863  46.7676062  56.3240001
  74.7284543  45.2403481  56.8662243  74.2467396  46.4691450  58.0600209
  75.6291158  48.6952408  58.7317102  76.5811633  48.7214277  59.5189616
  74.3570248  48.8848158  59.0975992  73.6755864  49.0110403  58.3628826
  73.9186955  49.0230236  60.4729465  74.7083179  49.4424278  61.0964012
  72.7179893  49.9821007  60.4899119  72.5562469  50.3255542  61.5116645
  72.9708708  50.8327092  59.8569695  71.4337799  49.3630473  59.9783846
  71.3283926  48.1637072  59.7868445  70.4308388  50.2108202  59.7723717
  69.5446248  49.8666001  59.4314363  70.5596332  51.1952774  59.9577279
  73.6091060  47.6808968  61.1336401  73.8115883  46.6246288  60.5363221
  73.2034244  47.6628256  62.4006499  73.3657090  48.6586998  63.4091658
  72.4377317  49.2245542  63.4914282  74.1731509  49.3273622  63.1107917
  73.6903853  47.8894268  64.6696647  73.4043409  48.4572733  65.5550053
  74.7537542  47.6546964  64.7170948  72.8537470  46.6122572  64.5292184
  71.8095386  46.7125186  64.8253189  73.3070700  45.7834190  65.0729326
  72.9446885  46.3622269  63.0326672  73.8238573  45.7407129  62.8627240
  71.7136756  45.6517610  62.5017525  71.6878929  44.4142310  62.5025392
  71.6356251  45.8337086  61.2994646  72.1670315  46.4376116  60.6887210
  70.4928859  45.1225392  60.7436450  70.4290293  44.1189471  61.1641499
  69.1999101  45.8852276  61.0912353  69.2364422  46.8935551  60.6788759
  68.3271408  45.3638701  60.6980940  68.9817581  46.0335037  62.5716139
  69.5360651  47.0905042  63.2839339  69.1409823  46.9287904  64.5411718
  69.4746443  47.6669124  65.2705171  68.3727566  45.8402082  64.6808069
  67.9385102  45.4879476  65.5219029  68.2698013  45.2550903  63.4269682
  67.6914109  44.3402053  63.2983165  70.6570242  44.8880882  59.2229378
  69.6933336  44.5802298  58.5142394  71.1127777  45.1903321  59.4726665
  71.8335729  45.7140490  59.9483494  71.4332506  44.5830396  58.2002047
  72.4848707  44.2983172  58.2337846  70.8179920  43.6883267  58.1050990
  71.1966633  45.4888059  56.9712634  71.3403210  45.0397661  55.8368685
  70.8464891  46.7319829  57.1891856  70.6463991  47.0301464  58.1331993
  70.6208736  47.6640741  56.1175230  70.2963016  47.1430296  55.2168207
  69.5418562  48.6253822  56.5315739  68.7503866  48.0214737  56.9753865
  69.9343065  49.3150652  57.2788492  68.9968917  49.3908604  55.3946255
  69.7109370  50.4676678  54.8461777  70.6897203  50.7203993  55.2538658
  69.1808934  51.2122340  53.7899699  69.7372938  52.0521079  53.3738783
  67.9411641  50.8721827  53.2647171  67.4304087  51.5993194  52.2133237
  68.0119909  52.3087239  51.9302920  67.2140978  49.7886898  53.8205649
  66.2406353  49.5163902  53.4127363  67.7495046  49.0679217  54.8959531
  67.1818087  48.2506620  55.3408217  71.9141771  48.3382131  55.7158954
  72.7801809  48.5718725  56.5425632  72.1164307  48.4328218  54.4164345
  71.3832492  48.1401742  53.7864332  73.3684824  48.9131800  53.8443126
  74.1808486  48.9169835  54.5710491  73.8115137  48.1041036  52.6177709
  72.9582234  47.9283456  51.9627106  74.8773267  48.8974662  51.8634284
  75.7311884  49.0732262  52.5177445  75.2005053  48.3326128  50.9890162
  74.4617271  49.8533588  51.5446057  74.2929998  46.7067644  52.9900082
  73.4857046  46.1621787  53.4797050  74.5954384  46.1739561  52.0884841
  75.1426885  46.7834065  53.6684298  73.1591857  50.3665512  53.4659623
  72.2836059  50.6738166  52.6338410  73.9480154  51.2548184  54.0932342
  74.5789708  50.8961915  54.7956453  73.9339404  52.6980190  53.8443407
  73.0338091  53.0016097  53.3098357  73.9493466  53.3873536  55.2024724
  74.6734786  52.9229750  55.8718636  74.2084255  54.4363717  55.0591578
  72.6403610  53.3649295  55.9097530  71.4525066  53.6854304  55.2824131
  70.4659158  53.6215352  56.1605907  69.4372055  53.8249400  55.8631339
  70.9807765  53.2919671  57.3327125  70.4654991  53.2026976  58.1967843
  72.3318159  53.0879071  57.1967089  72.9227908  52.7626854  58.0529102
  75.1303228  53.1813439  52.9989696  76.2847257  52.7407512  53.2111131
  74.8620756  54.1524234  52.1027877  73.9119381  54.4562051  51.9445008
  75.9333202  54.7637437  51.2990785  76.8306094  54.1508644  51.3848123
  75.5611855  54.8796997  49.8238921  74.5550286  55.2929034  49.7531088
  76.2663088  55.5570895  49.3421822  75.6034209  53.5247275  49.1286623
  76.5585268  53.0540822  49.3618285  74.7960277  52.9534757  49.5867963
  75.4130341  53.5559326  47.6510341  74.2527882  53.8278394  47.2526973
  76.4401409  53.3498610  46.9045736  76.2570563  56.1363586  51.8506919
  75.4638984  57.0880960  51.7235481  77.4355699  56.2564162  52.4242090
  78.1461367  55.5601601  52.2497913  77.7575588  57.3655043  53.3184527
  76.8806796  57.9824131  53.5149354  78.3125260  56.8307304  54.6427817
  79.1473718  56.1631164  54.4296518  78.7667136  57.9171675  55.4889060
  77.9322537  58.5849993  55.7028638  79.1562405  57.5124459  56.4230205
  79.5535502  58.4719105  54.9777823  77.2394271  55.9972379  55.3618324
  77.1050360  55.0649551  54.8132994  77.5938013  55.7777639  56.3689816
  75.9018965  56.7394463  55.4419803  75.5466369  56.9588693  54.4351317
  75.1705095  56.1166996  55.9571103  76.0354030  57.6716797  55.9908124
  78.7917066  58.2463290  52.6461937  79.9531924  57.8277889  52.4800456
  78.4045526  59.4920362  52.3249786  77.4244846  59.7300028  52.3791816
  79.3458514  60.5227611  51.8815274  80.2338723  60.0565226  51.4547492
  78.7017877  61.4007408  50.8221145  78.5292381  60.7273848  49.9825208
  77.7486311  61.7999208  51.1688824  79.6013549  62.5488776  50.3760375
  79.9931918  63.1053653  51.2274399  80.7517813  61.8880609  49.6292469
  80.3607440  61.3317267  48.7773779  81.4435942  62.6529159  49.2764118
  81.2758264  61.2057535  50.2985254  78.9529997  63.6313487  49.5538204
  78.1475499  64.0905066  50.1269907  79.6946342  64.3885618  49.2994434
  78.5468974  63.1995342  48.6390985  79.7786992  61.3927375  53.0572475
  78.9650505  62.1533394  53.5754256  81.0730833  61.3324977  53.4233813
  81.6621408  60.6183707  53.0194836  81.6541141  62.2256538  54.4264587
  80.9690229  62.3387933  55.2666662  82.9643399  61.6162857  54.9409846
  83.4545144  62.3559458  55.5740187  82.7394591  60.3555123  55.7265264
  82.2497040  59.6151657  55.0939708  83.6975869  59.9639227  56.0682102
  82.1076991  60.5714470  56.5881250  83.8287985  61.2762130  53.8602395
  84.6402204  60.8976281  54.2064595  81.9226959  63.6510625  53.9229035
  82.3971698  63.8494256  52.8061749  81.6531296  64.6454489  54.7795193
  81.1582281  64.4092821  55.6276921  81.9765558  66.0543157  54.5326594
  82.8670057  66.1712847  53.9149893  80.8015688  66.7810272  53.8462993
  81.1656831  67.7220214  53.4339281  80.2092106  65.9296682  52.7252402
  79.8444387  64.9886353  53.1369434  79.3829444  66.4661178  52.2587570
  80.9768804  65.7257664  51.9787761  79.7335477  67.1486539  54.8806434
  80.1680286  67.8048225  55.6348125  78.9087136  67.6611415  54.3855627
  79.3627195  66.2420054  55.3587393  82.3524267  66.7742919  55.8370674
  82.2004355  66.2365640  56.9415281  82.8453711  68.0299865  55.6848376
  82.8224046  68.4486482  54.7659827  83.3320642  68.8358874  56.8006577
  83.7309047  68.1692731  57.5652824  84.4343662  69.8198871  56.3842384
  84.0944687  70.2890083  55.4609323  84.4647571  70.5644887  57.1796911
  85.7896206  69.2582038  56.1822892  86.1885107  68.1201808  56.8621189
  85.4964060  67.6354753  57.5507052  87.4467344  67.6011669  56.6739308
  87.7693068  66.7157852  57.2217887  88.3106194  68.2153363  55.7757657
  89.5694174  67.7081638  55.5633403  89.7516390  66.9248939  56.0876333
  87.9262525  69.3373698  55.0843425  88.6034484  69.8149591  54.3762362
  86.6740383  69.8568969  55.2928929  86.3594453  70.7525659  54.7572546
  82.2895994  69.7518583  57.3980675  82.3726015  70.0961009  58.5708013
  81.4148411  70.2814733  56.5565148  81.4294558  69.9967458  55.5875896
  80.4768464  71.3170881  56.9562447  80.2773079  71.2185786  58.0232871
  81.0135701  72.7269365  56.6865330  81.9784294  72.8133425  57.1862128
  81.1523271  72.8262942  55.6099762  80.0759721  73.8387976  57.1870615
  79.1683149  73.8060418  56.5844121  79.8291030  73.6239231  58.2267666
  80.6980886  75.2209570  57.0900240  81.6628297  75.2118148  57.5972617
  80.8430706  75.4714013  56.0391400  79.7878803  76.2665949  57.7431084
  78.8465705  76.2792412  57.1936754  79.6039308  75.9534526  58.7708260
  80.3851981  77.6373436  57.7394240  80.5553293  77.9278706  56.7871903
  79.7464806  78.2840774  58.1797369  81.2572350  77.6259368  58.2488556
  79.1933594  71.0278666  56.2074845  79.1763721  71.0498748  54.9716601
  78.1302988  70.7509961  56.9319387  78.2268656  70.5679510  57.9205077
  76.8083812  70.6406093  56.3363132  76.8423789  70.8877836  55.2752532
  76.2439463  69.2216052  56.4915598  76.1952411  68.9631091  57.5493441
  75.2434172  69.1789040  56.0611897  76.8918095  68.5137451  55.9745429
  75.9173542  71.6750701  56.9989969  75.8969504  71.7852539  58.2265641
  75.1885128  72.4252764  56.1897054  75.2841758  72.3018971  55.1918449
  74.2731278  73.4446328  56.6730443  74.5680642  73.7767179  57.6684494
  74.3034870  74.6420943  55.7314035  74.2220837  74.3146754  54.6949337
  73.4880760  75.3282729  55.9602350  75.8184665  75.6149491  55.8309251
  75.4694687  76.5101809  54.9113280  72.8456107  72.9014404  56.7732989
  72.4710682  71.9358101  56.1044326  72.0570135  73.5183316  57.6582926
  72.4846633  74.1641587  58.3064610  70.6205000  73.2509367  57.7887760
  70.1925153  73.9438667  58.5131904  69.8821296  73.4219902  56.4486735
  70.0562343  72.5641206  55.7991764  68.8219518  73.4814590  56.6948168
  70.2834790  74.6993378  55.6934823  71.3707142  74.7837455  55.1136333
  69.3828542  75.6692355  55.6478374  69.5960596  76.5298298  55.1640804
  68.4869544  75.5438446  56.0969936  70.3405860  71.8543718  58.3557475
  69.3646055  71.2140939  57.9546986  71.1510410  71.3986257  59.3171060
  71.9205979  71.9688568  59.6376026  70.9894854  70.0645919  59.8938326
  70.0424163  69.6344296  59.5680723  72.1310850  69.1386556  59.4418566
  72.9973528  69.6909004  59.8061436  72.0229150  68.2160516  60.0121207
  72.3268990  68.8016941  57.9554900  72.4021687  69.7269870  57.3842909
  73.5977118  67.9871905  57.7701987  73.5229922  67.0614675  58.3407710
  73.7288144  67.7527093  56.7138222  74.4534756  68.5627720  58.1230084
  71.1200520  68.0673544  57.3539067  70.2324230  68.6939492  57.4410455
  71.3114111  67.8535263  56.3023552  70.9583804  67.1325496  57.8906573
  70.9410898  70.1011649  61.4159144  71.9727293  70.2246871  62.0804754
  69.7496194  69.9460959  61.9704059  68.8933109  69.9625125  61.4350876
  69.6580751  69.7901447  63.4087104  70.2898251  70.5309404  63.8988257
  68.2270394  69.9829887  63.8819303  67.6345700  69.1635918  63.4749071
  68.1691661  69.9668489  64.9702731  67.6569008  71.2721503  63.3932656
  66.8386170  71.2876700  62.4813594  68.1279231  72.3807468  63.9763280
  67.7813317  73.2849244  63.6892094  68.8278617  72.3082070  64.7008449
  70.1638151  68.4141483  63.8158797  70.4155486  67.5324954  62.9800038
  70.3290515  68.2542768  65.1143615  70.1276008  69.0226361  65.7381731
  70.8421270  67.0276340  65.6813984  70.9675665  66.2842215  64.8941868
  72.1819433  67.2612840  66.3435283  72.0837662  68.2953446  66.6739507
  72.2564421  66.6081004  67.2129540  73.4444431  67.1167876  65.4867564
  73.3659466  66.1922958  64.9146952  73.6161773  68.2727416  64.5469183
  73.6952165  69.1976013  65.1183081  74.5225331  68.1314339  63.9581466
  72.7557795  68.3305622  63.8802304  74.6081986  66.9386102  66.4843289
  74.4359395  66.0482809  67.0890933  75.5439094  66.8293343  65.9360540
  74.6679465  67.8121786  67.1334879  69.8336947  66.4672408  66.6824526
  69.2055917  67.2067270  67.4480392  69.6383183  65.1573579  66.6433765
  70.1199711  64.5972639  65.9546062  68.7155255  64.4960855  67.5426308
  68.2583602  65.2278721  68.2086544  67.6140103  63.7397513  66.7784084
  68.0249056  63.2707168  65.8843882  67.0600220  62.6599730  67.7121598
  66.6485052  63.1283083  68.6062608  66.2749788  62.1037602  67.1998755
  67.8616703  61.9781296  67.9959708  66.5069659  64.6921760  66.3152487
  66.2225995  65.3021947  67.1726364  66.9302952  65.3308394  65.5400062
  65.2640319  63.9719215  65.7638383  64.8398495  63.3333788  66.5387141
  64.5229867  64.7094261  65.4555557  65.5475459  63.3620213  64.9060846
  69.5270926  63.5485492  68.3990745  70.1404307  62.6112226  67.8762043
  69.5327381  63.7875913  69.7075427  69.2095338  64.6726144  70.0713730
  69.9994480  62.7924155  70.6431949  69.2023285  62.5899610  71.3585353
  70.2318279  61.8815180  70.0915023  71.2199652  63.2361242  71.3868053
  71.3957807  64.4596381  71.6641098  72.0664673  62.3034874  71.7426378
  71.8832467  61.3323265  71.5343686  73.2692842  62.6323503  72.4704006
  73.5970437  63.6341366  72.1927372  73.0288149  62.5953000  74.0177276
  72.2325434  63.2905394  74.2836092  72.7473576  61.5874357  74.3228364
  74.3165410  63.0009450  74.7293986  75.0841996  62.2758979  74.4590139
  74.6009791  63.9857479  74.3587772  74.1777779  63.0498809  76.2330994
  73.4533897  63.8003030  76.5496864  73.9002545  62.0804205  76.6468951
  75.5039139  63.4239571  76.7553210  76.2484890  63.5319201  76.0814878
  75.7666051  63.6528721  78.0215288  77.0209823  63.9844768  78.3723565
  77.7386132  64.0527693  77.6649373  77.2402537  64.1638599  79.3418107
  74.8454839  63.6015754  78.9530450  73.8921915  63.3788731  78.7045746
  75.0934531  63.7850002  79.9147961  74.2414150  61.5704941  71.9851363
  73.8847622  60.3963939  71.9307627  75.4746762  61.9341202  71.7193566
  76.1737658  63.1210475  72.0862464  76.4958837  63.0274089  73.1233444
  75.4934062  63.9674827  71.9926660  77.3356910  63.2062718  71.1228812
  78.1564666  63.7785568  71.5552195  77.0273711  63.6665799  70.1841817
  77.7273477  61.7381004  70.9102223  78.3649959  61.3152875  71.6865811
  78.1958816  61.5927532  69.9368520  76.3654421  61.0635987  70.9360792
  75.9903993  61.0559591  69.9126620  76.4493160  59.6394280  71.4540378
  76.3550565  59.3899614  72.6556453  76.6581805  58.7192796  70.5093026
  76.6205812  59.0064192  69.5417094  76.8887318  57.3208745  70.8014672
  77.2544789  57.2287594  71.8241319  75.6133886  56.4808433  70.6595507
  74.9182402  56.7680379  71.4484659  75.1657957  56.6896348  69.6878684
  75.9011570  55.0739156  70.7626663  75.0872557  54.5732426  70.6705189
  77.9697483  56.7494888  69.8882034  78.2313724  57.2410979  68.7662019
  78.5528007  55.6297427  70.3637288  78.2299384  55.2271972  71.2319549
  79.6561648  54.9784575  69.6680096  79.7202703  55.3725115  68.6537556
  80.9695650  55.2676915  70.3871185  81.7897915  55.1822620  69.6743558
  80.9569212  56.6531388  70.9727599  80.1371879  56.7391942  71.6860140
  81.9021170  56.8415980  71.4818641  80.8222812  57.3840043  70.1753840
  81.0692768  54.3010817  71.4398407  81.8848720  54.4409686  71.9264993
  79.5344050  53.4624953  69.5560713  80.5400117  52.8052152  69.2018437
  78.3710102  52.8890326  69.8766986  77.7132275  53.3472129  70.4911024
  78.0794061  51.5294942  69.4433034  78.8382348  50.8652403  69.8568792
  76.6932911  51.0341151  69.8943367  76.6733791  51.1096412  70.9815343
  75.9624393  51.7221476  69.4694050  76.3491198  49.6029571  69.4764436
  76.3753447  49.5575751  68.3877041  77.1249466  48.9556627  69.8853468
  74.9861309  49.1361996  69.9710543  74.5923525  47.9767609  69.6877075
  74.3049889  49.9282134  70.6565801  78.2622546  51.4557194  67.9304099
  77.9340195  52.4049924  67.2060009  78.8195797  50.3439158  67.4562154
  79.3334685  49.7238982  68.0658019  78.7488362  50.0162056  66.0372836
  79.4066544  49.1759436  65.8151708  77.3037512  49.6263405  65.6548757
  76.8142990  49.1159406  66.4843501  76.7519109  50.5341621  65.4110886
  77.1871528  48.7206090  64.4648079  77.5312673  47.3790299  64.4911076
  77.3412700  46.8681126  63.2846605  77.5673216  45.8190855  63.0935012
  76.8745182  47.8172692  62.4847921  76.6270406  47.7126285  61.5111879
  76.7788826  48.9845407  63.2002668  76.4220268  49.8932419  62.7154809
  79.2205555  51.1741844  65.1560442  78.7715904  51.3059919  64.0047201
  80.0832211  52.0551518  65.6498846  80.4414490  52.0096800  66.5931261
  80.4996396  53.1630749  64.8077379  79.6220197  53.7035647  64.4531207
  81.3874820  54.1308856  65.5840680  81.0544302  54.1473549  66.6218080
  82.4145401  53.7687227  65.5383536  81.3241031  55.4500324  65.0435055
  81.8922162  56.0323320  65.5531863  81.2465982  52.6451736  63.5774208
  82.1590938  51.8176860  63.6673427  80.8791134  53.1630241  62.4229652
  80.1351806  53.8427129  62.3545075  81.5315280  52.7222380  61.1898777
  81.5280373  51.6341885  61.1247990  80.7721713  53.2839792  59.9941904
  80.7108178  54.3688968  60.0795647  81.2596357  53.0209047  59.0554304
  79.3739832  52.7845833  59.9022402  78.9134176  51.4859553  60.1656290
  79.6423097  50.7431264  60.4896989  77.5560923  51.4341874  59.9421475
  76.9728983  50.6202221  60.0742261  77.1178906  52.6747113  59.5298045
  75.8472254  53.1005109  59.2014790  75.0321700  52.3810991  59.2804096
  75.6855780  54.4034864  58.7954222  74.6985267  54.7639912  58.5058258
  76.7537956  55.2706765  58.7463376  76.6187569  56.3036937  58.4258074
  78.0406701  54.8573019  59.1041399  78.8528810  55.5814993  59.0412734
  78.2308560  53.5393889  59.5015122  82.9899939  53.1594097  61.1228916
  83.8381922  52.4379353  60.5884233  83.2909975  54.3683509  61.6335275
  82.5142998  54.9341169  61.9445721  84.6369470  54.9146074  61.7567060
  85.3043312  54.3775066  61.0827474  84.6794477  56.4027041  61.4035987
  84.0996708  56.9616218  62.1381523  85.7113694  56.7536386  61.4126833
  84.1336717  56.7441517  60.0932159  84.8574561  56.4662398  58.9602900
  85.8339046  55.9872389  59.0324447  84.3457825  56.7944256  57.7355001
  84.9075476  56.5656253  56.8298672  83.1055727  57.4216325  57.6458325
  82.7120992  57.7126089  56.6718658  82.3679881  57.6772049  58.7996989
  81.3796977  58.1328641  58.7384058  82.8836516  57.3578602  59.9900371
  82.3269386  57.5759898  60.9014042  85.1381850  54.7414163  63.1843794
  84.8137464  55.5795687  64.0524837  85.9782922  53.7387218  63.4698555
  86.5875585  52.7602840  62.6198396  87.2953266  53.2657403  61.9628172
  85.8083261  52.2896981  62.0203025  87.2610979  51.7847242  63.5580943
  88.0915738  51.2813723  63.0630734  86.5502078  51.0418094  63.9197768
  87.7507222  52.6774744  64.7046976  88.6911554  53.1893630  64.5006032
  87.8328318  52.1279414  65.6424454  86.6200850  53.6899308  64.7941268
  85.8907834  53.2963975  65.5021869  87.1026904  55.0467110  65.2684110
  87.4627608  55.9097888  64.4425333  87.0840605  55.2740330  66.5860087
  86.7237851  54.5727774  67.2173102  87.5694996  56.5076128  67.1427589
  87.9607571  56.2819069  68.1347637  88.3812155  56.8531075  66.5025636
  86.5346997  57.6034908  67.2597025  86.8092863  58.6144794  67.9224500
  85.3510923  57.4446316  66.6487890  85.1147374  56.5554569  66.2321308
  84.3923346  58.5412258  66.5318029  84.7317634  59.3700631  67.1530243
  84.2380331  59.0407600  65.0894266  84.2119470  58.1646220  64.4415060
  83.2730249  59.5463958  65.0549071  85.3169970  59.9839558  64.6162941
  86.5534107  59.4989371  64.1926030  86.7424382  58.4258162  64.2205265
  87.5347457  60.3624982  63.7404685  88.5010483  59.9866481  63.4041682
  87.2717428  61.7344046  63.7156421  88.2245571  62.6338275  63.2782894
  89.0437466  62.2114796  63.0096810  86.0441493  62.2209830  64.1347754
  85.8367843  63.2909390  64.1176229  85.0870497  61.3448657  64.5733457
  84.1158139  61.7170523  64.8993491  83.0283858  58.1060528  67.0467729
  82.7488838  56.9099548  67.2546318  82.1847856  59.1105238  67.2652717
  82.4599860  60.0532759  67.0295119  80.8699470  58.9010066  67.8298466
  80.6340849  57.8380253  67.8802346  80.6919501  59.5055419  69.2171386
  80.9157640  60.5717002  69.1808917  79.6631831  59.3618053  69.5474091
  81.3693914  59.0161933  69.9169317  79.8913796  59.5566927  66.8856111
  80.2533833  60.4645612  66.1356284  78.6498043  59.1037332  66.9019988
  78.3537788  58.4001217  67.5633603  77.7072244  59.5310925  65.8834547
  78.1340881  60.3513546  65.3063441  77.3788379  58.3448320  64.9039086
  76.5717386  58.6196634  64.2248226  78.2556838  58.0528900  64.3259717
  76.9302294  57.1409776  65.6267993  77.6660069  56.0341389  65.9854211
  78.7116582  56.0057510  65.6789783  76.8707457  55.1604595  66.6915047
  77.1618124  54.2673248  67.0625708  75.6012464  55.6769326  66.7613399
  74.4575866  55.1526873  67.3131861  74.5182055  54.1736503  67.7884865
  73.3102778  55.8940346  67.2317266  72.3976624  55.5055933  67.6837735
  73.2731930  57.1153087  66.5964406  72.3542372  57.6989527  66.5418574
  74.4198923  57.6419051  66.0012558  74.3544838  58.6113119  65.5072186
  75.6063212  56.9093328  66.0852889  76.5010873  60.0994968  66.5965662
  76.3874418  60.0080196  67.8144991  75.5972721  60.7020953  65.8211733
  75.7572416  60.7819013  64.8271209  74.3964624  61.3047320  66.3766118
  73.8995505  60.5780632  67.0193639  74.6939976  62.5434675  67.1884690
  75.0811521  63.3060814  66.5127238  73.4552507  63.0781986  67.9024275
  73.0677718  62.3162540  68.5787411  73.7198924  63.9687079  68.4725653
  72.6922925  63.3320039  67.1665076  75.6862305  62.2217987  68.1705423
  75.8838098  63.0023257  68.6933619  73.4990111  61.6053829  65.1892175
  73.9204985  62.1420642  64.1638246  72.2440030  61.2569430  65.2651803
  71.8404273  60.8358238  66.0897315  71.4088044  61.4150809  64.0992486
  71.8764594  60.9928034  63.2098220  70.0357026  60.7472895  64.2972787
  69.4954134  61.2942650  65.0699395  69.2231463  60.7473218  63.0161865
  69.7626210  60.2000943  62.2431340  68.2608664  60.2678319  63.1956505
  69.0613005  61.7740646  62.6879994  70.2929230  59.3440093  64.8037236
  70.8367395  59.3916530  65.7471724  69.3425871  58.8330130  64.9581391
  70.8849093  58.7955584  64.0710198  71.2734423  62.8913207  63.8094913
  71.2599370  63.7372973  64.7023194  71.2031244  63.2063717  62.5448442
  71.2854929  62.4788569  61.8491164  71.0335630  64.5699080  62.0941696
  71.0586211  65.2831983  62.9179950  72.1198010  64.9544548  61.0788570
  72.1011315  64.2545798  60.2434370  71.9332970  65.9634542  60.7111116
  73.0970098  64.9186431  61.5603960  69.6532115  64.6547709  61.4715805
  69.0745546  63.6471468  61.0515652  69.1207781  65.8654047  61.3916965
  69.5787547  66.6936905  61.7442576  67.7920862  66.0032809  60.8207395
  67.6121950  65.1966570  60.1100383  66.7195070  65.9385291  61.9185971
  66.8417048  64.9903493  62.4421638  66.9058141  66.7609745  62.6092295
  65.2837782  66.0419392  61.3735666  65.1476475  67.0029109  60.8774793
  65.1384489  65.2375710  60.6524749  64.2296027  65.9068420  62.4766055
  63.5619799  66.8876213  62.8259159  64.0574812  64.6976255  63.0137216
  63.3723056  64.5656441  63.7439386  64.6131544  63.9198174  62.6876186
  67.6700829  67.2946118  60.0518911  67.8688333  68.3697479  60.6119889
  67.3630801  67.1586801  58.7668530  67.4945986  66.2569093  58.3314079
  66.8565507  68.2474423  57.9537936  67.6638882  68.9075641  57.6367047
  66.1528959  67.7112605  56.7166420  65.5000128  66.8852448  56.9986734
  66.8948258  67.3589337  56.0000487  65.1820030  68.9632131  55.8697378
  65.8818031  69.0660768  58.7726915  64.8380018  68.5704928  59.1881675
  66.0876263  70.3854205  58.8604539  66.9437130  70.7819850  58.4999660
  65.1336285  71.2861002  59.5617422  64.8001045  70.8155174  60.4866274
  65.7949608  72.6260554  59.9046353  66.6899162  72.4123892  60.4890159
  66.0793699  73.1032516  58.9668212  64.8763386  73.5677324  60.7004793
  64.0196224  73.8088620  60.0711982  64.5362031  73.0319911  61.5867023
  65.5726076  74.8510994  61.1210203  66.4326096  74.6004953  61.7420624
  65.9105156  75.3793962  60.2294934  64.6142195  75.7478746  61.9136238
  63.7646204  75.9784452  61.2708804  64.2705329  75.1843668  62.7810555
  65.2547986  77.0204270  62.3681599  65.5729519  77.5429383  61.5645057
  64.5822370  77.5707552  62.8828440  66.0418218  76.8070047  62.9640999
  63.8555596  71.4905337  58.7310709  62.7958031  71.6662587  59.3611781
  63.9255627  71.4667749  57.3921008  64.8239299  71.2948441  56.9637603
  62.7650926  71.7954843  56.5019821  62.3080585  72.7382333  56.8027200
  63.2297145  71.8941161  55.0198420  63.7552805  70.9770164  54.7537426
  62.0402949  72.0824429  54.0941189  61.5144617  72.9996485  54.3593244
  62.3884167  72.1488964  53.0633445  61.3632508  71.2341227  54.1944346
  64.2129236  73.0556016  54.8417852  65.0642520  72.8513647  55.4911142
  64.5376876  73.0380780  53.8014387  63.6365271  74.4388339  55.1742627
  63.3119519  74.4572735  56.2146525  64.4023503  75.1988936  55.0195912
  62.7853855  74.6439858  54.5249780  61.5819214  70.8226053  56.6402045
  60.4510768  71.3388042  56.7540376  61.7973462  69.4994350  56.6291269
  62.7499794  69.1827015  56.5183583  60.7095348  68.4692817  56.7036692
  59.7652798  68.9774050  56.8993555  60.5941742  67.7194569  55.3828476
  60.7115385  68.4194598  54.5556103  59.6158106  67.2431815  55.3190795
  61.8756256  66.4596572  55.1708690  60.9502290  67.4874452  57.8598956
  60.0800347  66.6086209  58.0385309  62.0666518  67.5948459  58.5869136
  62.7545311  68.2449484  58.2343683  62.4150054  66.7773235  59.7841324
  63.2392379  67.2931623  60.2767278  61.2438055  66.7167950  60.7382189
  60.4135076  66.1949462  60.2624255  61.5378529  66.1828777  61.6418608
  60.9344462  67.7288589  60.9992223  62.9126161  65.3634467  59.4291225
  63.1519523  64.6021975  60.3900839  63.0888452  65.0049585  58.1487122
  62.8918907  65.6632303  57.4084511  63.4985513  63.6592256  57.7831579
  62.9312212  62.9303229  58.3618950  63.2445295  63.4083854  56.3002334
  63.6318740  64.2506704  55.7269799  63.7625278  62.4971423  56.0012121
  61.8489236  63.2651866  56.0494939  61.7064975  63.1081464  55.1131964
  64.9726092  63.4786243  58.1435958  65.7630572  64.4249291  58.1264160
  65.3283184  62.2597624  58.5540048  64.6509027  61.5115999  58.5922170
  66.6860590  61.9899040  59.0234587  67.0196598  62.8044511  59.6663604
  66.7373439  60.6931728  59.8159661  66.8887050  59.8106956  59.1943368
  67.5489102  60.7708759  60.5394455  65.4916434  60.4556722  60.5969154
  64.2789147  60.2220832  59.9883275  63.3469112  60.0838294  60.9115942
  62.3115979  59.8898795  60.6312218  63.9112465  60.2214075  62.0951071
  63.4410366  60.1548722  62.9864969  65.2528224  60.4721061  61.9278938
  65.8892532  60.6355673  62.7975704  67.6095864  61.9534322  57.8133677
  67.3169210  61.2693042  56.8211339  68.6983301  62.7285892  57.8791464
  68.9379147  63.2313588  58.7217147  69.5288964  62.9239776  56.6986034
  69.0124290  62.5210718  55.8273816  69.8387644  64.4097177  56.4676075
  70.3145783  64.8241511  57.3563968  70.7676862  64.5535307  55.2866421
  70.2923426  64.1397081  54.3973166  70.9874609  65.6085207  55.1229476
  71.6950266  64.0163642  55.4856174  68.5400648  65.1898897  56.2049728
  67.7933874  64.7820837  56.8863448  68.7454837  66.2269389  56.4703623
  68.0178317  65.1270019  54.7912625  67.8117306  64.0902355  54.5252971
  67.1000246  65.7101714  54.7161441  68.7638284  65.5350889  54.1093140
  70.8118598  62.1130679  56.8346973  71.3493254  61.5938040  55.8376373
  71.3042554  61.9713437  58.0478069  70.9292369  62.4368369  58.8619177
  72.4432716  61.1017909  58.2207407  72.1660558  60.0654680  58.0276463
  73.2515317  61.3922424  57.5495829  72.9163489  61.2235242  59.6327421
  72.0751328  61.2930719  60.5322773  74.2398441  61.1589192  59.8292631
  74.8202664  61.0126813  59.0157376  74.8895835  61.3031130  61.1234891
  74.1533276  61.5417307  61.8910098  75.5806120  59.9887574  61.4998109
  76.2896225  59.7130330  60.7191833  76.1171380  60.1611392  62.4328299
  74.7058087  58.7972014  61.7233423  74.5959805  58.1153841  62.8596543
  75.2113056  58.4593670  63.6910090  73.7152845  57.1124213  62.7271171
  73.4680826  56.4497990  63.4481736  73.2128358  57.1284598  61.4631741
  72.2932302  56.3075095  60.8562020  71.8312382  55.5104630  61.4387643
  72.0225690  56.5458226  59.5701104  71.2955140  55.9210354  59.0513312
  72.6440858  57.5700632  58.8759534  72.4259907  57.7280356  57.8197438
  73.5146660  58.3846171  59.4615576  74.0093454  59.1395895  58.8504851
  73.8133764  58.1823068  60.8019634  75.9826251  62.3875887  61.1856059
  76.8320198  62.5135925  60.2996986  76.0059364  63.1937269  62.2650631
  75.2128158  63.2119414  62.8901448  77.1453847  64.1183472  62.5402284
  77.6433989  64.3408093  61.5965168  76.7121707  65.4379154  63.1883491
  76.0124946  65.9248131  62.5090236  76.2030411  65.1955487  64.1211650
  77.8877968  66.3848774  63.4777625  78.5508683  65.8870974  64.1853302
  78.4183605  66.5542143  62.5407837  77.4407482  67.7184895  64.0547680
  76.7771856  68.2083260  63.3421365  76.9040106  67.5394248  64.9864053
  78.6511228  68.6188531  64.3276849  79.2749284  68.1228335  65.0712787
  79.2081374  68.7203476  63.3962704  78.2637401  69.9742087  64.8266186
  77.7479580  69.8804082  65.6899089  79.0955673  70.5234564  64.9893776
  77.6860555  70.4341701  64.1375504  78.0570960  63.2748632  63.4255386
  77.4980883  62.4717525  64.1675720  79.3687426  63.4523353  63.3719391
  79.7129085  64.1399599  62.7170944  80.3504764  62.6253787  64.0978230
  79.8138403  61.9264858  64.7394379  81.2590979  61.8266262  63.1551267
  81.6000071  62.4739986  62.3471731  82.1207988  61.4485143  63.7052204
  80.6052429  60.6343368  62.5055532  79.7659376  60.7903061  61.4175987
  79.5817970  61.7907155  61.0259697  79.1611050  59.6914416  60.8253102
  78.5036954  59.8330719  59.9674908  79.3877205  58.4294059  61.3153736
  78.9118668  57.5655811  60.8511862  80.2178064  58.2579793  62.3948977
  80.3976729  57.2562386  62.7851076  80.8269606  59.3536293  62.9891839
  81.4872557  59.2124864  63.8448643  81.1403432  63.4942494  65.0835873
  81.0849670  64.7210892  64.9097949  81.8343406  62.8918862  66.0629739
  81.7817068  61.8837330  66.0938948  82.6135041  63.5889140  67.1177632
  83.1444230  64.4459724  66.7034262  81.6650013  64.0841881  68.2155701
  82.2841476  64.5371053  68.9899241  80.6323860  65.0851048  67.7465089
  80.0125182  64.6327216  66.9724204  80.0046773  65.3812617  68.5869683
  81.1348189  65.9636016  67.3416569  80.9906036  62.9359397  68.7359954
  80.3848078  63.2075936  69.4294044  83.6848434  62.6376954  67.6851328
  83.2894062  61.7520347  68.4475660  84.9866469  62.8221410  67.3952422
  85.2109965  63.6117388  66.8067680  86.0947607  61.9360602  67.8381943
  86.0301423  60.9808938  67.3170602  87.4226628  62.5702711  67.5177251
  87.5060145  63.5235376  68.0396787  88.2282113  61.9095547  67.8381086
  87.4961824  62.7373773  66.4431230  85.9966365  61.6501933  69.3434959
  85.6278093  62.5863215  70.0813336  86.3481350  60.4266255  69.7954877
  86.6517573  59.7134736  69.1479328  86.2419619  60.0799499  71.2003376
  85.2860234  60.4934725  71.5217096  86.1858681  58.5444333  71.3373603
  86.0179445  58.2916779  72.3842684  85.0565432  57.9600876  70.4840448
  85.2240357  58.2120535  69.4368776  85.0379491  56.8762133  70.5979294
  84.1026493  58.3754706  70.8090742  87.3673722  57.9759563  70.7615157
  87.3359769  57.0201064  70.8449753  87.3832944  60.6397929  72.0483204
  87.4604601  60.3861023  73.2557224  88.2957611  61.3945880  71.4234981
  88.2013408  61.5964403  70.4383891  89.4966257  61.8707023  72.1191017
  89.2579686  62.0588879  73.1658720  90.6262150  60.8358384  72.0524497
  90.8033964  60.6079203  71.0013743  91.5184868  61.2932367  72.4799283
  90.3026434  59.5374449  72.8107543  89.3085120  59.2110717  72.5053297
  91.0369174  58.7872667  72.5171959  90.3358003  59.7148981  74.3190172
  91.3309504  60.0464624  74.6153958  89.6022972  60.4692548  74.6036548
  90.0075803  58.3924450  75.0221355  90.6921636  57.6337793  74.6428300
  90.1756634  58.5314450  76.0900897  88.5974344  57.9501836  74.7931938
  88.4416017  57.8209102  73.8036968  88.4354796  57.0781250  75.2762926
  87.9629207  58.6528474  75.1449820  89.9301538  63.2096766  71.5451277
  89.8829845  63.4002235  70.3329198  90.3783954  64.1203139  72.4271000
  90.3755074  63.8926816  73.4111095  90.7736247  65.4670324  72.0300306
  90.0117895  65.9044007  71.3847282  90.9344478  66.3546562  73.2689890
  91.0841579  67.3779046  72.9245346  90.0075438  66.2958400  73.8395061
  92.1141773  65.9373842  74.1636607  91.9662212  64.8950551  74.4460787
  93.0272611  66.0277550  73.5752620  92.2327877  66.7887637  75.4155977
  92.3317048  67.8345813  75.1247712  91.3320113  66.6628688  76.0163070
  93.4575871  66.3690421  76.2373606  93.3101066  65.3360231  76.5523556
  94.3313931  66.4292854  75.5885671  93.6701129  67.2310227  77.4403432
  92.8607149  67.1750049  78.0418718  94.4859661  66.9121139  77.9431163
  93.8072177  68.1882161  77.1486549  92.0350514  65.5243781  71.1669661
  92.3774900  66.6111408  70.6895840  92.7244708  64.4016439  70.9365453
  92.4238397  63.5401184  71.3695511  93.9447688  64.3840826  70.1330322
  94.3190634  65.3985205  69.9954871  95.0259820  63.5534984  70.8481139
  95.7704175  63.2900517  70.0967745  95.4888831  64.1737939  71.6156138
  94.4755694  62.2811957  71.4863833  93.9761485  62.3533788  72.6333678
  94.5569884  61.2015349  70.8565314  93.7346275  63.8481246  68.7116242
  94.7098121  63.6094899  67.9950591  92.4685837  63.7097047  68.3014206
  91.7069016  63.8435498  68.9510553  92.1521778  63.2001236  66.9365908
  93.0785580  62.9056604  66.4434272  91.2092735  61.9840697  66.9786998
  90.3217176  62.3106782  67.5206137  90.9445843  61.7730758  65.9425911
  91.7616184  60.7290060  67.6242935  92.6353444  60.4108889  67.0555184
  92.0616452  60.9749517  68.6429184  90.5698199  59.3939468  67.6679642
  90.5615903  58.8701953  65.9400262  91.5623061  58.5473394  65.6529181
  89.8632902  58.0428019  65.8139401  90.2541988  59.7038185  65.3086119
  91.6364362  64.3441327  66.0561524  91.0618488  65.3010326  66.6117833
  91.8352665  64.2450927  64.7373394  92.3484125  63.4577373  64.3674043
  91.3833913  65.3000779  63.7907434  90.6408195  65.9345383  64.2746300
  92.5440195  66.1603446  63.3584117  92.2548026  66.7210542  62.4695598
  92.7862298  66.8549860  64.1627173  93.6789577  65.3630497  63.0652595
  94.4053449  65.9283752  62.7925536  90.6915550  64.6464716  62.5858690
  91.0049994  63.4724524  62.3053918  89.7695673  65.3249120  61.8626945
  89.3576447  65.0926407  60.5239766  89.1737863  64.0235207  60.4177750
  90.1800875  65.3859139  59.8715368  88.1146341  65.9212888  60.2924513
  87.2202286  65.3657764  60.5744864  88.0396800  66.2235386  59.2478805
  88.3273829  67.1385054  61.2005436  87.3976121  67.5923862  61.5434978
  88.9543455  67.9008919  60.7381754  89.0583542  66.5080547  62.3746147
  89.8010393  67.2287854  62.7167614  88.1140650  66.1603824  63.5311214
  87.5882873  65.0709426  63.5483463  87.8901547  67.1026753  64.4499289
  88.3214583  68.0139485  64.3894489  87.0685143  66.7896307  65.6496122
  87.4710185  65.9089121  66.1500365  87.0791026  67.9610911  66.6365937
  87.3611333  68.8548555  66.0800480  86.0645465  68.0762926  67.0180443
  88.0403095  67.7646931  67.8022498  89.0565659  67.8259029  67.4129209
  87.8829353  68.5588478  68.5320810  87.8677929  66.4340693  68.4927710
  86.7786520  66.0776843  68.9374694  88.9562286  65.6903974  68.6012407
  88.9051334  64.7888519  69.0536857  89.8334208  66.0275118  68.2311202
  85.6421906  66.4060634  65.2422573  85.1016363  65.4681732  65.8571572
  85.0550820  67.0872105  64.2505058  85.5203239  67.8368414  63.7588729
  83.6292958  66.8054409  63.9226866  83.3737906  65.7914455  64.2303059
  82.7048431  67.7863877  64.6526680  83.0082361  68.7954447  64.3736414
  81.6884647  67.6036106  64.3038594  82.7552550  67.6409490  66.1832274
  82.4109192  66.6377861  66.4346194  83.7930899  67.7571783  66.4954638
  81.8937758  68.6657255  66.8995595  82.2380631  69.6654324  66.6346985
  80.8584011  68.5425453  66.5818720  81.9876087  68.4789815  68.4183943
  81.6112989  67.4840093  68.6561375  83.0388871  68.5457697  68.6984875
  81.2039522  69.5023905  69.1769135  80.2297170  69.4403828  68.9178370
  81.3001847  69.3334711  70.1680268  81.5527716  70.4243987  68.9570842
  83.3590440  66.8212393  62.4153395  83.6470690  67.8572891  61.7808544
  82.8268751  65.7227790  61.8657339  82.7173647  64.8877545  62.4232650
  82.4215461  65.6777472  60.4691289  82.3251999  66.6972550  60.0957384
  83.4278416  64.9348005  59.6011487  83.0503430  65.0117519  58.5815054
  84.4363646  65.3457903  59.6466331  83.5455558  63.4876563  59.9018147
  84.3989261  63.0553455  60.8851292  84.9355395  63.8078511  61.4629538
  84.5869656  61.7268967  61.1505569  85.2722681  61.4104051  61.9368737
  83.9028877  60.7876414  60.4158638  84.0182479  59.7248803  60.6287742
  83.0435654  61.2110805  59.3760881  82.5064577  60.4845029  58.7664158
  82.8884534  62.5632350  59.1366377  82.2372300  62.9029075  58.3312617
  81.0744879  65.0002864  60.3574911  80.5706606  64.4074727  61.3035033
  80.4871823  65.1182157  59.1877741  80.9279054  65.6835211  58.4762320
  79.1837170  64.5367043  58.8984445  78.7310819  64.1524889  59.8125557
  78.2594997  65.6108751  58.3072453  78.6107225  65.9158139  57.3214694
  77.2636542  65.1765378  58.2192514  78.1029336  66.9305948  59.1590469
  79.0883260  67.8675171  59.4088459  80.0774444  67.6679335  58.9966434
  78.5684349  68.9145273  60.1733464  79.0923659  69.7183710  60.4886735
  77.2365028  68.6789705  60.4271549  76.2994763  69.4491547  61.1440593
  76.6317617  70.3895896  61.5836811  75.0176224  68.9641572  61.2450885
  74.2627646  69.5383894  61.7822542  74.6565696  67.7392299  60.6689427
  73.6431701  67.3514334  60.7725521  75.5842664  66.9744832  59.9424263
  75.2438167  66.0351521  59.5067064  76.8975022  67.4426688  59.8145355
  79.3807735  63.3394436  57.9698750  80.3202825  63.3195671  57.1693865
  78.5658383  62.2981265  58.1524544  78.0026073  62.2812709  58.9906584
  78.4427252  61.1855277  57.2122756  79.0573360  61.3435146  56.3260516
  78.7148933  60.2385853  57.6784557  76.9889009  61.1309236  56.7995405
  76.1354612  60.5713758  57.4921883  76.6726688  61.7389316  55.6807749
  77.3884493  62.2253609  55.1600597  75.3044883  61.7947396  55.1898394
  74.6004484  61.8474056  56.0202930  75.1378824  63.0618305  54.3197980
  75.6810624  62.8182149  53.4067229  74.0866339  63.2266572  54.0835591
  75.7362191  64.3529573  54.9501652  75.4937302  64.2912489  56.0110573
  77.2597883  64.6034753  54.7814002  77.5029843  64.6657684  53.7207051
  77.5312491  65.5385231  55.2713954  77.8158424  63.7821884  55.2334976
  75.0139915  65.6586293  54.4536676  73.9581489  65.6143785  54.7207589
  75.4712076  66.5288391  54.9246131  75.1112980  65.7389751  53.3709973
  74.9697590  60.5112640  54.4069808  75.8486396  59.7159388  54.0422142
  73.6816381  60.2838147  54.1941205  72.9706876  60.8580241  54.6241581
  73.2595865  59.1828303  53.3551833  74.0234051  58.4147923  53.2335359
  71.9711994  58.5177545  53.8683801  71.6372493  57.7950286  53.1239039
  72.1911794  57.8216509  55.1757609  72.5247218  58.5438704  55.9209106
  71.2585035  57.3642212  55.5058713  72.9506730  57.0494260  55.0535366
  70.9135433  59.5105958  53.9240453  70.1064819  59.1007864  54.2439022
  73.0364387  59.7347041  51.9392220  72.3290698  60.7424984  51.7662428
  73.5789411  59.0366594  50.9234253  74.2982164  58.3439478  51.0747296
  73.1704941  59.3202057  49.5546717  73.4995255  60.3177098  49.2634276
  73.8022835  58.2991132  48.6033183  74.8584780  58.2657422  48.8705988
  73.3358209  57.3448008  48.8478596  73.6627865  58.5672426  47.0849576
  72.8339137  57.9759746  46.6957622  73.4571525  59.6263883  46.9299513
  74.9838182  58.1752270  46.3320186  75.0736498  58.7788879  45.4289002
  75.8370028  58.3667407  46.9827858  74.9907017  56.7634046  45.9541708
  75.6704897  56.1629550  46.3985219  74.1735996  56.2361174  45.0558416
  73.3342888  57.0004671  44.3656235  73.3163385  57.9975736  44.5254875
  72.7180373  56.5809193  43.6842180  74.1839768  54.9204899  44.8587514
  74.8121083  54.3377700  45.3935303  73.5636780  54.5104298  44.1752466
  71.6581662  59.3043907  49.4575530  71.0583345  60.2157689  48.8762814
  71.0101552  58.3248292  50.1157263  71.5068998  57.7358463  50.7687526
  69.5968929  58.0358340  49.8553085  69.4578961  57.7384549  48.8159121
  69.1293282  56.8821370  50.7644837  68.0421450  56.8535959  50.6915642
  69.5454848  55.9680488  50.3409787  69.5099764  56.9873174  52.1310553
  69.1761130  56.2287404  52.6155095  68.7220155  59.2755363  50.0514248
  67.7321048  59.4939903  49.3292444  69.0850277  60.1034687  51.0157371
  69.9348388  59.9075220  51.5251734  68.2828765  61.2406817  51.4272295
  67.2335646  60.9669596  51.3171391  68.5654389  61.5242835  52.9206476
  69.6102543  61.8085898  53.0456704  67.9248129  62.3364312  53.2643256
  68.3607344  60.6280472  53.5062719  68.5180609  62.5058526  50.5839252
  67.8065541  63.5039696  50.7877619  69.4582995  62.4894723  49.6353110
  69.8802534  61.6125838  49.3649022  69.9388327  63.7143031  49.0002486
  69.4109204  64.5700117  49.4211651  71.4361072  63.9074994  49.2226201
  71.8919710  62.9781323  48.8812052  71.8383886  64.7415703  48.6476458
  71.7470770  64.1125378  50.6993703  71.2430807  63.3301937  51.2668439
  73.2058687  64.0582049  50.9701298  73.7105235  64.8406061  50.4033222
  73.3841883  64.2090367  52.0348141  73.5953971  63.0850260  50.6713142
  71.1506279  65.4025907  51.2106256  70.0682585  65.3782714  51.0841954
  71.3899044  65.5203785  52.2674955  71.5626785  66.2414173  50.6496593
  69.6349268  63.6782056  47.5177452  70.0813561  62.7636722  46.8244786
  68.8705784  64.6552006  47.0635708  68.4378084  65.2453171  47.7596828
  68.5434555  64.8871131  45.6585629  68.9071025  64.0522823  45.0594657
  67.0153976  65.0648193  45.4263031  66.6753990  65.9414063  45.9777525
  66.7115633  65.2471391  43.9486853  67.0508807  64.3706860  43.3966035
  65.6373017  65.3694932  43.8105105  67.2282466  66.1322077  43.5774830
  66.2459671  63.8534173  45.9661029  66.4331214  63.8130397  47.0391563
  65.1879561  64.0470132  45.7893743  66.6336785  62.5123471  45.3287610
  67.6915213  62.3178300  45.5054859  66.0389347  61.7135133  45.7717549
  66.4463580  62.5518045  44.2557028  69.3598540  66.1090596  45.2128259
  69.2794442  67.1592420  45.8536326  70.1851403  65.9957590  44.1707322
  70.6935831  64.8307102  43.4628253  70.0401854  64.6308683  42.6135697
  70.6756686  63.9789258  44.1427086  72.0970429  65.2019546  43.0408392
  72.4028697  64.6288799  42.1655368  72.8037228  65.0293418  43.8525718
  71.9862293  66.6979230  42.7202087  71.5695754  66.8678244  41.7274187
  72.9207578  67.2498618  42.8208044  70.9971402  67.1548023  43.7809670
  71.5778670  67.4928989  44.6391892  70.0987391  68.2770329  43.3068566
  68.9813669  68.0614996  42.8393967  70.5953592  69.4917398  43.4281199
  71.4830131  69.6599107  43.8796600  69.8540246  70.6299524  42.9257664
  68.8644200  70.5713430  43.3789186  70.5187347  71.8844886  43.3912163
  69.9596147  72.7421850  43.0172620  70.5605561  71.9299972  44.8741698
  71.1199496  71.0728030  45.2488652  71.0478943  72.8502138  45.1963531
  69.5445801  71.9004410  45.2678951  71.8777123  71.8319659  42.9737870
  72.3313740  72.6281143  43.2600369  69.7568615  70.6724422  41.4198006
  70.4638866  70.2427166  40.8587469  68.9819476  71.1324468  40.9865867
  63.8803940  68.2472332  53.9319120  60.4878633  42.4757862  68.3903504
  61.2286031  43.1131751  68.1351231  60.5372759  41.6641174  67.7913074
  60.4878134  42.3633923  69.3940770  59.1979627  43.1194383  68.0697252
  58.6744943  42.5009523  67.3406470  58.2879855  43.3024606  69.3065992
  58.3476452  42.4361489  69.9654193  58.6110343  44.1922096  69.8470492
  56.8224915  43.5004670  68.9831710  56.0909625  42.5070656  68.3516070
  56.5793428  41.5686476  68.0890119  54.7346652  42.7002801  68.0500449
  54.1743149  41.9102119  67.5501445  54.1086885  43.8862069  68.3840550
  53.0559502  44.0395762  68.1467366  54.8172829  44.8698617  69.0155122
  54.3324754  45.8125564  69.2692612  56.1670687  44.6668208  69.3368743
  56.7206943  45.4358477  69.8755730  59.3646054  44.4261392  67.2563089
  59.6622850  45.5021256  67.7959792  59.1379422  44.2973460  65.9325982
  58.9708252  43.3622122  65.5895298  59.2640412  45.3769549  64.9621360
  59.6816337  46.2858545  65.3952840  60.1589987  44.9077358  63.7808124
  59.6936664  44.0345217  63.3235779  60.3320309  46.0242207  62.7090861
  60.7977596  46.8976539  63.1654981  60.9637676  45.6573025  61.9001483
  59.3558512  46.3002974  62.3103957  61.5150104  44.4345760  64.3173373
  62.1998661  45.2783057  64.2325224  61.3700363  44.1892995  65.3694407
  62.0805358  43.2727088  63.6172061  62.2262355  43.5173945  62.5650652
  63.0389903  43.0094045  64.0645705  61.3964041  42.4283885  63.7019817
  57.8844367  45.9046643  64.5418941  57.0305402  45.1173005  64.1376441
  57.6816982  47.2277622  64.6630674  58.4360928  47.7414948  65.0955798
  56.4508940  47.9549574  64.3179847  55.6957341  47.2932005  63.8938262
  55.8175614  48.7280410  65.5283732  54.9057653  49.2170657  65.1854710
  55.4850411  47.7841503  66.6897197  56.3964825  47.2950714  67.0334889
  55.0484987  48.3551829  67.5091421  54.7733820  47.0301290  66.3534240
  56.7124617  49.8739669  66.0058753  56.8631691  50.5818222  65.1908108
  56.2364366  50.3822019  66.8444437  57.6760831  49.4752246  66.3229544
  56.7568570  48.9000018  63.1363558  57.8799331  49.3895477  63.0087009
  55.7668041  49.1292898  62.2892530  54.8807552  48.6824533  62.4772793
  55.8756721  49.9832649  61.1066506  54.9009308  49.9671063  60.6190877
  56.0844038  50.9905493  61.4670788  56.9403576  49.5889520  60.0966525
  57.3905958  50.4312566  59.3130981  57.3604814  48.3276020  60.1491796
  56.9255422  47.7215203  60.8300556  58.3970199  47.7726043  59.2954317
  58.2966467  46.6887610  59.3529487  58.1724010  48.1044885  58.2817757
  59.8285401  48.1556570  59.6356544  60.7518883  47.5096170  59.1315696
  60.0534147  49.1822911  60.4916865  59.2906847  49.7440680  60.8420421
  61.4284887  49.6016317  60.8026684  62.1032786  48.7584187  60.6551909
  61.8877474  50.7668544  59.8949665  62.8783209  51.0391770  60.2592520
  61.9739071  50.3351060  58.8978357  61.0077834  52.0125032  59.8353413
  60.0068263  51.7505164  59.4924877  60.9443095  52.4763128  60.8196958
  61.6407688  52.9903361  58.8534904  62.6207915  53.2405622  59.2597433
  61.7643155  52.4466228  57.9168946  60.8639572  54.2570115  58.6000419
  60.0146334  54.0169558  57.9604148  60.5025312  54.6354680  59.5562014
  61.7063831  55.2990085  57.9386088  62.0410364  54.9486812  57.0523935
  61.1542676  56.1306888  57.7850630  62.4932106  55.5219027  58.5313312
  61.7337371  49.9409454  62.2745800  62.8998568  50.1523355  62.5863686
  60.7385231  49.9897566  63.1645432  59.7782758  49.8998437  62.8646430
  61.0001174  50.3360073  64.5668545  62.0299229  50.6803935  64.6617124
  60.0562288  51.4527340  65.0753047  59.0674767  51.0232460  65.2365763
  60.4680931  51.7833763  66.0287949  59.9454554  52.6344380  64.1373089
  60.9691282  53.5761474  64.0441944  61.8451289  53.4615158  64.6826157
  60.8888653  54.6454585  63.1596959  61.7006413  55.3702969  63.0986152
  59.7725086  54.7857528  62.3510313  59.6870820  55.8367533  61.4842826
  60.4533221  56.4141012  61.5181229  58.7413612  53.8645394  62.4222131
  57.8636824  53.9711230  61.7847021  58.8292722  52.7973629  63.3141246
  58.0181326  52.0720338  63.3777672  60.9863685  49.1054500  65.4768763
  59.9279288  48.5283259  65.7187380  62.1834743  48.6803163  65.9228563
  63.0004631  49.1870180  65.6132082  62.3741514  47.5311734  66.8054609
  61.5869013  46.8000314  66.6217008  63.7409500  46.8557626  66.5632405
  63.8539311  46.7284025  65.4866190  64.5090595  47.5362816  66.9306664
  63.8878141  45.5064046  67.2515173  63.4244252  45.5924061  68.2343577
  63.3398267  44.7773854  66.6545727  65.3337316  45.0491899  67.4099672
  65.3171534  43.9759859  67.5998548  65.8420244  45.2426952  66.4653543
  66.0742693  45.7513678  68.5365794  66.1445058  46.8097556  68.2856161
  65.4901847  45.6328798  69.4492157  67.4424722  45.1993239  68.7476113
  67.9839990  45.3094091  67.9021944  67.8929718  45.6957711  69.5030517
  67.3775894  44.2187066  68.9805898  62.2844198  48.0295766  68.2500174
  62.9589788  48.9888359  68.6225182  61.4508047  47.3631949  69.0607604
  60.9284526  46.6004634  68.6539579  61.2048562  47.7031288  70.4706503
  61.1036671  48.7825408  70.5834757  59.9029220  47.0333377  70.9525063
  59.8664314  46.2014802  70.2490997  59.9925994  46.6464688  71.9675878
  58.6016385  47.8702638  70.8313294  58.5849289  48.5581262  71.6767091
  58.4770223  48.6827300  69.4933625  58.4931929  47.9954590  68.6474925
  57.5394668  49.2386850  69.4912555  59.3117839  49.3788158  69.4112776
  57.4049741  47.0190526  71.1064053  57.4717304  46.6127028  72.1156242
  56.5013027  47.6219619  71.0170763  57.3676178  46.2006058  70.3874836
  62.3758587  47.2830555  71.2945972  62.8712557  46.1757998  71.1198692
  62.8503567  48.1728018  72.1432203  62.4235225  49.0881696  72.1395354
  64.0124584  47.9532374  73.0031942  64.5668471  47.0516141  72.7427566
  64.9864812  49.1599552  72.9733523  64.4317220  50.0604303  73.2369546
  66.1346729  48.9678251  73.9516092  66.6902162  48.0677311  73.6883537
  66.7992968  49.8305796  73.9065497  65.7387224  48.8672441  74.9621577
  65.5108681  49.4293149  71.5595359  64.6737846  49.6478151  70.8964741
  66.1899250  50.2817112  71.5795829  66.0425678  48.5503596  71.1950721
  63.5242655  47.6200329  74.4186929  63.7525376  46.5152632  74.8824006
  62.8184380  48.5491792  75.0814302  62.6731049  49.4529036  74.6545112
  62.3090944  48.3317219  76.4400937  61.9070359  47.3221645  76.5251928
  63.4442221  48.5027611  77.4833304  63.0389900  48.2313470  78.4581230
  64.2430383  47.8106197  77.2169982  63.9962097  49.9122999  77.5410098
  64.4444986  50.1284092  76.5712496  63.1564725  50.5861808  77.7107981
  65.0211415  50.1084139  78.6207038  64.6551040  49.7239953  79.5727216
  65.9535789  49.6070186  78.3613534  65.2827618  51.5394374  78.7629481
  64.6682849  52.0607470  79.3718437  66.2502125  52.1919254  78.1298789
  67.0927329  51.5377680  77.3340733  66.9951401  50.5399901  77.2115378
  67.8258741  52.0420874  76.8563019  66.4016676  53.5003379  78.3061547
  65.7777836  53.9990738  78.9243225  67.1399638  53.9900200  77.8211507
  61.1446867  49.2654992  76.7578038  61.0244639  50.3158310  76.1304413
  60.3190644  48.8883657  77.7698764  60.5104351  47.9982670  78.2071417
  59.1887460  49.6833703  78.2726029  58.5587550  50.0074407  77.4442377
  58.3382644  48.8282907  79.2331913  58.3843088  47.8053619  78.8595662
  58.8248272  48.8810610  80.2071379  56.8706337  49.2568158  79.3708874
  56.8601124  50.2738090  79.7629526  56.4301963  49.2477629  78.3738744
  56.0488317  48.3341114  80.3067907  56.6208178  48.2315346  81.2289669
  55.1127045  48.8517288  80.5161647  55.7494486  46.9552425  79.7404865
  55.2686029  47.0893127  78.7715112  56.6984292  46.4361904  79.6058761
  54.8604168  46.1454816  80.6301306  53.9808527  46.6260678  80.7546441
  54.6941724  45.2428849  80.2084885  55.3059821  46.0207708  81.5279156
  59.7799966  50.8716675  79.0131421  60.7502464  50.6960837  79.7547286
  59.2559215  52.0757905  78.7530285  58.5677966  52.1165628  78.0148408
  59.7006834  53.3387435  79.3624435  60.3008379  53.2020381  80.2620130
  60.4792066  54.2500590  78.3476653  60.6167153  55.2306266  78.8033833
  61.8540213  53.6559287  77.9831166  61.7172930  52.6754874  77.5268920
  62.3606475  54.3161842  77.2792038  62.4576881  53.5553837  78.8851012
  59.6209352  54.5829212  77.0897985  59.6777373  53.7088927  76.4409931
  58.5970687  54.7070368  77.4424914  60.0370689  55.8050087  76.3208324
  61.0607443  55.6814301  75.9673966  59.3726719  55.9417644  75.4676186
  59.9800778  56.6795745  76.9688962  58.5144460  54.0940260  80.0303493
  58.6995868  55.1962303  80.5558191  57.3152907  53.5028816  79.9714012
  57.2563529  52.6033085  79.5159959  56.0914218  54.0810998  80.5254207
  56.2799861  54.2669385  81.5827790  55.9299814  55.0297500  80.0134645
  54.8421634  53.2264188  80.3885999  54.9169561  52.0666341  79.9640265
  53.6763365  53.8096897  80.7701242  53.7631281  54.7375399  81.1595603
  52.3386167  53.1799374  80.7505879  52.2706775  52.4847906  79.9137758
  52.0880827  52.4080001  82.0497902  52.3005029  53.0819627  82.8797007
  51.0345514  52.1290980  82.0694228  52.8896914  51.2397569  82.1712039
  52.6901361  50.7995451  83.0006561  51.1981698  54.2022921  80.4887241
  51.4685951  55.3678928  80.1723409  49.9490199  53.7380207  80.6079158
  49.8600126  52.7632518  80.8569189  48.7257255  54.5183771  80.4092110
  48.6898064  55.2884565  81.1797865  48.7836065  54.9894244  79.4279549
  47.4583320  53.6855894  80.4835035  47.5188968  52.4787513  80.7608478
  46.2926386  54.3328426  80.2403613  46.3429973  55.3287924  80.0802129
  44.9605050  53.6922136  80.2573146  44.8285166  53.1410682  81.1883984
  43.8513465  54.7496341  80.1513752  42.9073837  54.2395726  80.3433932
  44.0347425  55.4816532  80.9378954  43.7850794  55.4111866  78.8948725
  43.0711001  56.0527882  78.9083171  44.8314637  52.6552496  79.1182785
  44.2897237  51.5580626  79.3097423  45.3518499  53.0421402  77.9407680
  45.7082639  53.9860937  77.9857147  45.4102730  52.3384123  76.6580558
  44.4294356  51.9509343  76.3825234  45.8717044  53.3509724  75.5640922
  45.8434583  52.8917103  74.5759729  45.1971141  54.2068679  75.5857919
  47.2793263  53.9010269  75.7486799  47.5293583  54.9416750  76.6369099
  46.6962555  55.3871265  77.1806125  48.8339760  55.4192564  76.8376154
  49.0116096  56.2389682  77.5337616  49.8913226  54.8522072  76.1547294
  50.9067180  55.2146584  76.3150453  49.6589742  53.8243120  75.2677853
  50.4932142  53.3763905  74.7278686  48.3552567  53.3540443  75.0583793
  48.1741153  52.5488529  74.3463719  46.3496232  51.0922760  76.7060600
  45.9576288  50.0076951  76.2584813  47.5637996  51.2868544  77.2492485
  47.7197232  52.2135373  77.6194459  48.6471556  50.3081610  77.3499654
  48.3688193  49.5701810  78.1023042  48.7523993  49.8177673  76.3822169
  49.9800002  50.9309984  77.7368400  50.0138000  51.8448992  78.5645410
  51.0946152  50.4659195  77.1261716  50.9999744  49.7131690  76.4594565
  52.4605364  50.9334174  77.4703665  52.4117475  51.6127114  78.3214120
  53.3739519  49.7383971  77.8424317  53.6201888  49.2400407  76.9048244
  54.2822991  50.1460192  78.2861091  52.7514444  48.7411552  78.7949143
  52.4281910  49.1361049  79.9399680  52.6012257  47.5627004  78.4030869
  53.1759832  51.7954360  76.4191168  52.7616224  51.8697361  75.2665923
  54.2706879  52.4397546  76.8551546  54.4363126  52.3896516  77.8502211
  55.1538795  53.2804297  76.0464067  54.8479744  53.2188399  75.0020275
  55.1662536  54.7601742  76.4928822  55.5474416  54.8276594  77.5118237
  56.0676115  55.5760423  75.5543630  55.6867649  55.5094122  74.5352374
  56.0742357  56.6187864  75.8717611  57.0824323  55.1797689  75.5890793
  53.7195683  55.3155544  76.4920392  53.4942096  55.5717496  75.4568203
  53.0791905  54.4927384  76.8098277  53.4829061  56.4549704  77.3281189
  54.1226392  57.2784001  77.0106209  52.4381801  56.7550807  77.2469987
  53.7076225  56.1993892  78.3636287  56.5344076  52.6332280  76.0681556
  57.0447000  52.3122482  77.1378353  57.1084568  52.4108408  74.8689473
  56.5877763  52.7211492  74.0610489  58.3931795  51.7542594  74.6533729
  58.8209459  51.4279768  75.6013469  58.1789864  50.5266794  73.7652684
  57.6318639  50.8243772  72.8707673  59.1841233  50.2097711  73.4871154
  57.4579381  49.3809523  74.4387243  56.0659870  49.3063772  74.4346577
  55.4986605  50.1039112  73.9548873  55.3980646  48.2361545  75.0300768
  54.3087947  48.1966520  75.0243869  56.1258055  47.2212572  75.6341089
  55.4818501  46.1505520  76.2204534  54.5257243  46.2059307  76.1544498
  57.5097550  47.2777212  75.6478690  58.0858553  46.4948272  76.1411092
  58.1655179  48.3401934  75.0282408  59.2548290  48.3659835  74.9993241
  59.4552881  52.6229476  73.9907001  59.1370628  53.5217433  73.2139763
  60.7243445  52.3072370  74.2618696  60.9059023  51.5927459  74.9522597
  61.8518820  52.9035821  73.5790895  61.6208236  53.9429832  73.3459443
  63.1201843  52.8647361  74.4385255  62.9318239  53.5793003  75.2397855
  63.2134286  51.8636936  74.8596185  64.4284637  53.2405414  73.7116938
  64.5647075  52.5475275  72.8814708  64.4068764  54.6510689  73.1887108
  64.2711205  55.3447350  74.0184677  65.3494435  54.8670946  72.6857189
  63.5844019  54.7647386  72.4825130  65.6111541  53.0753880  74.6136742
  65.6786665  52.0371811  74.9387403  66.5195601  53.3470226  74.0759806
  65.4978754  53.7214989  75.4841957  62.0320808  51.9970587  72.3498712
  62.0454492  50.7812944  72.4906988  62.0848383  52.5723486  71.1495995
  61.9677882  53.5718238  71.0632980  62.2586319  51.7873966  69.9296191
  62.5365843  50.7607216  70.1679047  60.9720155  51.7664926  69.1112748
  60.6857940  52.7870875  68.8571817  61.1319793  51.1960733  68.1963247
  60.1773271  51.3013551  69.6945558  63.4147371  52.3893014  69.1309123
  63.7844369  53.5441683  69.3373545  64.0119778  51.5897469  68.2648603
  63.7738118  50.6082359  68.2684019  65.1196948  52.0276627  67.4296127
  65.2175232  53.1090124  67.3336346  66.4727353  51.4245502  67.9356668
  66.6095852  51.7443399  68.9686755  66.5170887  49.9115440  67.8655816
  66.3807636  49.5909937  66.8327391  67.4815135  49.5585036  68.2307500
  65.7209389  49.4952191  68.4827674  67.6779593  52.0575658  67.2424421
  67.8800270  51.4527830  66.3584131  67.3694536  53.0569441  66.9355761
  68.9507700  52.1548714  68.0979510  69.2601693  51.1557726  68.4048280
  69.7466556  52.6180273  67.5147256  68.7495950  52.7599322  68.9819928
  64.8115642  51.7600835  65.9477075  64.3707308  50.6649760  65.6003582
  64.9832093  52.7838137  65.0901485  65.2200409  53.6848712  65.4801556
  64.8135166  52.6778279  63.6363410  63.8768630  52.1635463  63.4211815
  64.7795690  54.0679956  62.9626739  63.9325003  54.6097396  63.3834912
  65.7029074  54.5950539  63.2029983  64.6231146  54.0227098  61.4317283
  65.0919309  53.1295158  60.7438891  63.9773545  54.9911474  60.8524076
  63.8598699  54.9866241  59.8492742  63.5962400  55.7434110  61.4082422
  65.9800374  51.8432455  63.1192621  67.1220159  52.3123578  63.1100562
  65.6922919  50.5954516  62.7361789  64.7409101  50.2946625  62.8926971
  66.6667126  49.6044003  62.2637768  67.5517102  49.5330223  62.8960611
  66.0430032  48.1854558  62.0803177  66.7962975  47.5251236  61.6506556
  65.5651268  47.6097999  63.4347930  64.8114285  48.2693965  63.8648764
  65.1348396  46.6206344  63.2782512  66.4120058  47.5332881  64.1167323
  64.9313408  48.1828485  60.9920246  64.0160200  48.5420628  61.4624008
  65.2376873  48.8817340  60.2136864  64.6795342  46.8075334  60.3715646
  64.3726780  46.1081741  61.1492764  63.8918943  46.8851709  59.6221015
  65.5943466  46.4478441  59.9005637  67.4375085  50.0378271  60.9963590
  68.4592523  49.4092711  60.6509361  66.9601703  51.0908910  60.2999808
  66.0652031  51.5103055  60.5078858  67.6708670  51.5351116  59.1088623
  68.3232310  50.7575369  58.7114985  66.7497404  52.0099499  57.9986640
  67.3530119  52.1234186  57.0979484  65.6086950  51.0644701  57.7229242
  65.0046645  50.9508540  58.6231120  64.9905427  51.4647819  56.9193464
  66.0045601  50.0930783  57.4266315  66.2970498  53.2962498  58.3370511
  65.7110064  53.6204469  57.6492650  68.7575201  52.5780098  59.3842031
  69.6404472  52.7236724  58.5389789  68.7392652  53.2622843  60.5392084
  68.0309108  53.0790444  61.2354530  69.6752668  54.3613410  60.7747953
  70.6448215  54.1487069  60.3244069  69.1006262  55.6344151  60.1273228
  69.8197827  56.4532326  60.1485597  68.9109307  55.3448549  59.0937510
  67.8182100  56.1087149  60.7338986  67.5492068  55.9229746  61.9124939
  67.0337039  56.8179889  59.9676535  66.1558817  57.1622897  60.3295719
  67.3084999  57.0188874  59.0167446  70.0808120  54.6645781  62.2595139
  70.8892985  55.5756241  62.4854646  69.5068987  53.9481010  63.2307513
  68.8173703  53.2540525  62.9798595  69.8310184  54.1221927  64.6422758
  69.7431754  53.1376262  65.1016357  70.8700621  54.4492708  64.6811032
  68.9790608  55.1009952  65.4122056  69.1395826  55.2170335  66.6257137
  68.0556492  55.7971111  64.7300623  68.0217401  55.6585531  63.7301867
  67.1491026  56.7707642  65.3234743  67.7169551  57.5859940  65.7718527
  66.2194401  57.3558194  64.2368851  66.8681419  57.7376094  63.4485187
  65.6321696  56.5222831  63.8516181  65.2781759  58.4689471  64.7068366
  65.0051102  58.2383771  65.7365809  65.8524475  59.3950769  64.6824460
  64.0168512  58.6327864  63.8727378  63.6210997  57.6812213  63.1507457
  63.4179434  59.7281107  63.9468470  66.3420141  56.1333746  66.4438442
  65.8312457  55.0380774  66.2629974  66.2774997  56.8026724  67.6167592
  66.8468099  57.6334860  67.6924818  65.5007981  56.3800452  68.7921905
  65.2880328  55.3143744  68.7074792  66.2378757  56.6249983  70.0946393
  66.7698591  57.5726673  70.0108766  65.5006763  56.6922436  70.8947113
  67.2147741  55.5291451  70.4058375  66.6334910  54.6070806  70.4030477
  67.9293709  55.5100359  69.5829855  67.9600144  55.6516676  71.7183919
  67.6729119  56.5760089  72.5177612  68.8546745  54.8051299  71.9368828
  64.1668925  57.0895890  68.8089358  64.0976035  58.2919649  68.5838312
  63.1055207  56.3314795  69.0437502  63.2459571  55.3382767  69.1617551
  61.7390216  56.8429249  69.0540390  61.6747976  57.9099865  69.2670037
  60.9910200  56.5549328  67.7049714  59.9409226  56.8162360  67.8357970
  61.5734533  57.3561439  66.5437905  62.6234817  57.0950215  66.4120468
  61.0247712  57.1249187  65.6307827  61.4886498  58.4214998  66.7580960
  60.9499271  55.0691772  67.3825327  60.4299845  54.5380710  68.1798331
  60.4231135  54.9156829  66.4407225  61.9671928  54.6874453  67.2956304
  60.9557694  56.2673719  70.2458656  61.4093556  55.3340763  70.9085185
  59.7605770  56.8319088  70.4875768  59.4955706  57.6473232  69.9537507
  58.8308328  56.3297496  71.4861873  59.2645519  55.5724661  72.1392636
  58.2842368  57.4511101  72.3424912  57.8384025  58.2130161  71.7030922
  57.5262070  57.0560919  73.0188429  59.0937862  57.8931723  72.9232751
  57.7104090  55.6520127  70.6901068  57.3259552  56.1292459  69.6111249
  57.2472632  54.5026141  71.1941820  57.7242069  54.1349183  72.0049988
  56.1794151  53.7090807  70.6026203  55.6454773  54.2729893  69.8377565
  56.7215768  52.3930314  69.9642467  57.3560410  51.8914659  70.6949905
  55.5948792  51.4670738  69.5542273  54.9602055  51.9678108  68.8230962
  56.0106875  50.5609563  69.1135971  55.0019141  51.2052678  70.4305558
  57.5992248  52.6880959  68.7621399  58.4470084  53.2992078  69.0718287
  57.9624446  51.7518850  68.3382529  57.0195785  53.2254606  68.0115733
  55.1219035  53.4560841  71.6928685  55.3957717  52.7665970  72.6780734
  53.9352463  54.0584768  71.5250127  53.8337927  54.7048689  70.7556078
  52.7779990  53.8266002  72.3954683  53.1380151  53.6127307  73.4018219
  51.8175391  55.0416540  72.4607525  51.4425798  55.2005587  71.4496867
  50.9924107  54.7553521  73.1128985  52.4436838  56.3189236  72.9721252
  52.5431131  56.2542791  74.0556545  53.4304856  56.4327375  72.5233819
  51.5924982  57.5057294  72.6174080  52.1830697  58.1612134  71.9773572
  50.7264514  57.1424573  72.0641487  51.1287147  58.2720759  73.8291005
  51.9860467  58.4153580  74.4867878  50.7615640  59.2424731  73.4949918
  50.0527753  57.5634657  74.5665177  50.3929179  56.6644272  74.8765699
  49.7752935  58.1128876  75.3672920  49.2580958  57.4309764  73.9573952
  52.0763460  52.6219178  71.7647828  51.7923081  52.6116422  70.5601634
  51.8619157  51.5877492  72.5754646  52.1658157  51.7041790  73.5315965
  51.2463480  50.3241616  72.1958756  51.0527861  50.2874397  71.1238287
  52.2370421  49.1870585  72.5600278  53.1643731  49.7107294  72.7922461
  51.8437450  48.7264694  73.4662701  52.5091253  48.1128878  71.5245429
  51.5674704  47.6164203  71.2902206  53.1094318  48.6967667  70.2448155
  54.0514058  49.1930313  70.4782790  53.2894833  47.8950259  69.5286494
  52.4158590  49.4189725  69.8141463  53.4472128  47.0941242  72.0862864
  53.0017963  46.6376206  72.9702027  53.6392816  46.3248293  71.3383585
  54.3857325  47.5758256  72.3605919  49.9243313  50.1795788  72.9640531
  49.8899376  50.3744861  74.1830060  48.8414702  49.8746949  72.2471349
  48.9455779  49.7593803  71.2491552  47.5144139  49.7063700  72.8278320
  47.5937870  49.5844213  73.9080762  46.6495900  50.9374012  72.5362346
  47.1007245  51.7636891  73.0856208  46.7357145  51.1235496  71.4657060
  45.1807573  50.8200967  72.9135567  44.8764701  49.8445049  72.5344383
  45.0722432  50.8378873  73.9979954  44.3055905  51.8952263  72.3008834
  43.8072031  51.7038290  71.1649243  44.1752614  52.9618253  72.9404410
  46.8782719  48.4950480  72.2369612  46.8058171  48.3803534  71.0153043
  46.3670102  47.6051724  73.0879999  46.4399245  47.7269114  74.0879811
  45.6977929  46.4245140  72.5879847  46.3664698  45.8656451  71.9332818
  45.2893013  45.5275962  73.7449821  46.1678279  45.3359224  74.3610595
  44.5371739  46.0483497  74.3376204  44.7581739  44.2967478  73.2839561
  44.5101025  43.7536818  74.0357138  44.4589205  46.8515421  71.7994118
  43.8303372  47.8766357  72.0900181  44.1746875  46.1111417  70.7329330
  44.8201638  45.3751789  70.4843000  42.9525494  46.2503048  69.9530606
  42.7473785  47.3064840  69.7784478  43.0894018  45.5440784  68.5917698
  43.3532594  44.5042722  68.7848538  42.1179451  45.5864357  68.0992480
  44.1440412  46.1767680  67.6901747  43.7821759  47.1770264  67.4521888
  45.0862393  46.2514437  68.2331190  44.3879867  45.4343219  66.4028448
  45.5035670  44.9849728  66.1252494  43.3678554  45.3204769  65.5672753
  43.4878862  44.8302159  64.6924392  42.4740764  45.7243869  65.8083502
  42.0589227  45.4704812  70.9138288  42.5355936  44.4808504  71.4794485
  40.8595400  45.9612851  71.2281753  40.5483108  46.8241172  70.8053792
  40.0016063  45.3342372  72.2484212  38.9955908  45.7485839  72.1824746
  39.9208015  43.8169926  72.0448201  40.9402500  43.4315294  72.0292568
  39.3873521  43.3976715  72.8978744  39.2024405  43.4180857  70.7450003
  38.2303497  43.9110937  70.7358649  39.8004679  43.7795973  69.9084750
  39.0095830  41.9167170  70.6176301  38.6842275  41.5184070  71.5786669
  38.2451938  41.7201100  69.8658626  40.3205146  41.2400544  70.2019211
  41.0850295  41.5207909  70.9263550  40.1651970  40.1617739  70.2377930
  40.7662058  41.6340196  68.8289634  40.9105981  42.6330889  68.7956287
  41.6307294  41.1612996  68.6070743  40.0581170  41.3735850  68.1574851
  40.5021465  45.6893192  73.6771305  40.4062016  44.8871703  74.6113198
  41.0369193  46.9171887  73.8236349  41.1422712  47.4831467  72.9937603
  41.4593928  47.4802589  75.1046400  41.8279296  46.7363283  75.8109312
  42.5380433  48.5460009  74.9104544  42.1801550  49.3029882  74.2126104
  42.7640338  49.0137840  75.8686859  43.4401259  48.0821994  74.5114125
  40.2012504  48.1068590  75.7100357  39.3193658  48.5687800  74.9737053
  40.1170010  48.0805620  77.0453374  40.8690747  47.6065153  77.5246744
  39.0176257  48.6189493  77.8431063  38.0714671  48.1731244  77.5363113
  39.2601321  48.2868976  79.3386194  39.4198892  47.2097504  79.3868997
  40.1789041  48.8028104  79.6175317  38.1385241  48.6809901  80.3077177
  38.5328133  48.5690164  81.3177171  37.9080417  49.7301123  80.1224542
  36.8713767  47.8503280  80.1631463  36.8479683  47.3852410  79.1776286
  36.8505825  47.0762222  80.9302364  35.6837416  48.6905980  80.3130742
  35.3247894  48.8203534  81.2481764  35.0633968  49.2981824  79.3048944
  35.4893066  49.1362820  78.0584519  36.2893886  48.5481728  77.8737997
  35.0114035  49.6019236  77.3002394  34.0059619  50.0593011  79.5333588
  33.6684929  50.1793125  80.4777168  33.5408991  50.5169323  78.7623925
  38.8737984  50.1355550  77.6255981  37.7536992  50.6248479  77.4471374
  40.0194553  50.8636390  77.6026410  40.8864760  50.3805452  77.7897099
  40.0566780  52.3196094  77.4385206  39.0538895  52.6967406  77.2378053
  40.5845742  52.9854026  78.7193168  41.6262192  52.6929443  78.8517671
  40.5134210  54.0727859  78.6941219  39.8588135  52.5394795  79.9392828
  38.5916971  53.0079757  80.2336164  38.2383175  52.3970443  81.3496087
  37.2570440  52.6311873  81.7623777  39.1956826  51.5700316  81.7797239
  39.1888939  50.9924128  82.6082227  40.2269290  51.6385016  80.8758761
  41.1155094  51.0227733  81.0151766  40.8550330  52.7734461  76.1993860
  41.9943088  53.2582857  76.3559852  40.2714531  52.6470269  74.9653347
  39.0903972  52.0009163  74.5750602  38.2824725  52.3889369  75.1953809
  39.2177822  50.9360040  74.7695696  38.8890622  52.2986927  73.1060260
  38.3273851  53.2230589  72.9712484  38.3642946  51.4801628  72.6133505
  40.3204154  52.4305865  72.5729624  40.4356077  53.0660946  71.6949195
  40.7465094  51.4484009  72.3683777  41.0225194  53.0626462  73.7640050
  42.0100478  52.6067322  73.8349151  41.1714002  54.5783883  73.5961677
  40.2251171  55.3104716  73.8788468  42.3655629  55.0482856  73.1609780
  43.1199740  54.3829018  73.0702713  42.6601773  56.4640813  72.9445463
  41.7679963  56.9679581  72.5727662  43.1036951  57.1494432  74.2576587
  42.9883957  58.2222211  74.1028911  42.4107537  56.8178925  75.0309675
  44.5459315  56.8474910  74.6984169  44.6426381  55.7991080  74.9806255
  45.1885444  57.0535703  73.8424484  44.9962553  57.7004658  75.8545274
  44.3429415  57.7791226  76.9018422  46.1528786  58.3263988  75.7015516
  46.5077808  58.9134918  76.4428124  46.6749596  58.2139034  74.8443016
  43.6786852  56.7422148  71.8124312  43.7351425  57.8719390  71.3360586
  44.4705874  55.7416088  71.3971321  44.3632993  54.8667499  71.8902958
  45.5379268  55.8508003  70.4026363  46.2486661  56.6242275  70.6937707
  46.2771112  54.5229328  70.3036452  45.8466001  53.9324944  71.1124355
  46.0715549  54.0364604  69.3501299  47.7565869  54.6318027  70.4989194
  48.1656301  55.2667879  69.7130579  48.0871264  55.2240469  71.8465430
  47.6787793  54.5893236  72.6329766  49.1692443  55.2905528  71.9592317
  47.6525053  56.2207631  71.9224487  48.4113829  53.3167951  70.3068410
  48.2163849  52.9573587  69.2964546  49.4864199  53.4207116  70.4538036
  48.0137827  52.6034458  71.0287454  45.1097148  56.3499844  69.0016229
  45.7869342  57.2235584  68.4290914  43.9962162  55.8269576  68.4610141
  43.5013074  55.0670910  68.9057245  43.5044580  56.3152467  67.1779379
  44.3068638  56.2612515  66.4421875  42.3201616  55.4847237  66.6726523
  42.7554290  54.4943980  66.5388748  41.5582630  55.4440315  67.4510833
  41.6791221  55.9458004  65.3513716  41.3530753  56.9780099  65.4791913
  42.6402037  55.8595988  64.1732437  42.9663482  54.8275357  64.0445022
  42.1364187  56.1965903  63.2672976  43.5067275  56.4928829  64.3634755
  40.4377351  55.1673436  65.0603727  39.7194787  55.3128674  65.8672370
  40.0037662  55.5120044  64.1217668  40.6829099  54.1083600  64.9794894
  43.1071984  57.7892680  67.3295362  43.4737251  58.6052594  66.4930195
  42.3968481  58.1291825  68.4210350  42.0926515  57.3788186  69.0247881
  41.9655585  59.4855494  68.7337587  41.3946529  59.8906083  67.8982389
  41.0689865  59.5000407  70.0003409  40.2485802  58.8160807  69.7830125
  41.6373748  59.1259004  70.8518418  40.5103254  60.8705151  70.3289861
  39.5689540  61.4751443  69.5024522  39.2257233  60.9390578  68.6176340
  39.0662488  62.7401790  69.7876762  38.3304647  63.1972794  69.1260245
  39.5255692  63.4332496  70.8988013  39.0126711  64.6759149  71.1820968
  38.3493500  64.9610794  70.5494152  40.4723304  62.8570253  71.7303461
  40.8331740  63.3931406  72.6081118  40.9634659  61.5852110  71.4397203
  41.7153783  61.1307953  72.0848825  43.1829585  60.3987730  68.8805198
  43.2217399  61.4575736  68.2416714  44.1958562  59.9645701  69.6648533
  44.0708331  59.1175945  70.2006712  45.4519843  60.7057358  69.8189104
  45.2368499  61.6991468  70.2125487  46.4086705  59.9987014  70.7754159
  46.1655693  58.9363329  70.7560663  47.4198056  60.1464832  70.3961187
  46.3242280  60.5083298  72.1945555  46.0132550  61.5529982  72.2025987
  45.5649340  59.8999647  72.6859451  47.6373913  60.3678236  72.9320296
  47.9884688  59.2269949  73.3018140  48.3412840  61.3909616  73.0950715
  46.1455636  60.9235171  68.4741780  46.5767887  62.0297974  68.2075494
  46.2075081  59.8930187  67.6051487  45.8512032  58.9983811  67.9097302
  46.8348576  59.9787958  66.2748917  47.8731294  60.2937715  66.3792046
  46.8042692  58.6204580  65.5701031  47.6525446  58.5864922  64.8864552
  46.9228488  57.8519069  66.3338885  45.6051415  58.3878166  64.8475191
  45.6456685  57.5244247  64.4297730  46.1814902  61.0463306  65.4014419
  46.8803037  61.7105126  64.6380030  44.8408330  61.1903769  65.5170355
  44.3787305  60.5775958  66.1735871  44.0280676  62.1627602  64.7852561
  44.2724438  62.1230659  63.7237459  42.5420731  61.8558197  64.9556491
  42.3731783  61.6688405  66.0161267  41.9939466  62.7479524  64.6527355
  42.0607405  60.6766913  64.1562630  42.0075098  60.9430200  63.1006417
  42.7458504  59.8387351  64.2849324  40.6877786  60.2834253  64.6455315
  40.7667381  60.0371367  65.7044018  40.0284348  61.1424135  64.5210148
  40.1250368  59.1090532  63.8997635  39.7467627  59.4447662  62.9342035
  40.9125425  58.3716228  63.7444242  39.0206626  58.4961567  64.6769974
  38.2906455  59.1791872  64.8206780  38.6482004  57.7072769  64.1680371
  39.3710631  58.1846244  65.5715734  44.2786869  63.5524437  65.3137697
  44.4242123  64.4996154  64.5427067  44.2775727  63.6711471  66.6309490
  44.0131304  62.8526588  67.1603322  44.4814083  64.9085198  67.3419721
  43.8643440  65.7109760  66.9377507  44.0669221  64.6562837  68.7893684
  43.1196352  64.1370606  68.6439233  44.8067650  63.9583511  69.1813156
  43.8751906  65.7848721  69.7666182  44.7854710  65.8581547  70.3616980
  43.5931373  67.1277572  69.1025892  42.6826850  67.0553844  68.5076625
  43.4662113  67.8928576  69.8684952  44.4285523  67.3965989  68.4561324
  42.7832301  65.4492401  70.6928095  43.0333530  64.5373291  71.2349869
  42.6431349  66.2656891  71.4012482  41.8627326  65.2955900  70.1296265
  45.9201645  65.4517129  67.1408181  46.0632165  66.6632369  67.0272060
  46.9528662  64.5791988  66.9683298  46.7634912  63.6020328  67.1397449
  48.3363519  64.9769331  66.6391841  48.6159441  65.8281615  67.2599396
  49.3412644  63.8434255  66.8802513  48.7696194  62.9407417  66.6646516
  50.1781698  63.9173955  66.1858322  49.8657381  63.7808800  68.2955284
  50.7264023  64.7634856  68.7825361  51.0008642  65.5910441  68.1283824
  51.2349810  64.7019655  70.0811758  51.9008425  65.4833685  70.4474266
  50.9050330  63.6310084  70.9003578  51.3836204  63.5933027  72.1870642
  51.9291738  64.3520603  72.4067412  50.0815939  62.6178432  70.4238096
  49.8285576  61.7687341  71.0587009  49.5775940  62.6921050  69.1232519
  48.9468594  61.8915983  68.7366475  48.4487127  65.4827279  65.2081660
  49.3366300  66.2726363  64.9467366  47.5356423  65.0749115  64.2962043
  46.8451647  64.3945646  64.5798734  47.5009189  65.5661288  62.9156414
  48.4977346  65.4850701  62.4821820  46.5160156  64.7568645  62.0432476
  45.6657245  64.5070434  62.6778291  46.1884215  65.4189897  61.2417663
  47.0899727  63.4893720  61.4472567  47.8421907  63.7525079  60.7035978
  47.5528178  62.8997085  62.2385679  45.9843642  62.6722997  60.7848779
  45.1867397  62.5420996  61.5162752  45.6100918  63.2482699  59.9385458
  46.4521048  61.3203270  60.3052619  47.1453394  61.4670424  59.4770102
  46.9674358  60.8206689  61.1255515  45.3115773  60.4820543  59.8535041
  44.8341848  60.9446706  59.0931212  45.6559876  59.5860641  59.5393656
  44.6693063  60.3456283  60.6209511  47.0679400  67.0262635  62.8944094
  47.5971357  67.8147326  62.1002045  46.0503632  67.3612529  63.7150547
  45.5916282  66.6125983  64.2142319  45.5101305  68.7082271  63.8413805
  45.3896599  69.2104706  62.8815172  44.1299379  68.6560270  64.5797086
  44.2661900  68.0875107  65.4996679  43.5790752  70.0508446  64.9166360
  43.4421123  70.6198301  63.9970723  42.6212611  69.9502159  65.4270934
  44.2826485  70.5730404  65.5650150  43.0903197  67.8529047  63.7634803
  42.4863720  68.5821011  63.2234614  43.6519076  67.2482984  63.0513218
  42.1782922  66.9492802  64.5898880  41.6159968  67.5532744  65.3020079
  41.4853379  66.4290910  63.9285887  42.7815331  66.2194726  65.1298704
  46.5614869  69.6265190  64.5477172  46.7661646  70.7602060  64.1089748
  47.2380484  69.1189924  65.5977792  47.0103957  68.1834932  65.9029265
  48.1880998  69.8970018  66.3946648  47.8652799  70.9374373  66.4318199
  48.2771157  69.3577199  67.8342287  48.5697396  68.3233979  67.6535396
  49.0675548  69.8674545  68.3851160  46.9809369  69.3862948  68.6559300
  46.1620872  69.0231783  68.0348564  47.1039320  68.5295209  69.8630412
  47.9223387  68.8923233  70.4848801  46.1739538  68.5647062  70.4304947
  47.3058899  67.5019143  69.5608192  46.5555310  70.8096718  68.9961680
  46.3884631  71.3693146  68.0758486  45.6341531  70.7848017  69.5780145
  47.3392946  71.2943447  69.5783241  49.5884153  70.0302953  65.7978462
  50.3837026  70.8367374  66.2885020  49.8934747  69.2789871  64.7424786
  49.2543245  68.5617943  64.4306758  51.2087445  69.3547091  64.1138671
  51.9775382  69.2202939  64.8747798  51.3883871  68.2731881  63.0382734
  50.5749021  67.5566675  63.1520257  51.3104660  68.7591848  62.0657327
  52.7453445  67.5332630  63.1380210  52.6990705  66.6144242  62.5534744
  53.4828759  68.2054785  62.6995284  53.1840339  67.1870519  64.5552671
  54.0000698  67.9073704  65.1823275  52.6199959  66.1091655  65.1053397
  52.8738173  65.8332092  66.0431693  51.9420688  65.5746519  64.5811151
  51.5235864  70.7545103  63.5881701  50.6506930  71.4289149  63.0090874
  52.7422003  71.2073739  63.9141328  53.3523495  70.6089796  64.4524093
  53.2316092  72.5266849  63.5280196  54.1443669  72.3839606  62.9495714
  52.4716851  72.9894756  62.8983851  53.5267618  73.4406669  64.6949929
  54.3687183  74.3353388  64.5834209  52.8282598  73.2112985  65.8039722
  52.1350750  72.4769039  65.7878832  53.0093752  73.9595462  67.0340700
  52.9511168  75.0301954  66.8380716  52.2469365  73.6819247  67.7618837
  54.3616607  73.6395216  67.5977925  54.8933926  72.5563070  67.3420966
  54.9568353  74.5730605  68.3294013  54.6082036  75.5167157  68.4192347
  56.2523763  74.2490984  68.9379630  56.8349722  73.5517037  68.3360313
  57.1161815  75.5135469  69.2089088  58.1552097  75.2038053  69.3210679
  57.0059044  76.5296581  68.0609659  55.9671593  76.8402380  67.9484945
  57.6226117  77.4000528  68.2849876  57.3496252  76.0703002  67.1341715
  56.7699212  76.1510415  70.5286870  56.9439037  75.4375684  71.3341609
  57.3941929  77.0312244  70.6825137  55.7206981  76.4463791  70.5259496
  55.8932016  73.4163887  70.1992061  54.7716357  73.5510447  70.7342610
  56.7549182  72.5177146  70.6303317  57.6530971  72.3292323  70.2086107
  56.3670311  71.7454989  71.8062455  57.2611574  71.2342034  72.1629165
  56.0309494  72.4572412  72.5602823  55.2716214  70.7198867  71.5716542
  54.7310302  70.1803313  72.5277144  54.9331762  70.4325585  70.3027561
  55.3308242  71.0150544  69.5797942  53.9764055  69.3915865  69.9097214
  53.5427455  68.9499232  70.8069235  52.8382022  69.9223505  68.9911922
  53.2766740  70.2868492  68.0622231  51.8378228  68.8209795  68.6809116
  51.3985579  68.4562712  69.6094237  51.0510548  69.2147664  68.0374609
  52.3454026  68.0009173  68.1730141  52.1182766  71.1018802  69.6533023
  52.8595802  71.8895944  69.7877494  51.3536820  71.4388513  68.9533417
  51.4669757  70.7768514  71.0043191  52.2310723  70.4402296  71.7049917
  50.9814224  71.6696505  71.3983329  50.7251752  69.9894843  70.8705841
  54.8523745  68.3131639  69.2454195  55.4792674  68.6394459  68.2370478
  54.9998700  67.0702076  69.8162047  54.4396834  66.5153982  70.9698157
  53.3804898  66.7726354  70.9759947  54.9301124  66.9768244  71.8269412
  54.6744564  65.0229298  70.9057778  53.8622169  64.5251238  70.3761030
  54.7663148  64.6020953  71.9070578  55.9974919  64.9058277  70.1393274
  56.1436263  63.9770814  69.5878077  56.8406675  65.0651740  70.8114608
  55.8805667  66.0702497  69.1688126  56.8678265  66.5258515  69.0923705
  55.4243917  65.6067181  67.7824876  54.2328154  65.6193123  67.4401541
  56.4008862  65.2164930  66.9858687  57.3508206  65.3244762  67.3115428
  56.1886683  64.7261002  65.6442699  55.3449546  65.2405949  65.1843332
  57.4506327  64.9852325  64.7898594  57.6421639  66.0565335  64.7287923
  58.3078511  64.4887497  65.2445916  57.3637621  64.4878050  63.3900321
  56.6212245  65.1575215  62.4273007  56.7628740  64.4511404  61.3141770
  56.2515700  64.8112248  60.4214249  57.5412599  63.3831302  61.5074451
  57.8112368  62.6833551  60.8310375  57.9275887  63.3950235  62.8267595
  58.5720890  62.6054076  63.2130591  55.8005200  63.2319893  65.7057721
  56.3790554  62.4514123  66.4795002  54.8019173  62.8593882  64.8913403
  54.3100332  63.5879229  64.3939606  54.3216387  61.4889386  64.7624511
  54.7113451  60.8135352  65.5240667  52.7649919  61.4330684  64.7668382
  52.4034902  62.1158486  63.9979247  52.2228997  60.0232177  64.4945313
  52.5836240  59.3399195  65.2633501  51.1331833  60.0432693  64.5092537
  52.5663631  59.6837933  63.5173296  52.1885904  62.0306545  66.0692565
  52.4911912  63.0776680  66.0520407  51.1071374  61.9635493  65.9506993
  52.6031686  61.3915943  67.4328829  53.6845166  61.4587468  67.5523693
  52.1142454  61.9248128  68.2481935  52.3004646  60.3446268  67.4510269
  54.9334481  60.8758701  63.5147007  54.7972135  61.4430875  62.4279668
  55.6147743  59.7258371  63.6748375  55.6829914  59.3406156  64.6059927
  56.2612882  59.0071837  62.5785743  56.6697988  59.7273827  61.8696796
  57.4099135  58.1063476  63.0843445  56.9267118  57.3089130  63.6488916
  57.8686263  57.6895410  62.1877092  58.4671959  58.7506808  63.9337388
  57.9588183  59.2874601  64.7346888  59.0736003  57.9516950  64.3603504
  59.3566256  59.7061442  63.1730506  59.6802104  59.2448277  62.2400024
  58.8099194  60.6232913  62.9538407  60.5404435  60.0437220  63.9644458
  61.4080164  59.5816424  63.7322841  60.5388282  60.9283571  64.9558242
  59.4247630  61.5659096  65.2886841  58.5695486  61.3783851  64.7851536
  59.4365732  62.2360952  66.0442047  61.6566524  61.1712079  65.6329494
  62.5062743  60.6814102  65.3914109  61.6512204  61.8444067  66.3858588
  55.2977175  58.1202943  61.8404798  55.4093007  58.0104808  60.6244961
  54.4463984  57.3783892  62.5775154  54.4233486  57.5272244  63.5762226
  53.5507067  56.3724378  62.0050791  53.0520722  56.7646460  61.1187183
  54.3822188  55.1296817  61.5965195  55.2311461  55.3712484  60.9569359
  54.7437770  54.7263508  62.5424053  53.6330543  54.0214457  60.9154479
  53.2669391  53.9693190  59.6012986  53.5045168  54.8384687  58.9879183
  52.6485070  52.7707872  59.3305789  52.2907336  52.4890418  58.4290706
  52.6184248  52.0097910  60.4743262  52.1023246  50.7267348  60.6991999
  51.6166979  50.2097959  59.8715287  52.2431477  50.1948725  61.9655444
  51.8616338  49.1953350  62.1740438  52.8654025  50.9094194  62.9910124
  52.9627231  50.4844918  63.9900443  53.3785393  52.1809332  62.7704964
  53.8307636  52.7036820  63.6133057  53.2595867  52.7515894  61.4882235
  52.4905806  55.9372638  63.0070858  52.7683787  55.7603721  64.1963606
  51.2751162  55.7470029  62.5056669  51.0868128  56.0965029  61.5769629
  50.1822661  55.1617920  63.2534609  50.6003415  54.7406511  64.1677653
  49.0464174  56.1434023  63.6349079  49.5360555  56.8222772  64.3331074
  48.6493289  56.7120636  62.7940482  47.9127472  55.4260236  64.3394423
  48.0033209  55.0992071  65.6895076  48.8551186  55.4681258  66.2608560
  47.0341203  54.3182975  66.3114493  47.1247408  54.0621584  67.3670451
  45.9450445  53.8743674  65.5829756  44.9737449  53.1256194  66.1831177
  45.1452828  52.9651645  67.1139392  45.8362360  54.1770116  64.2404727
  44.9863649  53.8137798  63.6626472  46.8157650  54.9481053  63.6259451
  46.7341489  55.1895132  62.5661521  49.6672890  53.9897593  62.4396631
  49.4430217  54.1138049  61.2257559  49.4983638  52.8611853  63.1051248
  49.7195916  52.7997100  64.0886787  48.9899641  51.6785092  62.4401774
  48.0267488  51.9175823  61.9894452  49.6930532  51.3864310  61.6601419
  48.8132281  50.5360778  63.3885665  48.7948372  50.7295530  64.5976270
  48.6861718  49.3456482  62.8327571  48.7016490  49.2991432  61.8239474
  48.4955888  48.1063711  63.5796911  48.4582240  48.3297763  64.6458962
  47.1789133  47.3992964  63.1759747  47.2064561  47.2883886  62.0919821
  47.2005788  46.4142455  63.6421350  45.8928332  48.1283924  63.5822421
  45.0625942  47.4335015  63.4560251  45.9739556  48.4098765  64.6321411
  45.6100416  49.3727749  62.7683275  45.6329715  49.3618975  61.5328956
  45.3443566  50.4780517  63.4485765  45.1485053  51.3367929  62.9543020
  45.3388709  50.4568844  64.4583405  49.6664324  47.1857590  63.3283079
  50.2370469  47.1931459  62.2344279  50.0295880  46.4050106  64.3484432
  49.5501145  46.5775572  65.2204708  51.0693014  45.3893200  64.3228607
  51.1032846  44.9420430  63.3294385  52.4625858  45.9729910  64.6496186
  52.6866325  46.7057662  63.8744135  52.3746784  46.4778897  65.6116215
  53.5888578  44.9424169  64.7166812  54.4560489  45.4342704  65.1573176
  53.1690684  44.2365051  65.4333154  54.0140235  44.1954358  63.4575055
  53.7557016  44.6955178  62.3366465  54.6896951  43.1491496  63.6035839
  50.6255856  44.3388859  65.3310763  50.5416700  44.6323019  66.5278337
  50.2986982  43.1253950  64.8295691  50.3291770  43.0458766  63.8231660
  49.7879870  41.9862734  65.6027482  49.5942315  41.1604277  64.9182507
  50.7853282  41.5013335  66.6990077  50.8282670  42.2930481  67.4469672
  50.3447876  40.6078243  67.1413483  52.2028864  41.1832944  66.2101826
  52.5389681  42.0536660  65.6466196  52.8195373  41.0679792  67.1015557
  52.3282975  39.9310582  65.3376365  52.1293499  39.0688486  65.9741216
  51.5633907  39.9949183  64.5637250  53.6977308  39.7762597  64.6864737
  53.6874028  38.8372884  64.1330056  53.8196370  40.6062885  63.9905641
  54.8365546  39.7694675  65.6593375  54.7240110  39.0001595  66.3040071
  55.7069776  39.6640350  65.1579916  54.8465613  40.6396277  66.1719974
  48.3964759  42.3666445  66.1580434  47.5733835  42.8823337  65.3895504
  48.1439505  42.1724800  67.4696444  48.8123746  41.6630074  68.0297749
  46.8611897  42.5362471  68.0783219  46.1212180  42.7124153  67.2976133
  46.3494221  41.4010869  68.9978163  46.3980816  40.4902232  68.4011098
  47.0330187  41.3182494  69.8427623  44.9249672  41.5962479  69.5130876
  43.9746704  41.5449279  68.6866155  44.7618881  41.8267235  70.7382816
  46.9364610  43.9167411  68.7856695  46.2100887  44.1764829  69.7447876
  47.7941605  44.8161594  68.2682469  48.3230693  44.5495934  67.4501409
  47.9931596  46.1553556  68.8151828  47.2916463  46.3274233  69.6314983
  49.4188481  46.3124431  69.3535664  50.0455666  46.0480296  68.5018571
  49.5954153  47.3533204  69.6246724  49.7590710  45.4261511  70.5202951
  49.5345913  45.8462007  71.8249349  49.0799907  46.8230404  71.9899259
  49.8781090  45.0464102  72.9104747  49.6881565  45.3908649  73.9270232
  50.4662135  43.8114162  72.6965776  50.7986068  43.0007608  73.7636729
  50.5785377  43.3899322  74.6132109  50.7195683  43.3844559  71.4024485
  51.1834398  42.4140324  71.2258080  50.3796445  44.1992789  70.3268136
  50.6001061  43.8781415  69.3087922  47.8005380  47.2530059  67.8058788
  48.0196072  47.0560121  66.6140478  47.4422258  48.4333013  68.3191596
  47.2007445  48.3921113  69.2990011  47.3903597  49.7198731  67.6517218
  47.3297213  49.5634458  66.5747108  46.1729810  50.5392752  68.0972184
  46.1428153  50.5366130  69.1867973  46.2831157  51.5631076  67.7398145
  44.8727218  49.9860742  67.5787006  44.7495096  49.6169126  66.3972953
  43.8678159  49.9276933  68.4503089  42.9711396  49.5654341  68.1590365
  44.0068521  50.2459356  69.3987242  48.6942457  50.3663474  68.1207530
  49.0694082  50.2259373  69.2952538  49.4218327  51.0022400  67.1869796
  49.0225045  51.0790727  66.2624619  50.7606997  51.5469178  67.4115403
  51.0695411  51.5577211  68.4568151  51.8095314  50.7256543  66.5883276
  51.6128991  50.8770163  65.5269491  53.2267030  51.1632246  66.9071506
  53.4242432  51.0117189  67.9683408  53.9304195  50.5738482  66.3193419
  53.3451218  52.2189476  66.6631677  51.6579063  49.2189216  66.7760973
  50.6641555  48.9100260  66.4518368  52.4107519  48.7006593  66.1821887
  51.7903464  48.9682670  67.8285861  50.8540833  53.0100255  67.0357952
  50.5124400  53.3792889  65.9147326  51.3972713  53.8239757  67.9442400
  51.5659077  53.4774586  68.8778282  51.6739014  55.2261085  67.6681434
  51.4557828  55.4152885  66.6170800  50.8321005  56.2172406  68.5400577
  49.7998785  55.8895999  68.4164925  51.1458808  56.0472781  69.5699872
  50.9373446  57.7319651  68.2101933  51.9924071  57.9988227  68.1491107
  50.2582386  58.0644262  66.9039779  49.2029684  57.7982576  66.9644582
  50.3523424  59.1322353  66.7064204  50.7282566  57.5032295  66.0963629
  50.3047510  58.5834409  69.2893259  50.8098927  58.4028056  70.2381685
  50.3979655  59.6363771  69.0233603  49.2500658  58.3253618  69.3848947
  53.1766602  55.4188583  67.8584101  53.6912887  55.2620283  68.9715870
  53.8847459  55.6922151  66.7444134  53.4006371  55.6342553  65.8598916
  55.3244497  55.9507142  66.7313722  55.7765164  55.6688037  67.6822988
  56.0859338  55.2268831  65.5852985  55.7747190  55.6532671  64.6316522
  57.5971399  55.3930743  65.7485970  57.9091933  54.9664825  66.7018772
  58.1097006  54.8786285  64.9357455  57.8513315  56.4527532  65.7247438
  55.7061436  53.7421658  65.5226964  54.6351084  53.6478090  65.3435805
  56.2533399  53.2604813  64.7123534  55.9596967  53.2615865  66.4676065
  55.5128895  57.4669753  66.7010443  54.9422544  58.1572704  65.8500583
  56.2858040  57.9831014  67.6574845  56.6972730  57.3576183  68.3353956
  56.5204834  59.4093376  67.8047556  56.4492424  59.9055482  66.8368719
  55.4597225  60.0124651  68.7467974  55.7498740  61.0465739  68.9326204
  54.5103317  59.9925818  68.2116697  55.3064897  59.2682156  70.0983052
  54.9623907  58.2549414  69.8910082  56.2849526  59.2282986  70.5769690
  54.1266473  60.0831335  71.2167483  55.1431291  61.4303987  71.8648124
  55.4731718  62.0651860  71.0424889  54.5571914  62.0226054  72.5677128
  56.0127591  61.0168572  72.3755259  57.9134517  59.7289516  68.3275332
  58.6795299  58.8205305  68.6595413  58.1958265  61.0403677  68.4676980
  57.4569903  61.6764619  68.2038711  59.4352554  61.6025200  69.0130775
  60.2624819  61.3902872  68.3357646  59.3157425  63.1476295  69.1847817
  58.3124340  63.2059324  69.6067676  60.0400797  63.4941160  69.9219267
  59.3955769  64.0243740  67.9454466  60.0110447  63.5811800  66.9355790
  58.9533803  65.2226295  68.0258627  59.6992845  61.0468426  70.3960502
  58.7878128  61.0207112  71.2190371  60.9433803  60.6372520  70.6622682
  61.6298844  60.6195097  69.9216626  61.3624821  60.2452190  72.0031097
  60.5707910  59.6606437  72.4717206  62.6296865  59.4060723  71.9671794
  62.4269715  58.5677208  71.3007167  63.4039974  60.0372384  71.5310922
  63.0966787  58.8875473  73.2942265  63.1048216  59.7077883  74.0120281
  62.1810030  57.7977240  73.7878855  62.1726969  56.9768763  73.0707810
  62.5356048  57.4335538  74.7521149  61.1712925  58.1931571  73.8984195
  64.4535764  58.3387921  73.1700922  65.1329629  59.1212273  72.8319670
  64.7846940  57.9644569  74.1387694  64.4513825  57.5229127  72.4472955
  61.6505739  61.5684362  72.7415662  62.4467120  62.3938018  72.2677024
  60.9520501  61.7963660  73.8540546  60.2545067  61.1276121  74.1478245
  61.1284768  63.0079348  74.6504294  61.7644679  63.7137738  74.1161955
  59.7580488  63.6800236  74.9171812  59.2381578  62.9236307  75.5051287
  59.9255084  64.5649741  75.5311192  58.9059319  64.0561097  73.7020322
  58.8287155  63.1899210  73.0448750  57.5474105  64.4806858  74.1219331
  57.6237908  65.3471759  74.7787890  56.9600029  64.7430739  73.2420435
  57.0591611  63.6641091  74.6538310  59.5656392  65.1412001  72.8489670
  60.5305286  64.7843603  72.4887542  58.9249590  65.3752976  71.9987738
  59.7121415  66.0381700  73.4506986  61.8187936  62.6332201  75.9540082
  61.8790631  61.4497532  76.3061369  62.3205018  63.6374190  76.6566136
  62.2198179  64.5633890  76.2660477  62.9978458  63.4986941  77.9359738
  63.7082087  62.6763464  77.8509565  63.5373786  64.4254858  78.1310657
  62.0644106  63.2233273  79.0862272  60.9598447  62.7023377  78.8854759
  62.5187531  63.5115458  80.3295907  63.8888001  63.5239282  80.7414972
  64.2024587  64.5599975  80.8690864  64.4891848  63.0565894  79.9609642
  63.9192132  62.7443001  82.0367509  64.7658590  63.0484277  82.6522152
  63.9779934  61.6733532  81.8425375  62.5852590  63.1078863  82.7003210
  62.5925910  64.0593591  83.2320587  62.2398182  62.3205111  83.3702542
  61.6689629  63.1988775  81.4911630  61.2459722  62.2069212  81.3324187
  60.5439467  64.2017282  81.6996432  60.6183633  65.3405014  81.2225060
  59.5022391  63.7710768  82.4253053  59.4643392  62.8129711  82.7426325
  58.3977893  64.6467589  82.7535986  58.1365877  65.2554805  81.8879595
  57.1817246  63.8309561  83.1581499  56.2971433  64.4636280  83.0850648
  57.0830277  62.9887683  82.4732568  57.3081756  63.3502665  84.4793560
  56.5288264  62.8393368  84.7099323  58.8089152  65.5871714  83.9074347
  59.8342127  65.3557288  84.5642005  57.9646251  66.6023707  84.1752226
  57.1876858  66.7445434  83.5457374  58.1634992  67.5600175  85.2533148
  59.1790476  67.9521005  85.1982560  57.1801152  68.7330959  85.1675012
  56.2215323  68.2225276  85.0750995  57.2026113  69.2966144  86.1002609
  57.3622874  69.6876110  83.9930945  57.2326640  69.1341293  83.0630641
  56.3398209  70.8167930  84.0588548  56.4691343  71.3710535  84.9884634
  56.4846837  71.4885465  83.2127681  55.3336645  70.3991551  84.0224114
  58.7935077  70.2278710  83.9176530  59.4896853  69.3980882  83.7956012
  58.8827274  70.9043475  83.0676408  59.0280859  70.7661992  84.8359529
  58.0870009  66.8894628  86.6034498  58.7984895  67.3081266  87.5009161
  57.2982433  65.7945998  86.7253368  56.7109652  65.5517092  85.9403477
  57.1946936  64.9983033  87.9346769  57.0805670  65.6532367  88.7984689
  55.9891047  64.0722560  87.8638700  55.1221132  64.6959176  87.6459910
  56.1623171  63.3885984  87.0327805  55.7300975  63.2657817  89.1438526
  54.9360796  62.5562599  88.9110110  56.6716195  62.7299554  89.2643756
  55.3934550  63.9978958  90.4373884  54.9955169  65.1838914  90.3908207
  55.4716464  63.3490407  91.5043164  58.5014929  64.2115758  88.1517219
  58.9507451  64.0856890  89.2909273  59.1270306  63.7166607  87.0683865
  58.6892236  63.8348911  86.1659199  60.4046188  62.9940743  87.1334656
  60.3254491  62.1925555  87.8679035  60.7833963  62.3785130  85.7711250
  60.7842617  63.2322785  85.0934946  61.7924498  61.9730033  85.8451045
  59.8477634  61.3108890  85.2374210  59.1412495  60.6671604  86.0594378
  59.8604210  61.0726124  84.0017155  61.4986125  63.9528647  87.5719536
  62.3092352  63.6084386  88.4317452  61.4916142  65.1691791  87.0052621
  60.8389305  65.3418729  86.2540762  62.4725660  66.2000866  87.3187796
  63.4621439  65.7477130  87.3835314  62.5028430  67.2912450  86.2458198
  61.4709830  67.6377671  86.1884899  63.1423773  68.1092428  86.5774453
  62.9563799  66.8179691  84.8705983  62.5422518  65.8258218  84.6910360
  62.4994284  67.7479592  83.7994412  62.9135581  68.7402715  83.9780798
  62.8392239  67.3820368  82.8305549  61.4108195  67.8027183  83.8051468
  64.4392528  66.6539474  84.8116588  64.7535426  65.9174883  85.5512191
  64.7286156  66.3153777  83.8168016  64.9196882  67.6090643  85.0238675
  62.2683697  66.7606727  88.7175634  63.2564038  67.0656200  89.3894390
  60.9894329  66.8395203  89.1698849  60.2501147  66.6489449  88.5086824
  60.6176742  67.2943187  90.5221737  61.1039157  68.2479792  90.7276003
  59.0902119  67.4797258  90.6579211  58.6552608  67.9966267  89.8025088
  58.7170825  66.4561284  90.6914282  58.5619779  68.1759726  91.9012550
  58.8512743  69.5148920  92.1462847  59.5104033  70.0522560  91.4644573
  58.3066291  70.1702073  93.2521403  58.5783788  71.2046984  93.4620950
  57.4222784  69.5062540  94.0809388  56.9846877  70.0234253  94.9348405
  57.0943614  68.1954898  93.8296053  56.3799156  67.6808207  94.4720873
  57.6722128  67.5267066  92.7583901  57.4328988  66.4789043  92.5768989
  61.2029544  66.3115218  91.5421042  61.8955424  66.7518882  92.4578123
  61.0332915  64.9864668  91.2983488  60.4132119  64.7559366  90.5351604
  61.6003640  63.8828325  92.0966652  61.2868423  63.9844764  93.1356416
  61.1220250  62.5282595  91.5721522  61.2495624  62.5725997  90.4905481
  61.7319257  61.7204498  91.9765834  59.6650586  62.2349561  91.8768896
  59.0996115  62.6571560  92.9094548  59.0402195  61.4424428  91.0123830
  58.0685982  61.2081596  91.1578589  59.5398059  61.0780225  90.2138143
  63.1389198  63.9413439  92.1406697  63.7145395  63.9073918  93.2215032
  63.7815508  64.1000185  90.9792422  63.1937798  64.0729624  90.1583326
  65.2248507  64.2634954  90.7945186  65.7544166  63.3677425  91.1189964
  65.5212344  64.4967665  89.2952847  65.1642343  63.6490722  88.7104218
  65.0096713  65.4028122  88.9705009  66.9757112  64.6761232  88.9502491
  67.8270248  63.5809309  88.8659299  67.4258847  62.5786588  89.0163868
  69.1864539  63.7557105  88.5910013  69.8501088  62.8916160  88.5593222
  69.6888770  65.0210545  88.3597080  70.7490989  65.1579025  88.1468652
  68.8493752  66.1092688  88.3982365  69.2411728  67.1060843  88.1958666
  67.4954010  65.9382254  88.6964092  66.8318274  66.8022249  88.7321149
  65.7568963  65.4339206  91.6383843  66.8338795  65.3282854  92.2240792
  64.9762187  66.5324051  91.7218599  64.1647691  66.5293895  91.1204950
  65.2650911  67.7466005  92.4949520  66.3424394  67.8604292  92.6152137
  64.7247471  68.9717147  91.7807142  63.6533460  68.8764735  91.6042827
  64.9182474  69.8747513  92.3596637  65.4745093  69.2434922  90.1660544
  64.7824161  70.3411407  89.8743816  64.7783850  67.6840140  93.9412030
  64.6596324  68.7281078  94.5980956  64.5225803  66.4631358  94.4398597
  64.5603846  65.7000425  93.7792852  64.0576927  66.1824315  95.7973102
  63.7576089  65.1367997  95.8658891  65.1541296  66.4456239  96.8327492
  65.3074687  67.5220043  96.9101550  64.8232469  66.0561207  97.7955077
  66.3718911  65.8204492  96.4636697  67.0393742  66.0020001  97.1293313
  62.7458398  66.9078330  96.1482683  62.6448838  67.4551472  97.2528017
  61.7304696  66.8753775  95.2146067  61.9770761  66.4966983  94.3113423
  60.3774420  67.4296086  95.3937413  59.8137197  67.4187797  94.4608967
  59.6535556  66.5272023  96.4187878  59.7420893  65.5291980  95.9895462
  60.2794589  66.5963248  97.3084885  58.1904407  66.7914995  96.8010607
  58.1563582  67.4628894  97.6590669  57.6741482  67.2524094  95.9589763
  57.5004753  65.4644370  97.1610580  58.0730389  64.9345608  97.9223077
  56.4916571  65.6502351  97.5296559  57.4158660  64.6232003  95.9685182
  58.1651281  63.9671486  95.8002865  56.4187628  64.6873123  95.0896475
  55.3615073  65.4635340  95.3245047  55.3165530  66.0066574  96.1748552
  54.6099184  65.5052192  94.6510983  56.4600266  63.9659457  93.9798613
  57.2519101  63.3651216  93.8008895  55.6994254  64.0199256  93.3175390
  60.4462111  68.9391532  95.8042091  59.7014231  69.4248689  96.6496711
  61.3667406  69.6643786  95.1914542  61.9860004  69.1896623  94.5501579
  61.6107010  71.0684430  95.4721880  60.6773264  71.5759972  95.7157035
  62.5771417  71.1870188  96.6943165  61.9258031  71.1943134  97.5682754
  63.1590378  70.2654045  96.6831793  63.5369481  72.4031086  96.7553595
  64.2423851  72.2020508  97.5616071  64.0696054  72.4266108  95.8046619
  62.8579361  73.7616411  96.9957718  62.0666869  73.8895916  96.2570890
  62.4240632  73.7605409  97.9956980  63.7903843  74.8933383  96.8881066
  64.7755894  74.6733823  96.8550955  63.4231053  76.1732371  96.8472144
  62.1363849  76.5055169  96.8816908  61.4328083  75.7831820  96.9392434
  61.8682868  77.4787741  96.8501713  64.3382518  77.1286774  96.7556784
  65.3173615  76.8838534  96.7168781  64.0518915  78.0967513  96.7251894
  62.1232296  71.7828368  94.2024065  63.1138809  71.3422524  93.6039857
  61.3871307  72.8418993  93.7691098  60.5106127  72.9991798  94.2456373
  61.7466954  73.7366329  92.6533724  62.7294367  73.4336556  92.2920922
  60.7592191  73.7242162  91.4663545  59.7688338  73.8081430  91.9137832
  60.9498523  74.5963007  90.8408726  60.7160534  72.5320663  90.5430885
  61.7936491  71.6533132  90.4566618  62.6693839  71.8142208  91.0853884
  61.7575924  70.5715437  89.5719785  62.6037048  69.8867248  89.5152539
  60.6497713  70.3698347  88.7692178  60.6271021  69.5289768  88.0760049
  59.5773575  71.2284109  88.8445069  58.7000458  71.0607972  88.2197429
  59.6127686  72.3117082  89.7190290  58.7703683  73.0018064  89.7662132
  61.8583132  75.1783953  93.1569184  61.0132456  75.6298985  93.9585340
  62.8828349  75.9127308  92.6397021  63.5503390  75.4448191  92.0433831
  63.1203693  77.3103390  92.9795123  62.8831925  77.5524759  94.0154737
  64.5673059  77.7608013  92.6865429  64.6375460  78.8257668  92.9079364
  65.5734149  77.0192331  93.4940826  65.5040884  75.9541707  93.2728689
  66.5731166  77.3767263  93.2473149  65.3810625  77.1828288  94.5544305
  64.8795771  77.6993319  91.2843895  65.7850160  77.9864606  91.1453287
  62.1120436  78.1472298  92.2540559  61.5528098  77.6974378  91.2489396
  61.8736558  79.3703223  92.7529646  62.2650472  79.6321722  93.6464671
  60.9497882  80.2868327  92.1115650  59.9716998  79.8167197  92.0094081
  60.7967230  81.5533634  92.9457978  60.5774338  81.2407432  93.9667190
  61.7558473  82.0707171  92.9228705  59.7013314  82.4929187  92.4562450
  59.5944419  83.2721497  93.2108803  60.0583182  82.9351328  91.5261325
  58.0979699  81.7228055  92.1688312  57.6922714  81.2010321  93.9023699
  57.6565643  82.0788060  94.5476117  56.7233222  80.7019491  93.9147883
  58.4582356  80.5153521  94.2646445  61.3695150  80.5611626  90.6498368
  60.4935245  80.6348691  89.7786887  62.7049246  80.5736561  90.3619738
  63.3454648  80.5465256  91.1424041  63.2593514  80.7459987  89.0103932
  62.8322333  81.6417146  88.5594361  64.7975662  80.8922943  89.0377001
  65.0465415  81.7078431  89.7166632  65.2179015  79.9616658  89.4189465
  65.3778954  81.1842470  87.6593523  64.9281442  80.4809954  86.9584516
  65.0884919  82.2000423  87.3900800  66.8534350  81.0604201  87.6043634
  67.3073539  81.8407807  88.2151776  67.1512428  80.0831089  87.9841958
  67.3200585  81.2080387  86.1656778  67.1771639  80.2528078  85.6604891
  66.7059782  81.9687857  85.6837353  68.7540599  81.6029030  86.0840435
  69.3232897  80.8978974  86.5301874  69.0245238  81.6902995  85.1148629
  68.8866061  82.4882258  86.5517336  62.8183724  79.6173267  88.0492179
  62.4217692  79.9110845  86.9225582  62.8862374  78.3426891  88.4895068
  63.3843349  78.1697274  89.3509488  62.4420341  77.1894624  87.6995292
  62.8555871  77.3062612  86.6978151  62.9479340  75.8582877  88.2890963
  62.7258866  75.8615077  89.3562349  62.2995248  74.6324930  87.6364026
  62.5215393  74.6283375  86.5692607  62.6952277  73.7252025  88.0928480
  61.2200104  74.6709316  87.7822505  64.3465541  75.7807823  88.0245275
  64.6944950  74.9598203  88.3802785  60.9239859  77.2543567  87.4763420
  60.4778114  77.2374257  86.3409572  60.1529763  77.4087020  88.5291301
  60.5753585  77.3364872  89.4437216  58.6885354  77.5099010  88.4436100
  58.2405638  76.6590272  87.9303514  58.0287888  77.6444711  89.8616083
  58.5027717  78.4794986  90.3775236  56.5159550  77.8875288  89.7781517
  56.0411886  77.0526381  89.2627341  56.1052446  77.9737251  90.7841277
  56.3252957  78.8091205  89.2282249  58.3305101  76.4248392  90.7094356
  59.4090200  76.3237565  90.8306821  57.8643733  76.5377643  91.6882430
  57.9354277  75.5346609  90.2199529  58.2666066  78.6184596  87.4598641
  57.3855718  78.3830998  86.6079143  58.9126748  79.7993239  87.5467629
  59.5453243  79.9838450  88.3121425  58.5772102  80.9059460  86.6366526
  57.4940227  80.9640964  86.5297763  59.0884863  82.2461503  87.1578967
  60.1199560  81.9556288  87.3573127  59.0748053  83.0653481  86.4389893
  58.4159252  82.7066929  88.4798706  58.3970450  81.8589867  89.1648076
  59.1650215  83.8730673  89.1319953  59.1839167  84.7213619  88.4477892
  58.6585803  84.1611659  90.0531996  60.1863210  83.5677486  89.3596538
  56.9205315  82.9155805  88.3127166  56.4550701  81.9804138  88.0014157
  56.4898340  83.2371845  89.2609634  56.7422001  83.6792356  87.5556646
  58.9941019  80.6675283  85.1804822  58.2026520  81.0011902  84.2944315
  60.1906031  80.0673012  84.9185596  60.8119477  79.8594300  85.6872076
  60.6297229  79.7225856  83.5491167  60.5682482  80.6123515  82.9225095
  62.0761860  79.1989503  83.5189241  62.1830193  78.5031754  84.3511399
  62.2036522  78.6623647  82.5787495  63.1281323  80.2809071  83.6283467
  62.8351622  81.0762655  82.9430187  63.0927658  80.6529435  84.6522804
  64.8148412  79.7571527  83.2444268  65.0984055  78.5385110  84.5210668
  64.3644545  77.7378898  84.4293034  66.1013267  78.1253994  84.4134168
  65.0025917  79.0080901  85.5000543  59.7206682  78.6500380  82.9444876
  59.4694969  78.6517373  81.7445997  59.2485687  77.7279423  83.7755968
  59.5857531  77.7333604  84.7276350  58.3617194  76.6557925  83.3663463
  58.7262006  76.2331813  82.4300491  58.2829747  75.5215450  84.4257702
  58.2062138  76.0817947  85.3576110  57.3674936  74.9511124  84.2689234
  59.4782695  74.5595899  84.5039805  60.3819716  75.1474381  84.6647841
  59.3190386  73.5508050  85.6390490  58.4157332  72.9622290  85.4786852
  60.1844517  72.8884855  85.6612692  59.2430978  74.0805341  86.5886386
  59.7068310  73.8559486  83.1942334  59.9074791  74.5921354  82.4158576
  60.5598689  73.1836853  83.2863732  58.8189984  73.2814347  82.9300629
  57.0024874  77.1997957  83.0393753  56.4397745  76.8312246  81.9982723
  56.4766307  78.0906733  83.9124576  57.0180230  78.2669131  84.7466837
  55.1577785  78.7199019  83.7939407  54.4324903  77.9104538  83.8767061
  54.9208913  79.7040737  84.9323451  55.6338237  80.5252050  84.8577070
  53.9063827  80.0974430  84.8680555  55.0527307  79.1947662  85.8869777
  54.9357565  79.3833270  82.4429028  53.8561560  79.2532400  81.8715333
  55.9728708  80.0204897  81.9097842  56.8172707  80.0357630  82.4637291
  55.9676164  80.7329631  80.6382642  55.1859386  81.4925440  80.6274942
  57.3281338  81.4251283  80.4501111  57.6561664  81.9274418  81.3601522
  57.9934911  80.5883241  80.2376059  57.3621554  82.4058257  79.2904313
  56.6413492  83.4457747  79.3589402  58.1867477  82.1990797  78.3672891
  55.6681560  79.8012803  79.4836653  54.7746404  80.0752388  78.6888127
  56.4114674  78.6701496  79.4204872  57.1868532  78.6115680  80.0650371
  56.2506545  77.6051542  78.4302221  56.1552054  78.0384482  77.4346093
  57.4551331  76.6791424  78.4432809  57.6471980  76.3993684  79.4791075
  57.1958111  75.7895395  77.8692959  58.7018241  77.3181221  77.8516530
  58.4189793  77.8452363  76.9404723  59.1393475  78.0236412  78.5579944
  59.7363857  76.2794879  77.5054648  59.5272788  75.4329494  76.6217748
  60.8659039  76.3120036  78.2188170  61.5968242  75.6403639  78.0323844
  60.9835209  77.0080712  78.9411448  54.9445393  76.8151507  78.5800338
  54.3584337  76.4936351  77.5751462  54.4840892  76.5362651  79.8016644
  55.0982313  76.7633564  80.5706627  53.2336661  75.8307314  80.0960557
  53.1755647  74.9196125  79.5005845  53.1655505  75.4507611  81.5822511
  53.3717157  76.3554661  82.1541811  52.1464892  75.1195574  81.7820464
  54.1518274  74.3486538  81.9952478  53.9221324  73.4827580  81.3743086
  55.1468097  74.7187487  81.7479784  54.1151113  73.8552558  83.7475977
  54.9712284  75.0104851  84.3449927  54.4896955  75.9657766  84.1360830
  55.0604355  74.8772481  85.4231350  55.9637309  74.9982949  83.8945579
  51.9647939  76.5974940  79.6612219  51.0063789  75.9695196  79.2154396
  51.9533133  77.9396427  79.7722225  52.7327966  78.3717162  80.2474252
  50.8388841  78.8012953  79.3286559  49.8765837  78.3803775  79.6200413
  50.9498201  80.2780530  79.8654564  51.9544022  80.6456146  79.6561390
  49.9193005  81.2007628  79.2014535  48.9143890  80.8340796  79.4107302
  50.0267642  82.2106577  79.5972623  50.0836306  81.2139704  78.1239934
  50.8197311  80.3234992  81.4073486  49.7550995  80.2116156  81.6126344
  51.3534509  79.4450528  81.7700808  51.3325498  81.5347830  82.0987548
  50.7989455  82.4136429  81.7368549  51.1780992  81.4333744  83.1729804
  52.3972971  81.6470812  81.8942991  50.8094511  78.7301102  77.8001146
  49.7441828  78.4622401  77.2308362  51.9810591  78.9183701  77.1522805
  52.7779084  79.2144731  77.6976735  52.1225033  78.8516310  75.6957269
  51.4138991  79.5400175  75.2351801  53.5254360  79.2277754  75.2487267
  54.2581091  78.5963740  75.7513416  53.6183560  79.1031300  74.1698711
  53.7585900  80.5863274  75.5897335  54.6425497  80.8385412  75.3129607
  51.6991621  77.5144090  75.1106896  50.9818323  77.5107246  74.1036651
  52.1125299  76.3813024  75.7440841  52.7639153  76.4865540  76.5087530
  51.7502376  75.0251554  75.3213979  52.0300143  74.8906168  74.2765422
  52.4623977  73.9519773  76.1632000  52.2259635  74.1992031  77.1981288
  51.9785966  73.0127998  75.8949052  54.0019123  73.8052532  76.0045534
  54.4277930  74.7170727  76.4232558  54.2809101  72.9552745  76.6272882
  54.5311999  73.5991647  74.6060370  55.4245312  72.9748097  74.6214968
  53.7747421  73.1345609  73.9735700  54.8763930  74.8894573  74.0452163
  54.1618341  75.3478490  73.4980582  56.0478969  75.4932353  74.1888154
  57.0463759  74.8792212  74.8161393  56.9109390  73.9486493  75.1846399
  57.9357635  75.3461513  74.9213327  56.2313157  76.7141973  73.7212436
  55.4747463  77.1907364  73.2515487  57.1273541  77.1660623  73.8354007
  50.2190808  74.8176890  75.3440843  49.6689092  74.3716033  74.3393432
  49.5267727  75.1817352  76.4544017  50.0787298  75.4412684  77.2594391
  48.0416149  75.1109538  76.6065148  47.6630174  74.1393485  76.2891094
  47.5865381  75.3926885  78.0773321  47.9404581  76.3836827  78.3615355
  46.0614452  75.3338685  78.2229554  45.7068080  74.3429587  77.9393522
  45.7867913  75.5348978  79.2584519  45.6049267  76.0818700  77.5747395
  48.2470863  74.4163122  79.0709092  47.7679099  73.4510345  78.9074171
  49.2956913  74.3547686  78.7798088  48.1494871  74.7920400  80.5633599
  47.1011086  74.8533220  80.8553304  48.6493799  74.0316939  81.1634267
  48.6288883  75.7570579  80.7277216  47.3721795  76.0627403  75.5800843
  46.4467805  75.6676581  74.8614482  47.9006061  77.2996209  75.4709943
  48.6445155  77.5559398  76.1042389  47.4189552  78.2977214  74.5368295
  46.4056647  78.6007675  74.8004668  48.3141486  79.5147970  74.5815572
  48.3939722  79.8668636  75.6100399  49.3042057  79.2487670  74.2112668
  47.7353265  80.6024015  73.7243002  47.6646648  80.1450873  72.7374003
  46.7339333  80.8187305  74.0964731  48.5190836  81.8773093  73.6291123
  49.5309531  82.0181594  74.3548116  48.0802921  82.7578477  72.8530716
  47.3248721  77.7785895  73.0991618  46.3044193  78.0035857  72.4210424
  48.3833688  77.0741689  72.6367611  49.2170119  76.9990923  73.2020062
  48.4158094  76.5369839  71.2852783  48.1824282  77.3286348  70.5732942
  49.7868580  75.9746467  70.9535018  50.4169126  76.8632926  70.9155705
  50.1744913  75.2868686  71.7050347  49.7895240  75.2994083  69.6059859
  49.7894547  76.0465257  68.4320513  49.8528852  77.1325769  68.4996438
  49.7100801  75.4290424  67.1842484  49.7326828  76.0259355  66.2724866
  49.5918127  74.0456605  67.1068825  49.5203186  73.3922942  65.9059337
  49.5605369  73.9862431  65.1528023  49.5531374  73.2902693  68.2642218
  49.4446540  72.2070058  68.2106300  49.6534461  73.9191414  69.5015815
  49.6261048  73.3281998  70.4170816  47.2973957  75.5250388  71.0448540
  46.5953222  75.6172408  70.0334640  47.1324536  74.5647416  71.9774618
  47.8436772  74.4995214  72.6916093  46.0799941  73.5550601  71.9554063
  46.1288370  72.9621903  71.0420504  46.1825215  72.5920278  73.1819913
  46.1486925  73.1877594  74.0941638  45.0434585  71.5846803  73.1923607
  45.0769094  70.9882232  72.2806475  45.1444793  70.9301137  74.0580615
  44.0913337  72.1126032  73.2458151  47.5096920  71.8508506  73.1819783
  48.3277404  72.5694329  73.2323609  47.5559029  71.1873470  74.0455332
  47.5984429  71.2635523  72.2680282  44.7124296  74.2637358  71.8448436
  43.8961886  73.8830857  71.0123996  44.5149358  75.3474996  72.6257810
  45.2152953  75.5320938  73.3297135  43.3179934  76.1894301  72.6002905
  42.4278660  75.5665716  72.6887200  43.3350189  77.1870454  73.7631624
  44.2836142  77.7239448  73.7654130  42.5170396  77.8962083  73.6362852
  43.1753941  76.5840367  75.1425124  43.2480439  77.3665216  76.2874160
  43.0581666  76.5458220  77.3068613  43.0617487  76.9771648  78.3078756
  42.8916426  75.2955103  76.8992628  42.7434102  74.4743819  77.4683631
  42.9566913  75.3020156  75.5195920  42.8365206  74.3720163  74.9639290
  43.1101931  76.9112716  71.2348906  41.9728764  77.0280707  70.7701470
  44.1921668  77.3396634  70.5611470  45.1136251  77.3155827  70.9739837
  44.0320284  77.9872671  69.2470024  43.1940939  78.6824510  69.1951923
  45.3029918  78.7162198  68.7901807  45.1048840  79.1413569  67.8062539
  45.7328161  79.8252351  69.7458616  45.9315618  79.4007644  70.7299472
  46.6368989  80.3018932  69.3670073  44.9374854  80.5664448  69.8243329
  46.3523143  77.7696054  68.5431008  47.1422937  78.2347239  68.2581487
  43.5500719  77.0058743  68.2044842  42.9220709  77.4117523  67.2201977
  43.8541717  75.7072192  68.4214520  44.4865716  75.5068246  69.1830370
  43.4469235  74.6066234  67.5516164  43.2760019  74.9869484  66.5445226
  44.5341067  73.5036728  67.4866725  44.7270909  73.1840782  68.5107407
  44.1133320  72.6727310  66.9204707  45.8412053  73.9499292  66.8387093
  46.1800196  74.8706877  67.3135876  46.5927872  73.1726516  66.9767898
  45.6359887  74.1890980  65.3813832  45.5928147  73.2147624  64.8946543
  44.6772918  74.6948622  65.2664816  46.7102970  75.0115741  64.7526163
  46.8279832  75.9401165  65.3112391  47.6478784  74.4559547  64.7707094
  46.3463079  75.3230796  63.3451873  45.4777706  75.8383028  63.3282253
  47.0762652  75.8797272  62.9239917  46.2376284  74.4628153  62.8272750
  42.0588706  74.0463714  67.9440089  41.6992332  72.9619352  67.4917390
  41.2720096  74.7966949  68.7696326  41.7335928  75.5944280  69.1827454
  39.8924643  74.4910632  69.1918943  39.4822034  75.3313132  69.7520417
  39.0010598  74.2357681  67.9663886  39.1707637  73.2578032  67.5159615
  37.9840483  74.2844452  68.3555135  39.1609505  75.2944962  66.8977372
  39.0756637  76.4991887  67.1534700  39.5040913  74.8696935  65.6951658
  39.6246452  75.5337082  64.9437331  39.6443565  73.8827902  65.5325365
  39.7428747  73.3513789  70.1930994  38.6339779  72.8800830  70.3950301
  40.8189539  72.9589515  70.8724287  41.7125158  73.3901626  70.6834749
  40.7642577  71.8915940  71.8523013  39.7463277  71.5092969  71.9282394
  41.6939595  70.7365492  71.4360273  42.6443264  71.1391846  71.0856180
  41.8707192  70.0755997  72.2845566  41.1523208  69.8718821  70.3194879
  41.1975711  70.3040596  68.9977935  41.6501577  71.2683344  68.7666240
  40.6714246  69.5173504  67.9736746  40.6623451  69.8902961  66.9495018
  40.1617790  68.2654536  68.2572460  39.8067861  67.6284653  67.4471066
  40.1014313  67.8215199  69.5586461  39.6725455  66.8454425  69.7854277
  40.5920811  68.6262081  70.5908727  40.5388421  68.2809093  71.6233620
  41.1409624  72.3523617  73.2344025  41.9615604  73.2502179  73.3833965
  40.5730306  71.6941323  74.2533832  39.7846000  71.1164620  73.9988769
  40.9239511  71.8068756  75.6769115  41.7051805  72.5501974  75.8358220
  39.7083129  72.1217165  76.6082804  39.9913961  71.9334235  77.6439010
  39.2897002  73.6005407  76.4498868  39.0060149  73.7894953  75.4145514
  38.4422667  73.8106974  77.1024136  40.1250804  74.2461791  76.7207930
  38.5298943  71.1352208  76.3503993  38.1709928  71.3983015  75.3553722
  39.0024264  70.1535115  76.3178437  37.4146044  71.1031289  77.2723389
  36.9412485  72.0844351  77.3050834  36.6887736  70.3611037  76.9396717
  37.7726828  70.8396472  78.2675561  41.6293890  70.4585088  75.9878605
  41.2217007  69.4528199  75.4278596  42.7015684  70.4413540  76.7963920
  43.0308721  71.3333829  77.1368957  43.4954463  69.2383424  77.1068463
  43.5932063  68.6116374  76.2204023  44.9102028  69.6569764  77.5751235
  45.3556904  70.3051474  76.8204617  44.8687690  70.1847022  78.5279555
  45.8459555  68.5146449  77.7613906  45.8580829  67.7798555  78.9380857
  46.7897494  66.8520442  78.7670485  46.9683625  66.1623940  79.5920206
  47.3574259  66.9424397  77.5638025  48.0897139  66.3618231  77.1807379
  46.7602677  67.9928982  76.9086963  47.0655394  68.2464359  75.8934973
  42.7968462  68.2934908  78.1110123  42.7318331  67.0856316  77.8920068
  42.3066304  68.8497220  79.2115028  42.5893945  69.8112719  79.3362651
  41.5479732  68.2005986  80.2908151  41.2476771  68.9560092  81.0169529
  40.2964336  67.4980814  79.7720442  40.6079465  66.7643701  79.0285883
  39.8268912  66.9864243  80.6121852  39.3130247  68.4510273  79.1533885
  39.3192607  69.3884309  79.7095688  39.5964842  68.6414316  78.1182561
  37.9476477  67.8602635  79.1928435  37.6358716  67.7184543  80.2276308
  37.2434876  68.5225925  78.6892778  37.9354894  66.5679850  78.5204356
  38.8180637  66.2176322  78.1763208  36.8486230  65.8388414  78.3279081
  35.6661382  66.2690146  78.7584285  35.5980892  67.1570283  79.2347696
  34.8415858  65.7057179  78.6070688  36.9314773  64.6699680  77.7130916
  37.8280148  64.3349566  77.3904651  36.0977958  64.1182450  77.5693019
  42.3579009  67.2543708  81.1739347  41.7775860  66.5594552  82.0014949
  43.6738602  67.2595894  81.0546000  44.1160583  67.7745939  80.3067159
  44.5010072  66.4339515  81.8977749  44.0581313  66.3643717  82.8913134
  44.6289631  65.0061713  81.3119251  43.6628191  64.7288659  80.8903012
  45.3542077  65.1285999  80.5074803  45.1005751  63.9150289  82.2562595
  44.8125717  64.0133042  83.4869329  45.7042322  62.9366235  81.7653237
  45.8437583  67.1414176  82.1155641  46.9219700  66.5928961  81.8438355
  45.7575958  68.3911235  82.6088028  44.8391783  68.8009553  82.7017887
  46.9263510  69.2227441  82.9242193  47.7780415  69.0670966  82.2620287
  46.5484181  70.7399975  82.9388816  45.7382366  70.8877887  83.6529292
  47.7513672  71.6165332  83.3386925  48.5618408  71.4696218  82.6247946
  47.4535067  72.6650464  83.3387245  48.0907499  71.3357417  84.3357254
  45.8995515  71.2026638  81.5990481  45.0387410  70.5541267  81.4362422
  45.5580307  72.2249187  81.7617075  46.8004641  71.1594453  80.3834747
  47.1420340  70.1373536  80.2198945  46.2477187  71.5016710  79.5085729
  47.6613255  71.8081443  80.5453610  47.5100601  68.7203595  84.2685193
  46.8534748  68.8129257  85.3107521  48.7128336  68.1173758  84.2128467
  49.1279179  67.9860224  83.3015012  49.4091497  67.5670133  85.3795100
  49.2659023  68.2309600  86.2320088  48.8653213  66.1522344  85.7522664
  49.4272390  65.8323426  86.6297725  47.8184588  66.2907291  86.0224483
  48.9732347  65.0847468  84.6607047  48.5365117  65.4689513  83.7388800
  50.0239405  64.8479501  84.4932337  48.2338482  63.8298654  85.0855746
  48.5896552  63.5563852  86.0789068  47.1721540  64.0717864  85.1343511
  48.4426409  62.6724725  84.1407010  48.3277428  63.0362249  83.1196313
  49.4551167  62.2931579  84.2789485  47.4653602  61.5788482  84.3900930
  46.5271285  61.9300118  84.2616211  47.6335673  60.8227641  83.7419085
  47.5719513  61.2413557  85.3360508  50.9093818  67.5449340  85.1089458
  51.2678296  67.5005392  83.9367144  51.8078881  67.5938613  86.1332082
  51.5893583  67.3579557  87.4838089  50.7825884  66.6293836  87.5638417
  51.2746521  68.2988293  87.9352685  52.8909172  66.8487374  88.0605915
  52.9558376  65.7642694  87.9721976  52.9877411  67.1338122  89.1081882
  53.9543841  67.5449151  87.2035087  54.9162418  67.0405209  87.1112308
  54.1100543  68.5579517  87.5744847  53.2619911  67.5886293  85.8508854
  53.4847273  68.5586172  85.4063517  53.7754349  66.4681933  84.9226226
  54.7167582  66.6897201  84.1457176  53.1293824  65.2865102  84.9820397
  52.4290915  65.2029867  85.7050305  53.4383353  64.1005530  84.1709795
  54.5062791  63.8884178  84.2219093  52.6704964  62.8769539  84.6862091
  51.8235636  63.2642006  85.2526399  52.3053971  62.2909674  83.8427505
  53.5175528  61.9972121  85.5829693  54.7175021  61.7445964  85.2261601
  52.9877107  61.5215793  86.6181267  53.2190701  64.2503773  82.6668646
  53.8393043  63.5128915  81.9009962  52.3534940  65.1908617  82.2357752
  51.7958866  65.6786266  82.9222581  52.0659698  65.4216133  80.8133148
  52.3844767  64.5583352  80.2290174  50.5641906  65.6353392  80.5926742
  50.2566400  66.3487335  81.3572529  50.3490946  66.0456868  79.6060392
  49.7670658  64.3620435  80.7709326  50.2353345  63.2570606  80.4933606
  48.5254250  64.4839765  81.1548316  47.9573134  63.6592770  81.2860556
  48.1386383  65.4024505  81.3188508  52.9211484  66.5359283  80.1956023
  52.8093852  66.8178415  79.0013340  53.8056181  67.1339618  80.9854393
  53.7891123  66.9080906  81.9697203  54.7656194  68.1287139  80.5202355
  54.5561667  68.3661431  79.4772321  54.6924955  69.4202870  81.3404591
  54.6954518  69.1217632  82.3887787  55.5506282  70.0629676  81.1438120
  53.4616552  70.2692402  81.1368012  53.3987426  71.1867857  80.0957199
  54.2459607  71.2840851  79.4168575  52.2618315  71.9819176  79.9141200
  52.2108698  72.6667435  79.0676467  51.2029369  71.9013872  80.8053142
  50.3244016  72.5331009  80.6741140  51.2647430  71.0162298  81.8623578
  50.4387543  70.9542826  82.5708812  52.3910364  70.1961211  82.0247370
  52.4361727  69.4901622  82.8540046  56.1508865  67.4696126  80.6197079
  56.5420188  67.0294414  81.7043299  56.8078002  67.2754386  79.4538234
  56.3614964  67.6802386  78.6432377  58.0853832  66.5750011  79.2682266
  58.4620738  66.2442172  80.2361033  57.9170757  65.3372096  78.3535283
  57.1731585  65.6264258  77.6112074  58.8892627  65.2336175  77.8716351
  57.5208285  64.0187358  78.9759468  58.2147195  63.8081972  79.7897586
  56.0957564  64.0359439  79.5155784  55.4012044  64.2459780  78.7022015
  55.8602936  63.0653791  79.9522269  56.0050221  64.8088019  80.2788335
  57.5823645  62.9270464  77.9642939  58.5984309  62.8456408  77.5781830
  57.2940518  61.9839954  78.4286558  56.8997024  63.1515532  77.1447403
  59.0639448  67.4910557  78.6097168  58.6563668  68.2580905  77.7532171
  60.3504325  67.4311393  79.0034648  60.6191645  66.8349290  79.7731502
  61.3809732  68.2337551  78.3593368  60.9477758  69.1824490  78.0424469
  62.5712391  68.5259355  79.3155243  62.8987451  67.5649545  79.7122037
  63.3655945  68.9565156  78.7058520  62.2442126  69.4831976  80.4874957
  61.4364180  69.0098786  81.0456516  63.1409035  69.5180083  81.1062329
  61.7520952  71.1865004  80.0468905  63.1816965  71.8895522  79.7883747
  63.7010202  71.3721991  78.9816854  63.0293816  72.9327474  79.5115267
  63.7815532  71.8391962  80.6970756  61.8259493  67.4255352  77.1519911
  61.6188283  66.2268223  77.1299823  62.3645024  68.0713174  76.1339896
  62.4647415  69.0762769  76.1443754  62.8300931  67.3438724  74.9634602
  62.1339295  66.5304484  74.7590174  62.8498995  68.0265984  74.1139943
  64.2214590  66.7652254  75.1656745  64.8014501  66.8648856  76.2603161
  64.7663435  66.1396738  74.1011840  64.1866176  66.0247964  73.2821477
  66.0993330  65.5278299  74.1009579  66.6277121  65.6996562  75.0387161
  66.0026628  63.9986524  73.8333889  65.3513888  63.8509391  72.9719231
  67.3672750  63.3578928  73.5575455  68.0189933  63.5048031  74.4188127
  67.2384277  62.2905412  73.3779353  67.8163188  63.8219680  72.6794265
  65.3168619  63.2876393  74.9903905  65.9748978  63.3561352  75.8566457
  64.3869019  63.8167738  75.1984540  65.0110427  61.8127970  74.6960562
  65.9406320  61.2828753  74.4883386  64.5223469  61.3630280  75.5603383
  64.3526375  61.7435140  73.8301450  67.0029647  66.2370939  73.1051290
  66.5498193  66.6742370  72.0556809  68.2652222  66.3633635  73.4709363
  68.5177335  66.0152940  74.3848208  69.3029546  66.9642366  72.6523344
  70.2586271  66.8394220  73.1614618  69.3311001  66.4436196  71.6951170
  69.0679935  68.4248345  72.4067060  69.1511706  69.2263948  73.3327711
  68.7656005  68.7652338  71.1557924  68.7899492  68.0270329  70.4669049
  68.4725099  70.1366248  70.7006644  69.3098020  70.7937091  70.9357841
  68.2437012  70.1537664  69.1598858  67.9543238  71.1738121  68.9071674
  69.2090381  69.9277182  68.7069763  67.1821222  69.1708578  68.6244824
  67.5358648  68.1551007  68.8011305  66.2559141  69.3334867  69.1756561
  66.9288867  69.3670370  67.1417971  66.5590788  70.3784060  66.9730552
  67.8630756  69.2268678  66.5979744  65.9398366  68.4137879  66.6298644
  66.0869878  67.4377742  66.8439744  64.8586113  68.7552702  65.9277514
  64.6210769  70.0303569  65.6364830  65.2632559  70.7446217  65.9487841
  63.7995147  70.2790203  65.1042221  64.0211864  67.8251605  65.4909544
  64.2030790  66.8520406  65.6910861  63.2050987  68.0938914  64.9600275
  67.2545877  70.7354413  71.4406498  67.2091512  71.9377767  71.7059950
  66.2939213  69.8706486  71.7895260  66.4356333  68.9101455  71.5112258
  65.0537141  70.2176074  72.4533005  64.8161441  71.2713796  72.3076162
  63.9248411  69.3693812  71.8396782  64.1932957  68.3163527  71.7550471
  63.0177062  69.4657250  72.4362719  63.5830562  69.8335631  70.4666862
  62.4846875  69.2934158  69.7937182  62.4715810  69.8723432  68.6131369
  61.6969279  69.5710689  67.9079806  63.4594766  70.7620946  68.5008038
  63.6542351  71.3606014  67.7108933  64.1895777  70.7314224  69.6666947
  65.0670934  71.3685009  69.7771420  65.0919592  70.0560485  73.9572121
  64.0253472  70.0172713  74.5583577  66.2901224  70.0018654  74.5832936
  67.1293941  70.0117646  74.0214890  66.4201624  69.7608941  76.0191437
  65.7706167  68.9338403  76.3057996  67.8507488  69.4094627  76.3984846
  67.9026999  69.1070996  77.4444181  68.2229669  68.6016761  75.7683779
  69.0239366  70.7721312  76.2117393  70.0919486  70.0930938  76.6205875
  65.8551858  70.8906875  76.9162648  65.5602938  70.6079292  78.0793591
  65.6806873  72.1359601  76.3991124  66.0211301  72.3331703  75.4688940
  65.1062525  73.2422826  77.1808183  64.9528437  72.8991195  78.2039527
  65.9981862  74.4828924  77.2103961  65.8564911  74.9596290  76.2404765
  65.6554762  75.1539300  77.9980244  67.4532060  74.2231122  77.4055304
  68.2090486  74.3787514  76.4608377  67.8710921  73.7772371  78.5932916
  68.8531202  73.5956393  78.7440989  67.2031294  73.6237351  79.3351567
  63.7131927  73.6134172  76.6919304  63.1634950  74.6457576  77.1058636
  63.1505022  72.7729196  75.8024827  63.7154282  72.0064173  75.4656856
  61.8158424  72.9446034  75.2442705  61.4556698  73.9408516  75.5009111
  61.7868920  72.7894284  73.7021847  62.5878316  73.4112005  73.3021916
  61.9954182  71.7426288  73.4812157  60.4506907  73.1942205  73.0533460
  59.7671367  72.3521485  73.1618333  60.0643160  74.0490134  73.6084548
  60.5766794  73.5649966  71.5608119  59.8869075  74.3886815  71.3768095
  61.5996490  73.9059370  71.4014624  60.2673704  72.4185806  70.6011018
  61.1332127  71.7564772  70.6071583  59.4037328  71.8901736  71.0048535
  59.9766310  72.8490223  69.1920410  60.7769352  73.3383007  68.8175818
  59.7833396  72.0360334  68.6247779  59.1740939  73.4622096  69.1861567
  60.9290652  71.9466336  75.9343317  61.2695530  70.7594720  76.0367304
  59.8281943  72.4612306  76.4808124  59.7139587  73.4619200  76.4055109
  58.8200651  71.7063252  77.1997764  59.2402067  70.7891268  77.6124837
  58.3045289  72.5803003  78.3637226  59.2140910  72.9491554  78.8377922
  57.7743726  73.4119518  77.8996211  57.4253635  71.9422156  79.3981249
  56.6325516  71.3981201  78.8847924  58.1823839  71.0092225  80.2663225
  58.9751340  71.5527231  80.7803781  57.5088517  70.5687074  81.0014425
  58.6206152  70.2192075  79.6564619  56.7974109  72.9863330  80.2425712
  56.1953484  73.6461100  79.6178196  56.1606945  72.5146519  80.9910433
  57.5738121  73.5670479  80.7406377  57.6946501  71.3199075  76.2264808
  57.2774704  72.1350001  75.4150172  57.2286806  70.0660724  76.3058278
  57.6449731  69.4832284  77.0179324  56.1920420  69.4795042  75.4426481
  55.8734292  70.2074104  74.6964996  56.7544790  68.2190366  74.7036784
  57.1600039  67.4916390  75.4069147  55.9223340  67.7725498  74.1593584
  57.8454035  68.4912497  73.6826927  59.1542468  68.7191817  74.0832639
  59.4026557  68.6737439  75.1436074  60.1437113  69.0029535  73.1491935
  61.1574291  69.2303091  73.4790214  59.8417824  68.9966005  71.8048797
  60.6202457  69.2125401  71.0731250  58.5648824  68.7193489  71.3864985
  58.3291593  68.7030902  70.3224165  57.5698509  68.4585954  72.3235962
  56.5578035  68.2247509  71.9931774  54.9897720  69.0814620  76.2487611
  55.1693852  68.4068167  77.2530115  53.7751643  69.4784061  75.8323282
  53.7031554  70.1186691  75.0545253  52.5303955  69.0281402  76.4856684
  52.7725792  68.7245749  77.5041448  51.4236713  70.1149918  76.5419538
  51.8336001  70.8498950  77.2347560  51.3570602  70.5529081  75.5460159
  50.0166248  69.6935774  77.0131141  49.6577531  68.9110046  76.3446144
  50.0143546  69.1790048  78.4411323  50.3726915  69.9612321  79.1103213
  49.0005915  68.8956901  78.7241835  50.6681496  68.3100535  78.5158058
  49.0450225  70.8508860  76.8944598  48.9871684  71.1722311  75.8545129
  48.0582361  70.5335435  77.2315765  49.3899679  71.6803146  77.5118412
  52.0812159  67.8424140  75.6571678  51.9578227  67.9681665  74.4420289
  51.9152707  66.6768506  76.2962116  52.1721990  66.6252886  77.2716236
  51.5551804  65.4362291  75.6066341  51.1743525  65.6373443  74.6053239
  52.7892436  64.4540839  75.5129277  52.4455101  63.4829907  75.1566615
  53.8233612  65.0018340  74.5601063  54.1679339  65.9727739  74.9159800
  54.6678580  64.3148547  74.5054679  53.3822967  65.1140770  73.5696707
  53.4641868  64.1466329  76.8538730  54.5104651  63.9372924  76.6312095
  53.3950802  65.0569843  77.4493427  52.9000369  63.0432183  77.5948757
  52.9692104  62.1323593  77.0001902  53.4505937  62.9110975  78.5262889
  51.8538242  63.2520505  77.8183214  50.2852369  64.8133746  76.2274561
  49.6659351  65.4552645  77.0622487  49.8708168  63.6020096  75.7615509
  50.3656141  63.3063982  74.9321603  48.7267032  62.7998401  76.2125908
  48.6437400  61.9082272  75.5911065  48.8902587  62.3605415  77.6893188
  49.9426107  62.0875664  77.7676713  48.6936723  63.2310451  78.3151600
  48.0225915  61.1881828  78.1585625  46.9705521  60.9061166  77.4952762
  48.3647146  60.5771899  79.2145130  47.3749471  63.4898695  75.9257006
  46.6916887  64.0031988  76.8246472  46.9496378  63.3976936  74.6671580
  47.5539534  62.9375635  74.0014386  45.7429244  64.0378132  74.1739048
  45.4327688  64.8330509  74.8517688  46.0157022  64.6507215  72.7889526
  46.4313369  63.9434304  72.0712575  45.1002178  65.0823765  72.3844005
  47.0084165  65.7783865  72.9073378  46.5919689  67.0623593  73.2782062
  45.5319344  67.2426686  73.4568549  47.5147290  68.1082296  73.4208207
  47.1750881  69.1038046  73.7064344  48.8539951  67.8747432  73.1988667
  49.5751051  68.6845285  73.3099884  49.2857503  66.6046643  72.8327560
  50.3454844  66.4243161  72.6523720  48.3628576  65.5575096  72.6953696
  48.7068288  64.5604998  72.4201330  44.5065090  63.1383292  74.1694765
  43.5110537  63.4902712  73.5419228  44.5568772  62.0422167  74.9213478
  45.4023079  61.8656517  75.4449614  43.4595050  61.0814675  75.0316346
  43.2431367  60.7372391  74.0203034  43.8329506  60.2479281  75.6264874
  42.1798739  61.6028357  75.6603646  41.0938954  61.0713660  75.4020400
  42.2863236  62.6351218  76.5063670  43.1993476  62.9762931  76.7711095
  41.1098680  63.2386263  77.1366595  40.2441807  62.6069535  76.9374758
  41.2663878  63.3939638  78.6663345  42.1650856  64.0078148  78.7265727
  40.4178254  63.9534031  79.0601233  41.4638847  62.1162251  79.4924627
  42.2989710  61.5554748  79.0725927  41.7571703  62.4461609  80.9621497
  40.9222665  63.0065473  81.3828652  41.8924747  61.5211921  81.5227085
  42.6653884  63.0454329  81.0262856  40.2776144  61.1656356  79.3573948
  40.1560265  60.8817495  78.3120602  40.4562954  60.2732689  79.9572748
  39.3720573  61.6619923  79.7062434  40.7792448  64.5994885  76.4980036
  39.8378824  65.2607283  76.9458795  41.5344825  65.0156410  75.4571991
  42.3083100  64.4487150  75.1411529  41.3105287  66.3000147  74.8101072
  41.3427936  67.0873064  75.5632539  42.3921793  66.5751665  73.7708635
  42.3664234  65.8000797  73.0049150  42.2150497  67.5468603  73.3098466
  43.3692652  66.5755009  74.2539806  39.9304719  66.3397564  74.1783534
  39.4837524  65.3140202  73.6610218  39.2317434  67.4888381  74.2560616
  39.6205700  68.2523426  74.7908271  37.8921463  67.6552286  73.6774876
  37.6968050  66.8586161  72.9596092  36.8072024  67.5948180  74.7965647
  36.9251397  66.6238027  75.2775213  37.0613410  68.3836416  75.5045696
  35.3482168  67.7666573  74.3398664  35.2950649  68.7219286  73.8176286
  35.1433674  66.9578339  73.6384796  34.3075955  67.7417111  75.4666756
  33.3215590  67.7375715  75.0021179  34.4500352  66.8157831  76.0238719
  34.4152125  68.9198692  76.4107086  35.4685813  69.0719003  76.6460833
  34.0266239  69.8011438  75.9003624  33.6533604  68.6997356  77.6685888
  34.0135632  67.8834202  78.1418569  33.7518890  69.5070104  78.2675042
  32.6771900  68.5592640  77.4507397  37.8348290  68.9698518  72.8752597
  38.5344153  69.9389036  73.1968612  37.0260183  68.9866442  71.8072521
  36.5628213  68.1382468  71.5143874  36.8218000  70.1930073  71.0169756
  37.7756432  70.7009802  70.8746878  36.2309174  69.8549021  69.6303146
  36.4684356  68.8148734  69.4066525  35.1491015  69.9761794  69.6856877
  36.7858362  70.7495250  68.5307874  36.5978709  71.7785275  68.8372571
  37.8607462  70.5726681  68.4934757  36.1858570  70.5135600  67.1544519
  36.3623843  69.4703790  66.8923250  35.1131717  70.6928314  67.2273052
  36.7762442  71.4102840  66.0836923  36.9081368  72.4049642  66.5095047
  37.7476750  71.0052534  65.8001938  35.8979083  71.4984928  64.8700312
  34.9978526  71.8741839  65.1324348  36.3288695  72.1036925  64.1858486
  35.7759154  70.5769633  64.4750627  35.8771160  71.0874217  71.8537223
  34.8962080  70.5754166  72.4155705  36.2168328  72.3874359  72.0221873
  37.1082572  72.7265988  71.6898765  35.3647606  73.3076394  72.8087047
  34.5646236  72.7284597  73.2696070  36.1440663  74.0561676  73.9270289
  35.3735889  74.5477807  74.5209821  36.6873112  73.3476617  74.5523323
  37.1018030  75.0905705  73.3913645  36.6774633  76.3881907  73.1249971
  35.6407085  76.6534996  73.3319996  37.5517561  77.3436295  72.6022478
  37.2102329  78.3653996  72.4365685  38.8570007  76.9937225  72.3051154
  39.6838923  77.9276469  71.7431709  39.2537048  78.7745884  71.6045044
  39.3061368  75.7104500  72.5664550  40.3450335  75.4412696  72.3758347
  38.4190776  74.7571672  73.0777427  38.7533905  73.7321170  73.2377651
  34.6270796  74.2817837  71.8877950  33.7330365  74.9653526  72.3368091
  35.0124663  74.3538776  70.6199620  35.8237490  73.8291580  70.3257018
  34.3824299  75.2525856  69.6566614  33.3041268  75.2521046  69.8159138
  34.9066295  76.7098732  69.8072325  34.2462778  77.3578391  69.2308863
  34.8437142  76.9743230  70.8627930  36.3383829  76.8874665  69.3248087
  36.9850764  76.3782762  70.0393810  36.4146355  76.3982403  68.3537550
  36.7667800  78.3265848  69.1968771  36.1229921  78.8469023  68.4877185
  36.7120500  78.8208190  70.1668445  38.1555881  78.3937124  68.7107095
  38.4486191  77.6284877  68.1202323  39.0405666  79.3545564  68.9959742
  38.6979969  80.3739815  69.7799981  37.7641039  80.4219511  70.1616298
  39.3734896  81.0949618  69.9897519  40.2686148  79.3111484  68.4845054
  40.5329715  78.5482113  67.8777578  40.9304906  80.0413441  68.7054883
  34.5372605  74.7516302  68.2108329  35.5282719  74.0831316  67.9041671
  33.5648200  75.1041063  67.3206081  32.7639338  75.6124204  67.6674473
  33.6075605  74.7612659  65.8901248  33.8416066  73.7019753  65.7841766
  32.2657234  75.0401082  65.1929861  31.5615878  74.3543337  65.6641608
  31.9439043  76.0668561  65.3671160  32.3115007  74.7707429  63.6989561
  32.2825642  73.5826740  63.3086064  32.4510741  75.7437745  62.9228100
  34.7076545  75.5782268  65.2367473  34.8505559  76.7541971  65.5633191
  35.4990764  74.9602942  64.3364586  35.3853167  73.9682749  64.1846169
  36.6227996  75.6369552  63.6880413  37.2647402  76.0676332  64.4564995
  37.4632961  74.6827682  62.8238314  37.8405908  73.9109508  63.4946860
  36.8463490  74.2226657  62.0519623  38.6481244  75.3685311  62.1554811
  39.5288764  75.9615332  62.8076087  38.6726871  75.3508984  60.8300620
  39.4359023  75.7910988  60.3362747  37.9280713  74.8973449  60.3202215
  36.2238979  76.8900223  62.8955048  36.8716099  77.9273370  63.0707429
  35.1730290  76.8190713  62.0587913  34.7114015  75.9401854  61.8728909
  34.8065887  77.9806772  61.2470948  35.6984036  78.5833586  61.0752212
  34.2076088  77.5838562  59.8790856  33.8027711  78.5022045  59.4538302
  35.0477671  77.2433421  59.2738714  33.1194529  76.5055047  59.8943421
  33.5605592  75.5869582  60.2813801  32.3257479  76.8369919  60.5638572
  32.5407272  76.2462741  58.5116819  33.3596671  76.0656657  57.8153939
  31.9018923  75.3642707  58.5570616  31.7463296  77.3771878  58.0197707
  32.2418302  78.1100760  57.5324788  30.4317948  77.4990658  58.1818420
  29.7419846  76.5574043  58.8142197  30.2182494  75.7429728  59.1747377
  28.7440996  76.6597693  58.9318912  29.7943551  78.5610076  57.7039350
  30.3106629  79.2786132  57.2155002  28.7960263  78.6464273  57.8309851
  33.9226059  79.0096140  61.9967778  34.3266409  80.1684071  62.1027228
  32.7520285  78.5968967  62.5235054  32.4791844  77.6400716  62.3498932
  31.7972931  79.4815117  63.2200632  31.6375829  80.4205538  62.6901654
  30.4377163  78.7803520  63.3997184  29.6987168  79.5436819  63.6432494
  30.0001895  78.0340018  62.1712378  30.7385147  77.2701378  61.9273375
  29.0361579  77.5605466  62.3572011  29.9080481  78.7291211  61.3367202
  30.4931256  77.9004599  64.5166148  29.6437819  77.4661458  64.6242575
  32.3068659  80.0473904  64.5764594  31.8097795  81.0768927  65.0377002
  33.2723426  79.3565205  65.2035755  33.4969873  78.4826884  64.7496464
  33.8722077  79.6338753  66.5256168  34.5354757  78.8068505  66.7790029
  34.6845550  80.9537025  66.5755076  33.9986683  81.7544614  66.2990226
  35.0009609  81.0880034  67.6098918  35.9153879  80.9924652  65.6541191
  35.8601541  80.1415177  64.9751947  35.8821387  81.9179793  65.0792972
  37.2099937  80.9306425  66.4357014  37.2077749  81.7531844  67.1509069
  37.2305301  79.9825849  66.9731625  38.4230370  81.0294380  65.6068417
  38.8153384  81.9529264  65.4912208  39.0396073  79.9974371  65.0242611
  38.5422084  78.7683524  65.1278281  37.6920755  78.6133093  65.6506432
  39.0168911  77.9956473  64.6831902  40.1458377  80.1906911  64.3176577
  40.5228505  81.1226120  64.2202679  40.6058285  79.4049927  63.8804105
  32.8075471  79.5098175  67.6555851  33.0469190  79.9723896  68.7760444
  31.6582465  78.8256532  67.3646460  31.5348397  78.5108056  66.4129417
  30.5847966  78.5640484  68.3278553  30.2590418  79.5020122  68.7775295
  29.3799196  77.9062890  67.6364914  29.1491960  78.5229870  66.7678433
  29.7142962  76.9232241  67.3050164  28.1226169  77.7532200  68.5033050
  27.4003452  77.1468550  67.9567286  28.4024791  77.2418486  69.4243253
  27.4717018  79.0774824  68.8620606  27.6054147  79.5841347  69.9881841
  26.7515697  79.6706393  67.9118839  26.2989996  80.5532411  68.1023985
  26.6612510  79.2352056  67.0050535  31.1081567  77.6623492  69.4665589
  31.5811868  76.5517415  69.2041754  31.0379027  78.1508771  70.7194383
  30.6935840  79.0907043  70.8546006  31.4858504  77.4071532  71.8845201
  32.4467784  76.9376034  71.6741882  31.6481852  78.3310936  73.0800294
  32.0489922  79.3089057  72.8129404  30.6546222  78.4518311  73.5117179
  32.5205333  77.7938490  74.1618006  33.8274385  78.2221501  74.3143064
  34.3201240  77.5127119  75.3181368  35.3484600  77.7138739  75.6183998
  33.4218123  76.6456008  75.7936917  33.5398903  75.9783666  76.5426616
  32.2690065  76.8191484  75.0678261  31.3895102  76.2144142  75.2889237
  30.5108777  76.2835119  72.2147741  29.3199102  76.3686302  71.9302496
  31.0250339  75.2269808  72.8023984  32.0282774  75.1865263  72.9117840
  30.2383293  74.0627337  73.1976472  29.5505188  73.7333623  72.4188465
  31.1197458  72.8571974  73.6575559  30.4853357  72.1039438  74.1247102
  31.8297457  72.2477487  72.4544992  32.4647466  73.0003293  71.9870626
  32.4428352  71.4077088  72.7809268  31.0901546  71.8987249  71.7338837
  32.0935882  73.2497997  74.8085183  32.9304108  73.7604901  74.3320479
  31.5478190  73.9547862  75.4355985  32.6187313  72.1087342  75.6673477
  33.1650499  71.4035279  75.0409932  33.2853965  72.5063061  76.4325884
  31.7824572  71.5978224  76.1445423  29.2200120  74.4511356  74.2655161
  29.5209919  75.3538354  75.0513323  28.0242614  73.7980062  74.3102080
  27.5608071  72.7141020  73.5562831  28.3855790  72.0107503  73.4416188
  27.2662879  73.0906938  72.5767239  26.3970189  72.1246959  74.3211408
  26.7412748  71.3737643  75.0322587  25.6743016  71.6751618  73.6401855
  25.7929630  73.3381706  75.0369906  25.2545581  73.1302095  75.9616372
  25.1440573  73.8876765  74.3550345  27.0400075  74.1547158  75.3374902
  26.7869184  75.2017767  75.1710342  27.4983459  73.9660463  76.7815050
  28.3941277  73.1703934  77.0779412  26.8443364  74.7106124  77.6748806
  26.1728465  75.3764258  77.3200664  27.0611280  74.6518531  79.0961035
  28.1140815  74.4536797  79.2963919  26.6758416  75.9750611  79.7660348
  27.2213433  76.7783021  79.2707256  25.6072472  76.1010235  79.5918523
  26.9533755  76.0198877  81.2555610  28.2439752  76.1964576  81.7406017
  29.0614059  76.2854049  81.0250635  28.5046303  76.2604976  83.1068399
  29.5233658  76.4161663  83.4618711  27.4708837  76.1190851  84.0133622
  27.7472853  76.1628068  85.3598972  28.6796039  76.2940838  85.5473755
  26.1747264  75.9433636  83.5582279  25.3549944  75.8284903  84.2674133
  25.9193959  75.9135701  82.1835146  24.8970239  75.8056234  81.8212951
  26.2307919  73.4991711  79.6313792  24.9952112  73.4328778  79.4680496
  26.9460320  72.5454803  80.1992519  27.9510764  72.6419018  80.2254808
  26.3501808  71.3705099  80.8136102  25.2640136  71.4542200  80.7771033
  26.7651725  70.0957987  80.0878699  27.8437792  70.1580310  79.9435302
  26.5360968  69.2680267  80.7590017  26.0960188  69.8660791  78.7641070
  25.0256616  70.0516989  78.8534473  26.5189631  70.5351176  78.0147021
  26.3253148  68.4305038  78.3449378  25.9203771  68.2595631  77.3474892
  27.3911778  68.2024089  78.3477951  25.6515958  67.5339028  79.2843132
  25.3729681  67.9340339  80.1688250  25.4007714  66.2517303  79.0633810
  25.7678572  65.6825200  77.9200470  26.2407089  66.2305241  77.2156304
  25.5723117  64.7045184  77.7607538  24.7654240  65.5294171  79.9769226
  24.4728680  65.9596960  80.8425849  24.5772027  64.5525509  79.8025552
  26.8290971  71.2672041  82.2393329  27.8659442  71.8215559  82.6267447
  26.0560011  70.5537266  83.0130702  25.1594226  70.2866667  82.6323795
  26.3597082  70.1830910  84.3816827  27.4043258  70.4083676  84.5964470
  25.4771870  70.9563233  85.3725193  24.4481232  70.9289433  85.0142216
  25.5361489  70.4662794  86.3443632  25.9285010  72.4014445  85.5060123
  26.9797181  72.3087337  85.7788639  25.8486594  72.8571840  84.5190847
  25.2190149  73.2703932  86.5213072  24.0086489  73.0457854  86.7585081
  25.8636493  74.2112397  87.0415459  26.1543455  68.6705639  84.4000661
  25.9754880  68.0784794  83.3212427  26.2295633  68.0264907  85.5662175
  26.4786726  68.5203776  86.4112734  26.0276516  66.5687160  85.6427065
  26.1734096  66.2283745  86.6678999  24.6139208  66.2038692  85.2046927
  24.4601161  66.5965373  84.1995783  24.5495657  65.1159870  85.1829929
  23.5493280  66.7534179  86.1288840  23.5891372  66.5796316  87.3639591
  22.6039563  67.4073909  85.6471894  27.0621493  65.7592978  84.8034868
  26.7181995  64.7616216  84.1600401  28.3277444  66.2180658  84.8105578
  28.5224329  67.0628551  85.3287535  29.4390762  65.5530880  84.1216230
  29.0347727  64.8057189  83.4389244  30.3032500  66.5438841  83.3127400
  30.7243402  67.2311049  84.0465722  31.1025335  65.9453497  82.8757016
  29.6022279  67.3421406  82.2097271  28.6107298  67.5915046  82.5876821
  30.1788731  68.2568954  82.0725916  29.4682196  66.6128153  80.8596133
  29.0212919  65.6412795  81.0704987  28.7832614  67.2027730  80.2506128
  30.7556294  66.4195267  80.1177275  31.2732315  67.3765796  80.0526241
  31.3751765  65.7084130  80.6641504  30.4977281  65.9013115  78.7470952
  29.9240140  66.5603012  78.2404549  31.3756157  65.7775889  78.2632500
  30.0184920  65.0142834  78.8072034  30.3161524  64.9030988  85.1794502
  30.5778026  65.5237911  86.2148000  30.7700262  63.6576573  84.9312750
  30.4676586  63.1689626  84.1007025  31.6880575  62.9716540  85.8460614
  31.3897754  63.1795273  86.8736390  31.6795714  61.4471996  85.6300896
  31.6385691  61.2988625  84.5510094  32.6021448  61.0176795  86.0205646
  30.5024052  60.7267519  86.2640997  29.7233287  61.2934700  87.0522738
  30.3738669  59.4347646  85.9690677  29.6096250  58.9038546  86.3617108
  31.0411941  58.9915507  85.3539769  33.0496735  63.5565282  85.5504772
  33.2793359  63.9664922  84.4077989  33.9312599  63.6539586  86.5682467
  33.6235493  63.4214773  87.5017166  35.2706560  64.2359534  86.4006937
  35.1853032  65.1639296  85.8352963  35.9488396  64.5446860  87.7599726
  35.3155700  65.3286317  88.1753014  35.8369479  63.6362595  88.3518692
  37.4296309  65.0044479  87.7941658  38.0392327  64.2105505  87.3626414
  37.6544448  66.2957499  87.0178438  37.0454826  67.0902808  87.4491030
  38.7067059  66.5747520  87.0726625  37.3722315  66.1474779  85.9755043
  37.8870622  65.2071864  89.1996578  37.7966155  64.2708985  89.7503700
  38.9283266  65.5294736  89.2004971  37.2709251  65.9695207  89.6764391
  36.1922741  63.4087397  85.4892072  36.2927705  62.1786266  85.6076782
  36.8627095  64.1560778  84.5790687  36.5918957  65.1279834  84.6255303
  37.8341665  63.7550781  83.5627693  37.9134833  62.6713309  83.4773280
  37.3850997  64.3320099  82.1853007  37.1947814  65.3966580  82.3209605
  38.4162470  64.1385251  81.0889413  38.6067558  63.0740270  80.9523773
  38.0408840  64.5623499  80.1575047  39.3428321  64.6400191  81.3683056
  36.1617259  63.7094592  81.7848220  35.8847693  64.0642385  80.9368674
  39.2196920  64.2734248  84.0079397  39.3868110  65.4782492  84.2534625
  40.1864811  63.3602111  84.0917579  39.9676372  62.3982518  83.8753299
  41.5527232  63.6872058  84.4835003  42.2352794  63.1030337  83.8662814
  41.7167793  64.7491471  84.3005639  41.8296706  63.3904894  85.9388358
  40.9906187  62.7877257  86.6149193  43.0241013  63.7781155  86.4379032
  43.7149952  64.1883764  85.8259793  43.3939980  63.5311123  87.8437310
  42.9790452  62.5948908  88.2170977  44.9081789  63.5214157  88.0734948
  45.0823337  63.3230590  89.1310509  45.6217844  62.4843788  87.2438620
  45.4484639  62.6823645  86.1860996  46.6912368  62.5261594  87.4503203
  45.2423110  61.4937822  87.4944990  45.4303349  64.8246564  87.8334582
  46.3795311  64.8205055  87.9770191  42.7300523  64.5387132  88.7668541
  42.6841883  65.7346201  88.4556367  42.2542271  64.0534513  89.9144413
  42.3186688  63.0559982  90.0594715  41.5645262  64.8565472  90.9211368
  40.7650111  65.3712192  90.3882319  40.9412584  63.9499361  91.9775399
  41.7298392  63.4344978  92.5257768  40.3509011  64.5502643  92.6697715
  40.2969926  63.2162274  91.4930893  42.4347793  65.9233267  91.5924154
  41.8915167  66.9370305  92.0350239  43.7651084  65.6933063  91.6907068
  44.1305964  64.8046628  91.3795306  44.6784524  66.6249871  92.3572402
  44.2903860  66.8630468  93.3476095  46.0850305  66.0225522  92.5122983
  45.9567573  64.9748860  92.7844028  46.5706959  66.0876838  91.5386520
  46.9543940  66.7205660  93.5642607  46.8894912  67.7972912  93.4075724
  46.5666456  66.4737336  94.5526062  48.4017901  66.2824853  93.4659759
  48.6886593  66.2822217  92.4144032  49.0147417  67.0018087  94.0090813
  48.6442826  64.9449410  94.0199484  47.8779662  64.4987733  94.5034697
  49.7996848  64.2915801  93.9216250  50.8240591  64.8283881  93.2696131
  50.7266975  65.7394575  92.8446740  51.6959957  64.3232232  93.2015345
  49.9396572  63.0988155  94.4768152  49.1662565  62.6839219  94.9766298
  50.8192628  62.6086916  94.3982569  44.7391800  68.0016654  91.6943270
  44.7583804  69.0118571  92.4031965  44.7486918  68.0455066  90.3597194
  44.7764381  67.2028765  89.8035684  44.8704184  69.3187161  89.6826881
  45.0235556  70.1117331  90.4146527  46.0725924  69.3054406  88.7095338
  45.7710242  68.7759193  87.8057843  46.2865716  70.3461092  88.4659731
  47.3167903  68.6549094  89.2851490  48.1900540  69.3688375  90.1069994
  47.9888524  70.4232372  90.2963632  49.3052546  68.7563144  90.6829438
  49.9501683  69.3126405  91.3631567  49.5755811  67.4274417  90.4042633
  50.6959015  66.8106209  90.9096576  51.2333858  67.3938053  91.4505885
  48.7242677  66.7037937  89.5853634  48.9269316  65.6526091  89.3803299
  47.6107735  67.3192114  89.0249015  46.9489342  66.7547139  88.3680823
  43.5770598  69.7690952  88.9879873  43.6063091  70.7830765  88.2971448
  42.4444881  69.0519138  89.1949006  42.5120238  68.2307922  89.7791074
  41.1392746  69.3778912  88.5974915  41.2416927  69.4185413  87.5130759
  40.1267369  68.3073296  88.9482494  40.0065143  68.2608519  90.0306017
  39.1688457  68.5473035  88.4867765  40.4751852  67.3423545  88.5801380
  40.6244976  70.7310279  89.0716104  40.8821254  71.1081608  90.2113278
  39.9041860  71.4756110  88.2077880  39.7761350  71.1945605  87.2461680
  39.3635261  72.7677092  88.6306782  40.1239645  73.3208401  89.1819303
  38.9362571  73.5980720  87.4216067  38.6594401  74.5905440  87.7772343
  39.7916171  73.6785462  86.7507988  37.8430234  73.0239293  86.7258803
  37.6124253  73.5796153  85.9777912  38.1937714  72.5552138  89.6224472
  37.6923281  71.4327502  89.7406289  37.7808376  73.6069651  90.3474043
  38.3116083  74.4661265  90.3324541  36.6518921  73.5040313  91.2755033
  36.7378598  72.6388142  91.9328526  36.5206511  74.7896845  92.1293328
  36.7373663  75.6440407  91.4880759  35.1076095  74.9493413  92.7409897
  34.8903478  74.0955275  93.3827840  35.0675379  75.8655472  93.3301093
  34.3685545  74.9995278  91.9413784  37.5962957  74.8076431  93.2216318
  37.2153952  74.2242508  94.0598854  38.4808138  74.3197027  92.8121915
  37.9500263  76.1505769  93.6831266  37.0660497  76.6390053  94.0931547
  38.7164069  76.0799554  94.4549897  38.3314664  76.7344582  92.8454597
  35.3645961  73.1428259  90.4982507  34.6250969  72.2464815  90.9235961
  35.1346554  73.8103514  89.3406333  35.7423780  74.5796569  89.0978544
  33.9540041  73.5751500  88.5168956  33.0761358  73.5453305  89.1623080
  33.7493343  74.6600524  87.4660906  34.6943171  74.8375909  86.9526836
  33.0078296  74.3069425  86.7494427  33.2682467  75.9634374  88.0550824
  32.5391959  75.9916307  89.0634054  33.6720403  77.0756640  87.4433942
  33.3799935  77.9762690  87.7951313  34.2684128  77.0133025  86.6306508
  33.9338151  72.1907044  87.9147921  32.8596232  71.5836614  87.8837972
  35.1047140  71.6458059  87.5114544  35.9489225  72.2001420  87.5225420
  35.1801680  70.2723622  86.9959615  34.4862916  70.1582347  86.1631291
  36.5807730  69.9492653  86.5081419  37.2857887  70.0502820  87.3332774
  36.6078721  68.9270013  86.1308594  36.8558530  70.6381695  85.7094923
  34.7419202  69.2800652  88.0974035  34.0780029  68.2997676  87.7716482
  35.0539518  69.5765332  89.3915955  35.6489480  70.3761643  89.5549020
  34.6423863  68.7672065  90.5465068  34.8847308  67.7231889  90.3480233
  35.3457951  69.1970679  91.8483879  35.4703875  70.2769877  91.9280694
  34.7270596  68.8414605  92.6722870  36.7046547  68.5931378  92.0406977
  36.8681029  67.2382494  92.2657247  38.1701327  67.0529302  92.4140657
  38.5160029  66.0335458  92.5853206  38.8410352  68.1987632  92.3217968
  39.8384609  68.3406807  92.3932201  37.9169218  69.1926629  92.1052888
  38.2415355  70.2298273  92.0215204  33.1215998  68.8043331  90.7490924
  32.5247378  67.7663365  91.0369049  32.4947008  69.9828877  90.5491410
  33.0812824  70.7813128  90.3528282  31.0408718  70.1961060  90.6679566
  30.6670446  69.7139106  91.5711953  30.7280700  71.7049636  90.7489623
  31.0589918  72.0767514  89.7792387  29.6468299  71.8162225  90.8304561
  31.4037668  72.5009588  91.8539422  32.4826791  72.3704557  91.7701687
  31.0671879  73.9584415  91.7480461  29.9884090  74.0897917  91.8322007
  31.5629469  74.5055505  92.5499161  31.4052110  74.3408866  90.7849384
  31.0283493  71.9788289  93.2220606  31.3355945  70.9367935  93.3107285
  31.5293723  72.5712194  93.9876654  29.9490081  72.0514656  93.3556474
  30.2280179  69.5517598  89.5120208  28.9935050  69.6024534  89.5105860
  30.9369803  68.9554912  88.5556689  31.9436866  68.9496331  88.6369543
  30.3358030  68.3126020  87.4006752  31.0309760  67.5459093  87.0585992
  29.4123235  67.8411086  87.7367986  30.0219798  69.2454008  86.2456586
  29.4514068  68.8001785  85.2453943  30.3799960  70.5507713  86.3776482
  30.7081724  70.8265217  87.2921761  30.2078062  71.5969384  85.3514323
  29.2345532  71.6049984  84.8607055  30.4848667  73.0051151  85.9861526
  31.4274870  72.9412597  86.5297425  30.5689858  74.1351308  84.9453354
  29.6264992  74.1999075  84.4016225  30.7621911  75.0814703  85.4505225
  31.3779431  73.9256943  84.2454614  29.4529934  73.3239573  87.1090823
  28.4879436  73.3915868  86.6068811  29.4599038  72.4543002  87.7661578
  29.6936627  74.6265072  87.9604236  29.6864228  75.4966909  87.3040488
  28.9030222  74.7263897  88.7040702  30.6583846  74.5594051  88.4633240
  31.1032507  71.2391164  84.1240386  32.1662425  70.6202819  84.2961967
  30.6480881  71.5498527  82.8900823  29.7153433  71.9149167  82.7604111
  31.4361499  71.2064394  81.6939189  31.8189641  70.1923752  81.8089245
  30.6087788  71.2776201  80.3876585  29.6855198  70.7223889  80.5532187
  30.3737497  72.3261355  80.2046921  31.3372081  70.7024288  79.1793307
  31.8827622  71.5331386  78.7316783  32.0449896  69.9890430  79.6014978
  30.5008261  70.0155774  78.1160273  29.4716782  70.5808916  77.6764179
  30.8975242  68.9016403  77.7045654  32.7179598  72.0294899  81.6128179
  32.7105208  73.2462044  81.8631487  33.8230612  71.3388845  81.2955797
  33.7424238  70.3351354  81.2175746  35.1412646  71.9370484  81.1603442
  35.2924069  72.6580953  81.9636788  36.2484131  70.8846129  81.2336017
  36.0419331  70.1370047  80.4677379  37.1910778  71.3835500  81.0087795
  36.3459137  70.2041362  82.5943173  36.0969656  70.8609142  83.4278449
  35.6092009  69.4033065  82.5308488  37.6994044  69.5939873  82.8498055
  38.7240493  70.2861493  82.9061940  37.7190900  68.3068542  83.1379477
  38.5996768  67.8462762  83.3183255  36.8534846  67.7878986  83.1768538
  35.2890418  72.7687820  79.8973280  34.7297474  72.4419797  78.8514623
  36.0295125  73.8687367  80.0172393  36.3261385  74.1230411  80.9486047
  36.3570495  74.7629828  78.9229494  36.4011941  74.1970690  77.9924161
  35.3114978  75.8589334  78.7764439  35.5665904  76.4593979  77.9032490
  34.3414961  75.3866128  78.6211701  35.2532119  76.6898694  79.9186462
  34.5845735  77.3663110  79.7884568  37.7729365  75.3148970  79.1667336
  38.4676279  74.8407108  80.0785468  38.2054659  76.2904596  78.3580854
  37.6087745  76.5762202  77.5949343  39.5459945  76.8647837  78.4415421
  40.2807418  76.0973497  78.1980453  39.7192391  78.0223297  77.4814757
  38.8917766  78.7142486  77.6384890  40.6587407  78.5195958  77.7226464
  39.7395241  77.5815679  76.0361216  40.6297020  76.9864859  75.8322548
  38.8502932  76.9952468  75.8046093  39.7586515  78.8062255  75.1930719
  40.4991025  79.5061507  75.5802875  40.0122517  78.5406994  74.1667765
  38.4567879  79.4547575  75.1985097  37.7792211  79.1553850  75.8850800
  38.1130368  80.4097420  74.3446610  38.9731462  80.8301837  73.4257766
  39.8950067  80.4205126  73.3763500  38.7019718  81.5579258  72.7800557
  36.9078727  80.9594729  74.4084217  36.2509610  80.6488533  75.1099077
  36.6524845  81.6862323  73.7552017  39.9672692  77.2644216  79.8200841
  41.0730473  76.9267425  80.2114019  39.0849853  77.9242992  80.5709548
  38.2274522  78.1938225  80.1104188  39.2998921  78.3646741  81.9579076
  40.1312844  79.0688745  81.9893341  38.0469254  79.0568639  82.5259910
  38.2541762  79.2906528  83.5702559  37.9096811  79.9826523  81.9672605
  36.7918657  78.2255715  82.4368496  36.5468597  78.0743076  81.3855685
  36.9776156  77.2606491  82.9085740  35.6503624  78.9021905  83.1211849
  35.9712308  79.2588967  84.0999101  35.3130856  79.7465167  82.5199718
  34.5322169  77.9807199  83.3025678  34.6202287  77.0500852  82.9201119
  33.4149905  78.2996150  83.9384647  33.2718085  79.5085030  84.4743610
  34.0182823  80.1842402  84.3952657  32.4172678  79.7451871  84.9579316
  32.4321330  77.4164323  84.0454621  32.5369034  76.4972904  83.6401209
  31.5830891  77.6667801  84.5318253  39.7459028  77.2548205  82.9165062
  40.5727935  77.5039788  83.7991646  39.2349163  76.0389754  82.7163676
  38.5283617  75.9379434  82.0017540  39.5329507  74.8867143  83.5634377
  39.5667234  75.1876003  84.6105414  38.4403128  73.8261668  83.3937836
  38.4491718  73.3539052  82.4114447  38.6748316  73.0829084  84.1557993
  37.0557520  74.4126626  83.6640151  36.7399934  74.6992620  84.8668012
  36.3295072  74.6898138  82.6781304  40.9347401  74.3363039  83.3415282
  41.5579582  73.9109416  84.3033095  41.4566204  74.4126571  82.0931212
  40.8694423  74.7449651  81.3415278  42.8351169  74.0193490  81.7774283
  43.0171553  73.0087847  82.1431071  43.0897551  74.0461903  80.2445934
  42.5042870  74.9027336  79.9104379  44.1489319  74.2444159  80.0804253
  42.6766237  72.8103973  79.4557770  42.2976499  71.7853265  80.0889323
  42.7881190  72.8407238  78.2221928  43.7917207  74.9879316  82.4738254
  44.7688586  74.5561503  83.0851261  43.4755380  76.2897481  82.4002104
  42.6921815  76.5253947  81.8078232  44.2296569  77.3764956  83.0139641
  45.2787498  77.2935556  82.7300197  43.7010297  78.7594869  82.5574365
  42.6678901  78.8361384  82.8963264  44.3046005  79.5156129  83.0595080
  43.7589621  78.9819473  81.0500758  42.9178448  78.4371674  80.6213132
  43.6203668  80.0506451  80.8864342  45.2940402  78.4471507  80.2370730
  46.3753240  79.7721053  80.6064367  46.4747767  79.8700459  81.6874621
  47.3539605  79.5760438  80.1683374  45.9718298  80.6968476  80.1939499
  44.2506278  77.2692205  84.5374683  45.3032923  77.4681612  85.1432416
  43.1076899  76.9196125  85.1484946  42.2723852  76.7985819  84.5937721
  42.9948579  76.8145348  86.6090865  43.4376653  77.6911771  87.0818646
  41.5233755  76.7309471  87.0158562  40.9771397  77.4349606  86.3880898
  41.1884919  75.7164759  86.7995204  41.2631550  77.0480200  88.4738988
  42.1001735  76.6575309  89.0527072  41.2299753  78.1332015  88.5707460
  39.9726814  76.4565322  88.9928796  38.8882496  76.7943839  88.4680616
  40.0494908  75.6425081  89.9336953  43.8240918  75.6286804  87.1434707
  44.5134660  75.7557968  88.1607915  43.7885832  74.5018626  86.4133783
  43.1177074  74.4919540  85.6584434  44.5899498  73.3038699  86.6426247
  44.3826805  72.9099863  87.6376093  44.2637762  72.2281384  85.6158826
  44.2897579  72.6591585  84.6150600  44.9970029  71.4244938  85.6839577
  42.9704520  71.7100408  85.8731770  42.7631178  71.0314562  85.2265432
  46.0744565  73.6414492  86.5893216  46.8051301  73.2071293  87.4749249
  46.5063957  74.4741916  85.6172261  45.8733899  74.7114822  84.8668287
  47.8920311  74.9372826  85.5287480  48.5589104  74.0752658  85.5114801
  48.1303245  75.7688173  84.2563096  47.9541052  75.0175500  83.4864762
  47.3885209  76.5622780  84.1654934  49.5369863  76.3608786  84.0810758
  49.6794507  77.1343529  84.8357560  50.6372412  75.2838930  84.2328620
  50.4957018  74.5102611  83.4781706  51.6168673  75.7435615  84.1019481
  50.5754380  74.8379890  85.2255605  49.6400772  77.1315395  82.7629028
  48.9135132  77.9440581  82.7586829  50.6443662  77.5423267  82.6591791
  49.4358804  76.4579039  81.9306662  48.3431623  75.6958941  86.8085957
  49.4957131  75.5210045  87.2340147  47.4232947  76.4807942  87.4134464
  46.5217109  76.5707424  86.9671781  47.6519930  77.2003879  88.6621941
  48.5128673  77.8564268  88.5333233  46.7693066  77.7996985  88.8853331
  47.9175598  76.2584394  89.8257900  48.7689362  76.5214554  90.6837823
  47.2213493  75.1198910  89.8283513  46.4890433  74.9766177  89.1476899
  47.4162530  74.1064329  90.8570579  47.4554617  74.5868413  91.8346926
  46.2716828  73.0832056  90.8587959  46.2157101  72.6656715  89.8534942
  46.5059867  72.2898904  91.5686218  44.9422453  73.7059232  91.2202327
  44.8668620  74.7514029  92.1379340  45.7871460  75.1066863  92.6015615
  43.6518245  75.3395292  92.4660379  43.6184952  76.1838603  93.1545842
  42.4822392  74.8612392  91.8999946  41.2926821  75.4329098  92.2656346
  41.3975517  76.1395718  92.9069074  42.5251842  73.8105767  90.9960736
  41.6074087  73.4340194  90.5444176  43.7545826  73.2340392  90.6650600
  43.7946466  72.4017015  89.9624158  48.7591891  73.4281891  90.7074527
  49.4065669  73.1689142  91.7265251  49.1776365  73.1587590  89.4347865
  48.5063522  73.3405671  88.7023778  50.4431505  72.5045489  89.0733649
  50.5847464  71.5806387  89.6341142  50.5290932  72.1810128  87.5494475
  50.3849845  73.1076511  86.9938638  51.8748604  71.5682326  87.1751814
  52.0194873  70.6412525  87.7300615  51.8940463  71.3577677  86.1058653
  52.6740965  72.2671657  87.4217902  49.4012800  71.2502016  87.1290262
  48.4419139  71.7257464  87.3329279  49.4821896  71.0390058  86.0627478
  49.4706499  70.3180952  87.6897991  51.6012208  73.3647546  89.5990496
  52.4726219  72.8356272  90.2929727  51.5394114  74.7014372  89.3591198
  50.7974009  75.0184481  88.7516466  52.5315305  75.6875862  89.8237431
  53.5298349  75.3437879  89.5530213  52.3013177  77.0739007  89.1950333
  51.3020808  77.2703983  89.5836376  52.9931319  77.8248624  89.5765433
  52.2751397  77.1344043  87.6836246  51.7004517  76.2876040  87.3084395
  51.6334209  78.4439106  87.1983348  52.2078639  79.2912103  87.5727642
  51.6262987  78.4635894  86.1085354  50.6103377  78.5069708  87.5690430
  53.6540433  76.8403192  87.0922080  53.9740226  75.8428849  87.3936003
  53.6019350  76.8914673  86.0046557  54.3706128  77.5766492  87.4561385
  52.6022504  75.7989923  91.3437022  53.6978289  75.9171804  91.8918958
  51.4440529  75.7476289  92.0211085  50.5834201  75.7917094  91.4943566
  51.3661678  75.7985022  93.4958419  52.0532664  76.5645310  93.8552786
  49.9554636  76.1268670  94.0049748  49.2576840  75.4468823  93.5162788
  49.9397391  75.9515049  95.0806610  49.5417068  77.5799904  93.7166355
  49.2729485  77.6467400  92.6623991  48.6683284  77.8052168  94.3286692
  50.8577499  78.7935923  94.0787484  51.2184354  78.4014803  95.9678139
  51.5421061  77.3655798  96.0690380  52.0028151  79.0640735  96.3336275
  50.3109710  78.5567225  96.5513458  51.9273295  74.5596405  94.1309113
  52.6263803  74.6483420  95.1340669  51.7202511  73.4232148  93.4711931
  51.0899307  73.4849775  92.6844397  52.2699875  72.1118904  93.8186644
  52.0473727  71.8657009  94.8568997  51.6282552  71.0465575  92.9121451
  50.5811337  70.9131615  93.1838829  51.6914684  71.4987304  91.9223756
  52.3186200  69.7044005  92.8967749  52.1570623  68.8047043  93.9486013
  51.5653307  69.1084012  94.8121529  52.7353622  67.5369858  93.9109965
  52.5993576  66.8463485  94.7432373  53.4746333  67.1533503  92.8087248
  54.0383208  65.9099708  92.7983430  53.8537995  65.4078014  93.5954487
  53.6439105  68.0259076  91.7425845  54.2283395  67.7270986  90.8723797
  53.0605574  69.2920751  91.7896265  53.1805794  69.9789041  90.9517955
  53.8093709  72.1304041  93.6833940  54.4709205  71.5190721  94.4902850
  54.3944290  72.7974946  92.6536351  53.8688046  73.1893662  91.8853546
  55.8646275  72.8820852  92.6091627  56.2775637  71.8999532  92.8393790
  56.3894210  73.3243372  91.2473951  55.9143762  74.2873413  91.0601658
  57.4722366  73.4491051  91.2539850  56.0624489  72.4425450  90.0618924
  56.1021554  71.0544501  90.1708060  56.3687153  70.6032030  91.1265370
  55.8065051  70.2453802  89.0776039  55.8088402  69.1611005  89.1891067
  55.5117937  70.8109272  87.8584793  55.2825247  70.1726242  87.0051886
  55.5060729  72.1853037  87.7145404  55.2716192  72.6339183  86.7492028
  55.8016349  72.9997931  88.8096454  55.8303860  74.0829606  88.6912334
  56.3878407  73.8325729  93.7174362  57.4256740  73.5528933  94.3240319
  55.6037149  74.9006002  94.0251673  54.7889060  75.0153535  93.4394903
  55.9094547  75.9453843  94.9982651  56.9344115  76.2909954  94.8636706
  54.9633507  77.1347642  94.8104786  54.0136463  76.6796362  94.5293748
  54.8325112  77.7109755  95.7264271  55.3960583  78.0764476  93.7031564
  56.5617333  78.1316101  93.3300438  54.4940539  78.9146178  93.2222898
  54.7477189  79.5558495  92.4843361  53.5553711  78.9099238  93.5950542
  55.9429515  75.4296309  96.4376113  56.9602401  75.5758760  97.1177196
  54.8369544  74.8334920  96.8859112  54.0874080  74.7549599  96.2135183
  54.6822123  74.1658824  98.1777863  55.2668161  74.6821181  98.9392573
  53.2102987  74.1813582  98.5972143  52.7511853  73.3517651  98.0595440
  53.2151397  73.9632330  99.6651554  52.4128694  75.4542871  98.3428668
  52.5489222  76.1301673  99.1871276  52.7856251  75.9283296  97.4348806
  50.9217753  75.1365466  98.1780414  50.3564078  76.0675124  98.2200089
  50.7676960  74.6618667  97.2090017  50.4255258  74.2375060  99.2261350
  50.4967457  73.2459378  99.0477541  49.9045775  74.6379013 100.3801392
  49.7456029  75.9302446 100.6329669  50.0224908  76.6143681  99.9434683
  49.3483971  76.2242312 101.5138182  49.5303541  73.7494820 101.2864625
  49.6418571  72.7633768 101.0986764  49.1349244  74.0615382 102.1618796
  55.0035887  72.7074584  97.8605393  54.4528133  72.2189823  96.8840064
  55.8158427  71.9767955  98.6369614  56.3497395  72.3643825  99.4017031
  56.0523106  70.5604055  98.2601772  56.5971425  70.4691696  97.3205318
  56.8217375  69.8339728  99.3362807  56.8546310  68.7768332  99.0727014
  58.2445522  70.3640022  99.4903205  58.2124614  71.4210483  99.7543723
  58.7564477  69.8090284 100.2764924  58.7824050  70.2410311  98.5502710
  56.0878025  69.9426786 100.5628028  56.5622317  69.4857264 101.2611666
  54.7490952  69.8011242  97.8764931  54.6874863  69.1432963  96.8326919
  53.6961553  69.9771422  98.7015629  53.8412716  70.5597275  99.5137421
  52.3845941  69.3628641  98.5156828  52.3692042  68.7754133  97.5976610
  52.0826960  68.4363035  99.6937308  51.4170873  67.6384598  99.3643227
  53.0134724  68.0038919 100.0608488  51.4598987  69.1715679 100.7353807
  51.2723355  68.5858921 101.4725400  51.2494363  70.4035729  98.3925459
  51.4555585  71.5891131  98.6327896  50.0356779  69.9133102  98.1055284
  49.9911569  68.9361740  97.8538894  48.8144123  70.6979003  98.0398948
  49.0543130  71.7603609  98.0814195  48.0707110  70.4163164  96.7368864
  48.1828958  69.3379999  96.6239822  47.0137228  70.6624803  96.8382734
  48.6361519  71.1128777  95.5166659  49.7222756  71.1538189  95.5988852
  48.2580112  70.3660400  94.2765643  47.1719604  70.3250796  94.1934096
  48.6696467  70.8754509  93.4052678  48.6565538  69.3527333  94.3263004
  48.2050368  72.5717537  95.4628465  48.5613316  73.0895380  96.3533817
  48.6273152  73.0434509  94.5755562  47.1173155  72.6284177  95.4210089
  47.9247620  70.4415679  99.2772262  48.0132400  69.3606827  99.8750463
  47.0814164  71.4185020  99.6976473  46.9275343  72.7198626  99.1946055
  46.2361488  72.6895485  98.3524847  47.8983279  73.0801342  98.8542188
  46.3906025  73.5220958 100.3579817  45.8255758  74.3850658 100.0056657
  47.2019685  73.8585696 101.0034055  45.4870310  72.5220367 101.0905233
  44.4714857  72.3948361 100.7155741  45.4529237  72.7924342 102.1459007
  46.2694680  71.2314768 100.9109384  46.9833306  71.1713066 101.7324479
  45.3364153  70.0096832 100.9530347  44.9998347  69.5527209 102.0506612
  44.9304582  69.4900748  99.7713033  45.2883579  69.9657491  98.9553737
  44.0194378  68.3564595  99.5722354  43.5246120  68.0987127 100.5086184
  42.9478989  68.7389923  98.5397922  42.4044955  67.8324017  98.2735116
  42.2491043  69.4800909  98.9278115  43.5032436  69.3002341  97.2583368
  43.9646968  68.6024131  96.1829667  43.8950066  67.5157994  96.2331032
  44.4395444  69.4690483  95.2256412  44.8129531  69.2027004  94.3257944
  44.2785079  70.7555090  95.6716893  44.5525375  71.9750234  95.0448141
  44.9723608  71.9606631  94.0390105  44.2716308  73.1262581  95.7453403
  44.4841366  74.0947369  95.2925820  43.7186435  73.0847700  97.0275375
  43.4977989  74.0024781  97.5726421  43.4343993  71.8771888  97.6446526
  43.0034346  71.9014159  98.6455438  43.7003389  70.6836875  96.9555512
  44.7249168  67.0879380  99.1040370  44.0568627  66.1518856  98.6436777
  46.0668030  67.0521345  99.2115061  46.5444084  67.8785460  99.5417129
  46.8724496  65.9257418  98.7472908  46.4651724  65.5469442  97.8098812
  48.3215929  66.3507646  98.5137349  48.3227431  67.4185164  98.2946366
  48.8731719  66.1690719  99.4361493  48.9859264  65.5967744  97.3681181
  49.2366515  64.5916180  97.7070846  48.3072809  65.5340683  96.5174653
  50.2457816  66.2822345  96.9269172  50.2542664  67.4840597  96.6518133
  51.3377781  65.5364125  96.8320063  52.2083591  65.9561322  96.5387053
  51.2940603  64.5519551  97.0534421  46.8109347  64.6857234  99.6357976
  46.5632689  63.5992004  99.1116389  47.0395635  64.8463348 100.9388751
  47.2025910  65.7785570 101.2916969  47.0657099  63.7301649 101.8875737
  47.4579903  62.8682611 101.3478173  47.7597951  64.0082168 102.6806893
  45.7319769  63.3595179 102.5065745  45.6500724  63.1249571 103.7209558
  44.6752878  63.3374683 101.6685292  44.8637029  63.5930709 100.7097453
  43.2947800  63.0215747 102.0448261  43.2099373  63.0170948 103.1315095
  42.2945500  64.0648904 101.4728109  42.3069638  63.8491067 100.4044559
  41.3220161  63.7970480 101.8857737  42.5489860  65.5583243 101.6944739
  43.4857896  65.8337620 101.2100836  41.4235653  66.3785876 101.1149842
  40.4864380  66.1040204 101.5992405  41.6216284  67.4373609 101.2819296
  41.3482100  66.1879701 100.0444297  42.7056191  65.8969367 103.1593854
  43.5493465  65.3441045 103.5724229  42.8843865  66.9666293 103.2684777
  41.7962261  65.6245812 103.6950400  42.9338003  61.6180180 101.5470226
  42.5808365  61.4362248 100.3752203  43.0491438  60.6247737 102.4319704
  43.4779365  60.8162130 103.3261668  42.7257490  59.2438894 102.1030822
  42.7767803  59.1093967 101.0226162  43.7123970  58.2552749 102.7719700
  43.9742736  58.6663152 103.7469396  43.1857102  57.3104485 102.9061496
  44.9953289  58.0157881 101.9549266  45.3063584  58.9631161 101.5145506
  45.7725723  57.6567392 102.6295217  44.7667454  56.9765808 100.8328999
  44.5618653  56.0214240 101.3164272  43.8875330  57.2959481 100.2733558
  45.9345129  56.8221236  99.8892225  46.1807680  57.8040960  99.4852557
  46.7838457  56.4391351 100.4549546  45.6223821  55.8896943  98.7708437
  44.8356691  56.2446177  98.2462375  46.4252062  55.8124953  98.1628851
  45.3945854  54.9796034  99.1449324  41.2620898  58.8967847 102.3973016
  40.6400698  59.4523020 103.3087388  40.7176968  58.0051687 101.5602191
  41.3344854  57.7074377 100.8179069  39.3724994  57.4394337 101.6113077
  39.0292667  57.2276052 102.6239375  38.3815698  58.3772999 100.9501191
  38.7069038  58.5915462  99.9321032  37.3977461  57.9086976 100.9255634
  38.3266403  59.3068726 101.5166670  39.4312362  56.1069849 100.8600565
  40.2213765  55.9740951  99.9115310  38.6316682  55.1172555 101.3026351
  38.0827405  55.2934136 102.1319397  38.5922114  53.7782783 100.7167605
  39.5720970  53.3357578 100.8959224  37.5375537  52.9292564 101.4209870
  36.5498716  53.3546740 101.2432123  37.5698714  51.9118240 101.0312599
  37.7385836  52.9140170 102.4921798  38.3676942  53.7834137  99.1909297
  39.2272333  53.2979246  98.4394791  37.2468893  54.3741910  98.7412893
  36.5670687  54.6875560  99.4193347  36.8889943  54.4289144  97.3244877
  37.5338324  53.7820792  96.7296036  35.4177621  53.9955454  97.1078499
  35.3405901  52.9461387  97.3922621  34.4218360  54.8123568  97.9125651
  34.4981007  55.8618829  97.6283498  33.4118430  54.4547107  97.7123090
  34.6397799  54.7075322  98.9753975  35.1042541  54.1016489  95.7212459
  34.1933389  53.8347068  95.5778033  37.2241715  55.7859876  96.6870509
  37.2652758  56.8102953  97.3777557  37.4455476  55.7735898  95.3537527
  37.4553121  54.8676562  94.9073356  37.7487155  56.9527616  94.5388630
  38.6423927  57.4396982  94.9291619  37.9974481  56.5745356  93.0668446
  37.0684735  56.1519554  92.6840504  38.2229827  57.4978821  92.5333042
  39.1301751  55.5796905  92.8595702  40.0195312  55.9612713  93.3611106
  38.8402081  54.6295324  93.3081467  39.4313413  55.3717957  91.3809950
  38.5158847  55.0440951  90.8883993  39.7488185  56.3254898  90.9593610
  40.5158463  54.3401930  91.1663371  41.4108573  54.6725016  91.6922903
  40.1757519  53.3953088  91.5901635  40.8293841  54.1522310  89.7251066
  41.1449531  55.0275662  89.3322908  41.5558820  53.4575609  89.6264447
  40.0002848  53.8438952  89.2376413  36.6344867  58.0078103  94.6428062
  36.9418821  59.1917746  94.6273914  35.3547996  57.5889905  94.7840576
  35.1823537  56.5951864  94.7319495  34.1967647  58.4940542  94.9116338
  34.2157404  59.2327249  94.1103194  32.8855361  57.7053903  94.8198734
  32.9019300  57.1452623  93.8849471  32.8590562  57.0101409  95.6589366
  31.6365951  58.6021879  94.8579970  31.6055602  59.0905728  95.8319671
  31.7423621  59.3556771  94.0775038  30.3492275  57.8251397  94.6402019
  30.4472632  57.2222807  93.7374012  30.1801856  57.1718028  95.4961664
  29.1625264  58.7844127  94.4875271  29.3780242  59.4513762  93.6527691
  28.2794065  58.1884863  94.2571573  28.9099516  59.5935340  95.7190991
  29.7279966  60.1461320  95.9324941  28.1214159  60.2053288  95.5641198
  28.7098251  58.9757143  96.4926283  34.2419937  59.3352537  96.2028204
  33.7581810  60.4777267  96.2189371  34.8204193  58.7433768  97.2794037
  35.1114994  57.7872233  97.1340001  35.0238101  59.3397337  98.6083648
  34.1815132  59.9823040  98.8647599  35.1344057  58.2224346  99.6713965
  35.8251155  57.4716884  99.2874703  35.5495992  58.6692053 100.5747848
  33.7989613  57.5639393  99.9981414  33.1733704  58.3469214 100.4267158
  33.3422604  57.1971091  99.0789234  33.8860107  56.4166664 100.9877965
  34.9032337  55.7231321 101.1482850  32.7792732  56.1651380 101.6532921
  32.7598742  55.4157272 102.3301293  31.9542110  56.7226288 101.4842425
  36.3030655  60.2153555  98.6133725  36.3525457  61.2423783  99.2988359
  37.3390415  59.7652587  97.8670560  37.1813869  58.8886238  97.3908673
  38.6456573  60.4139576  97.7150593  39.1397349  60.5015038  98.6826967
  39.5374100  59.5628886  96.7797403  39.2043680  58.5307275  96.8884866
  39.3359391  59.9040572  95.7643028  41.0393009  59.6454149  97.0563323
  41.5542087  59.6562757  96.0956800  41.2298642  60.5817909  97.5807250
  41.5603985  58.4632754  97.9068813  42.5005188  58.7811589  98.3576838
  40.8250272  58.2822831  98.6908266  41.7841665  57.1854128  97.1187106
  40.8305677  56.8813296  96.6871050  42.4926908  57.3996779  96.3185962
  42.3156437  56.0867698  97.9705253  41.6590586  55.8877790  98.7117394
  42.4490480  55.2588372  97.4076479  43.1994755  56.3681733  98.3702160
  38.4881553  61.8333221  97.1359059  39.2049788  62.7409805  97.5516972
  37.5294305  62.0077055  96.1917565  37.0127822  61.1682921  95.9713954
  37.2019980  63.2395727  95.4602831  38.1129822  63.7959556  95.2397272
  36.5036317  62.8957737  94.1352972  35.6722038  62.2132940  94.3115032
  36.1162436  63.8711840  93.8410098  37.3812313  62.3469396  93.0296119
  38.3683249  61.4023165  93.2957820  38.5375459  61.0998152  94.3292019
  39.1340332  60.8447099  92.2713701  39.9068337  60.1112903  92.5015370
  38.9121685  61.2286880  90.9584155  39.6720345  60.7166309  89.9343343
  40.3374294  60.0939040  90.2360964  37.9102901  62.1373578  90.6688836
  37.7195611  62.4309893  89.6366513  37.1431163  62.6783192  91.7012194
  36.3375742  63.3763928  91.4734140  36.3084105  64.1747321  96.2595599
  36.4614725  65.3893376  96.1402640  35.3628078  63.6242264  97.0419920
  35.2238683  62.6250780  96.9920152  34.4407148  64.4149249  97.8672206
  33.9307017  65.1378709  97.2305614  33.3825840  63.5425303  98.5663822
  33.9199025  62.7263004  99.0492455  32.9141360  64.1681329  99.3261702
  32.3050409  62.9681191  97.6435617  31.7964219  63.8039568  97.1631631
  32.8163847  62.3718139  96.8878853  31.2836823  62.1014648  98.3680187
  31.0646464  60.9335124  97.9567519  30.7004067  62.5840943  99.3621859
  35.2120925  65.2884363  98.8699146  34.7634792  66.3869556  99.2056922
  36.3912801  64.7973611  99.3126296  36.6178136  63.8524625  99.0370422
  37.2846253  65.4798231 100.2481445  36.6910871  66.0608043 100.9540286
  38.1508053  64.4742406 101.0412158  38.5342593  63.7375985 100.3352266
  38.9833161  65.0257484 101.4780969  37.3724395  63.7600327 102.1520491
  36.9470598  64.5271439 102.7991143  36.5676853  63.1976842 101.6785124
  38.2326313  62.8137777 102.9834530  38.6376561  62.0444105 102.3260886
  39.0514624  63.3838199 103.4223915  37.4269287  62.1633083 104.0822823
  37.0264400  62.9491933 104.7226683  36.6043226  61.6148990 103.6232992
  38.2483612  61.2326245 104.8964452  39.0104149  61.7406794 105.3221848
  37.6742968  60.8199465 105.6177266  38.6192082  60.5040869 104.3033141
  38.1230312  66.5317902  99.5213476  38.1182545  67.6851043  99.9392205
  38.8002037  66.1417563  98.4149734  38.7961040  65.1525324  98.2112124
  39.6028481  67.0267000  97.5578680  40.4156253  67.5063168  98.1032672
  40.1836362  66.2418304  96.3470775  39.3818658  65.6579013  95.8950914
  40.7817991  67.2001300  95.2904947  41.5840011  67.7841102  95.7416484
  41.1792892  66.6206195  94.4572661  40.0042293  67.8719299  94.9269439
  41.2304140  65.2005778  96.8192125  42.0784565  65.7716812  97.1970560
  40.7665750  64.6537481  97.6401449  41.7208405  64.1988086  95.7437376
  42.1852453  64.7449105  94.9226403  42.4494117  63.5188016  96.1851826
  40.8733627  63.6269787  95.3657273  38.7526852  68.2312994  97.1199442
  39.1476712  69.3784526  97.3568840  37.5644652  67.9496557  96.5326886
  37.3634191  66.9726731  96.3739915  36.6008413  68.9409436  96.0595679
  37.0498101  69.5421934  95.2689828  35.3546943  68.2580417  95.5046285
  35.5833129  67.8818098  94.5074914  35.0996501  67.4234215  96.1576687
  34.2564034  69.1538934  95.4315737  33.4910061  68.6937296  95.0794146
  36.2147208  69.9276189  97.1529150  36.2976013  71.1402796  96.9355334
  35.7982167  69.4042039  98.3320355  35.6505950  68.4066975  98.3893787
  35.3966396  70.2301008  99.4679316  34.7845618  71.0548991  99.1030100
  34.5872035  69.4419745 100.5135291  35.0871292  68.4828503 100.6486373
  34.6300723  70.0077424 101.4442111  33.1215075  69.2043830 100.1268838
  33.2046044  68.6386392  99.1989131  32.7168860  68.5616061 100.9086885
  32.1898908  70.3953364  99.9147941  32.4534425  71.4870996 100.4725859
  31.1687229  70.2222784  99.2094466  36.5775208  70.9766099 100.0967121
  36.3838148  72.0929909 100.5705375  37.8023138  70.3999041 100.0492011
  37.8677665  69.4504620  99.7110073  39.0161656  71.0379033 100.5697201
  38.7914272  71.5039778 101.5290774  40.1567083  70.0214216 100.7712473
  39.7647472  69.2355204 101.4168672  40.3820806  69.6055070  99.7892481
  41.4360420  70.5975523 101.3874450  42.1691315  69.7916775 101.4227503
  41.7914434  71.3823293 100.7196748  41.2428096  71.1718947 102.7906513
  40.3681891  71.8223096 102.7807336  41.0732329  70.3463804 103.4819323
  42.4490610  71.9592212 103.2350022  43.2611803  71.2586742 103.4294158
  42.7352627  72.6309162 102.4256731  42.1748447  72.7496805 104.4593369
  41.9100429  72.1274219 105.2095195  43.0051015  73.2607826 104.7230569
  41.4226327  73.3991832 104.2792745  39.4217342  72.1965218  99.6594173
  39.7428280  73.2693890 100.1654417  39.3310643  72.0032562  98.3212109
  39.0810318  71.0778069  98.0032064  39.5801926  73.0439329  97.3117863
  40.6068818  73.4009612  97.3926516  39.3669958  72.4788397  95.9001667
  38.4522434  71.8863970  95.9185765  39.2381918  73.3242355  95.2242854
  40.5106347  71.6219744  95.4202616  41.3952141  72.2543578  95.3446873
  40.6829515  70.8445274  96.1645633  40.2387697  70.9960348  94.1077366
  39.5866055  70.1323750  94.2376312  39.7585189  71.7170937  93.4462741
  41.5365485  70.5548872  93.5062517  42.0334045  71.4303753  93.0882143
  42.1532538  70.1318134  94.2992097  41.3407432  69.5489788  92.4469848
  40.7696716  69.9409525  91.7119109  42.2376406  69.2792193  92.0689571
  40.8807429  68.7374756  92.8342334  38.6341832  74.2287705  97.5184429
  39.0483864  75.3923374  97.4488891  37.3575125  73.9160745  97.7858792
  37.0953710  72.9409683  97.7624496  36.3126200  74.9067739  98.0022040
  36.4276589  75.7322346  97.2997226  34.9492395  74.2741754  97.7883215
  34.8587230  73.4350337  98.4780658  34.1931051  75.0224081  98.0260371
  34.7481077  73.7891915  96.3813863  34.9162302  74.6233681  95.7002218
  35.4754957  73.0030830  96.1787977  33.0930982  73.1422189  96.1250194
  32.1787608  74.7161137  95.9345698  32.5787400  75.2686943  95.0844108
  31.1227290  74.5053008  95.7658825  32.2894771  75.3130632  96.8398292
  36.3965140  75.5859490  99.3630188  35.9420721  76.7266538  99.4974623
  36.9535337  74.8938713 100.3792484  37.2023011  73.9235882 100.2497693
  37.1052314  75.4777970 101.7149391  36.3169842  76.2132156 101.8759513
  37.0138673  74.4172881 102.8091820  37.0460490  74.9315046 103.7697261
  36.0538250  73.9128832 102.6996622  38.0600671  73.4603688 102.7500011
  37.9505914  72.8223233 103.4588825  38.3998213  76.2849052 101.8238156
  38.4763858  77.1623782 102.6820977  39.3939030  76.0132542 100.9236454
  39.2519740  75.2117060 100.3257526  40.6926354  76.6978503 100.8739925
  40.9269223  77.1325717 101.8457055  41.8396222  75.7308698 100.4734690
  41.7000084  75.4650377  99.4256420  43.2143471  76.3383964 100.6610132
  43.3548808  76.6040768 101.7087554  43.9749001  75.6159854 100.3647354
  43.3039789  77.2329537 100.0447065  41.7676208  74.5382762 101.2427201
  42.4807765  73.9488170 100.9866982  40.6586660  77.9645668  99.9917282
  40.7583131  77.8499824  98.7593505  40.5761937  79.1828954 100.5991940
  40.2091138  79.5575748 101.9476030  41.1095181  79.5445633 102.5617715
  39.5014349  78.8197143 102.3255599  39.6003463  80.9372682 101.8388406
  39.6937028  81.4774278 102.7809719  38.5487660  80.8754180 101.5587428
  40.4244605  81.6010709 100.7286430  41.3776021  81.9805437 101.0969097
  39.8977367  82.3953046 100.1996301  40.6624514  80.4251248  99.7948710
  39.8581298  80.4297883  99.0592466  42.0076127  80.5004303  99.0773982
  42.9914144  79.9630267  99.6009464  42.0521714  81.1186479  97.8643205
  41.1792777  81.4054098  97.4448881  43.2802764  81.1873513  97.0435606
  43.7849755  80.2261929  96.9458234  43.1127721  81.8086072  95.6238672
  43.9219684  81.4225228  95.0039966  41.7733967  81.4913781  94.9664638
  40.9636731  81.8775878  95.5855685  41.7316741  81.9577739  93.9821698
  41.6663849  80.4117610  94.8612163  43.4013400  83.2862432  95.6036119
  44.4274161  83.4610542  95.9272027  43.2699533  83.6687849  94.5914365
  42.7158497  83.8001079  96.2775162  44.4375577  81.8206398  97.8575819
  45.5725089  81.3572455  97.7732752  44.1039250  82.8073493  98.7062883
  43.1278866  83.0656027  98.6788387  44.9948305  83.5503455  99.6038210
  45.8208330  83.9842947  99.0403433  44.2095406  84.6922042 100.2871537
  43.3162069  84.2456896 100.7238217  44.8452103  85.0830894 101.0816553
  43.8042786  85.8317015  99.3521727  43.3870992  86.5971517 100.0065030
  44.7582399  86.1762237  98.9529718  42.8392220  85.5653325  98.2026060
  41.9793575  84.6578580  98.3188037  42.9353603  86.2922061  97.1864253
  45.6224884  82.6368882 100.6636659  46.7522664  82.8882536 101.0958674
  44.8878900  81.5751210 101.0695362  43.9247757  81.5224184 100.7699824
  45.3620916  80.6021305 102.0421976  46.0419950  81.0637762 102.7582379
  44.2067002  79.9058280 102.8286343  43.5152142  79.4708482 102.1070119
  44.7316215  78.8065590 103.7596995  45.4228653  79.2408844 104.4819491
  43.8959936  78.3474765 104.2879699  45.2497135  78.0487169 103.1720279
  43.3965778  80.9262333 103.6270601  42.9639459  81.6598754 102.9468389
  42.5981952  80.4157892 104.1656988  44.0488981  81.4319463 104.3389825
  46.3123844  79.6320041 101.3488114  47.4049128  79.3746253 101.8639569
  45.9143359  79.1158441 100.1765438  44.9795914  79.3118196  99.8479929
  46.7529361  78.2193955  99.3848094  47.0310390  77.3455165  99.9739558
  45.9748489  77.7464299  98.1375833  45.2338098  77.0513959  98.5324097
  45.4704206  78.6259840  97.7375373  46.7817638  77.0545472  97.0072048
  47.6894076  77.6322665  96.8324936  47.1474472  75.6462935  97.3631137
  46.2402420  75.0677986  97.5375307  47.7113232  75.1988545  96.5446133
  47.7572649  75.6459741  98.2665641  46.0104171  77.0345358  95.7283538
  45.7882545  78.0565581  95.4214111  46.6010420  76.5436680  94.9548473
  45.0782394  76.4887573  95.8741943  48.1047080  78.8836363  98.9694168
  49.1572617  78.2390237  99.0726217  48.0599833  80.1689032  98.5262051
  47.1440201  80.5915116  98.4760775  49.2063387  80.9238711  97.9968710
  49.9832648  80.2326901  97.6701387  48.7813929  81.7815336  96.8031725
  48.0771973  82.5514034  97.1186220  49.6505939  82.2514590  96.3429989
  47.9571835  80.8572306  95.4886548  47.7609629  81.9003474  94.6872167
  49.9612089  81.7635595  99.0394210  50.8364852  82.5573143  98.6508443
  49.6612435  81.5742334 100.3402966  48.9222744  80.9243737 100.5676869
  50.2934037  82.3211334 101.4359370  50.1864006  83.3909664 101.2567529
  49.6359410  81.9792426 102.7931752  48.5572853  81.9435235 102.6404495
  49.9922142  80.9948006 103.0965620  49.9620996  82.9976575 103.8854063
  50.9395594  83.4267101 103.6649817  49.2057163  83.7817798 103.8516641
  49.9837038  82.3737965 105.2726437  48.9930738  81.9707428 105.4831167
  50.7127209  81.5634674 105.2731783  50.3519811  83.3819913 106.3334015
  51.3068937  83.8313400 106.0607697  49.5813084  84.1525193 106.3545996
  50.4646105  82.7567871 107.6782407  51.1789811  82.0430635 107.6589261
  50.7115811  83.4620421 108.3577412  49.5797484  82.3407229 107.9312402
  51.7939163  82.0761464 101.4948892  52.2284660  80.9263851 101.4399647
  52.5549879  83.1648207 101.5911287  52.0947726  84.0633080 101.6230950
  54.0142819  83.1314996 101.6528350  54.3478249  83.9946100 102.2289328
  54.3098801  82.2164797 102.1661182  54.6730767  83.1657514 100.2852772
  55.9019263  83.2627247 100.1801549  53.8527255  83.0904198  99.2226535
  52.8687698  82.9374937  99.3916037  54.3237521  83.0992889  97.8435262
  55.4098595  83.0090972  97.8252102  53.7154234  81.9159420  97.0507870
  52.6335128  81.8198999  97.1421360  53.9826334  82.0236101  95.9995466
  54.3063211  80.6054940  97.5148559  55.5643653  80.2048214  97.0894817
  56.1115464  80.8240812  96.3787004  56.1320954  79.0167876  97.5648658
  57.1121611  78.7057165  97.2031938  55.4567646  78.2390652  98.4882646
  55.9100796  77.3260392  98.8742554  54.2113993  78.6212442  98.9180243
  53.6705429  78.0043776  99.6356942  53.6342917  79.8038267  98.4351337
  52.6458208  80.1079939  98.7793827  54.0524973  84.4387394  97.1871520
  53.2372903  85.1868606  97.7276640  54.7117517  84.7940239  96.0488165
  55.8173517  84.1913552  95.3518997  55.4250397  83.4332613  94.6740464
  56.4706502  83.7189844  96.0854976  56.4970475  85.3273827  94.6216469
  57.0385677  84.9589047  93.7503955  57.1866093  85.8539393  95.2814529
  55.3298947  86.2345324  94.2131694  54.8164488  85.8971056  93.3128275
  55.6262647  87.2765470  94.0928779  54.4109552  86.0921239  95.4163469
  54.6735571  86.8836296  96.1182423  52.9321327  86.2147536  95.0400160
  52.2917912  85.2255155  94.6809103  52.3848681  87.4304505  95.1830702
  52.9870913  88.1499382  95.5569204  50.9884484  87.7657084  94.9165346
  50.3928641  87.2733921  95.6853019  50.7895130  89.2653839  95.0352784
  51.3726011  89.7718029  94.2660918  49.7337743  89.5037369  94.9060347
  51.1190650  89.5993658  96.0191233  50.4873201  87.2791268  93.5643402
  49.3013050  86.9674810  93.4441318  51.3906528  87.1862656  92.5675013
  52.3233206  87.4892938  92.8091705  51.1231950  86.7822166  91.1634661
  50.4145304  87.4764027  90.7118033  52.4057288  86.7924202  90.3415733
  53.1747001  86.2920628  90.9301519  52.2156411  86.2215315  89.4326988
  52.8789431  88.1884317  89.9727450  53.5168921  88.0504124  89.0997773
  51.9553301  88.6833301  89.6725554  53.6025739  89.0457964  90.9981879
  53.8042251  88.5978569  92.1518430  53.9990590  90.1723061  90.6245177
  50.4294549  85.4283192  91.0374401  49.5778772  85.2627415  90.1599611
  50.7942845  84.4709526  91.9174426  51.5973030  84.6579676  92.5007831
  50.1906286  83.1477397  91.9777853  50.1503543  82.7161286  90.9776908
  51.0088315  82.2217789  92.8766138  51.2289992  82.6556926  93.8519826
  50.4850147  81.2753106  93.0104560  52.3372611  81.8937747  92.2401988
  52.4218679  80.9520217  91.2051404  51.5193657  80.4258746  90.8940795
  53.6460632  80.6822239  90.5710102  53.6951503  79.9572754  89.7585197
  54.7900721  81.3392726  90.9804387  55.7455068  81.1297608  90.4994509
  54.7194002  82.2741097  92.0137688  55.6239239  82.7920703  92.3326008
  53.4969936  82.5489103  92.6405660  53.4505569  83.2801797  93.4475286
  48.7150659  83.2071635  92.3817130  47.8884857  82.4961983  91.7890086
  48.3657399  84.0987362  93.3445585  49.0807104  84.6101909  93.8418820
  46.9780784  84.2987905  93.7330453  46.4867702  83.3314560  93.8378280
  46.8875785  85.0346563  95.0572693  47.3673195  86.0090987  94.9655594
  45.8403143  85.1698465  95.3275684  47.3900112  84.4542873  95.8311119
  46.2424380  85.0595763  92.6316171  45.1246432  84.6862271  92.2940802
  46.8891126  86.0731509  92.0215512  47.7885307  86.3500943  92.3882239
  46.3215245  86.8481997  90.8993871  45.3940063  87.3194782  91.2245113
  47.2896122  87.9485246  90.4113582  48.2501496  87.4706839  90.2186530
  46.8864761  88.3420780  89.4782467  47.4790032  89.0822703  91.3968585
  46.5346871  89.6189614  91.4881309  47.7487344  88.6557022  92.3629780
  48.7760936  90.2409081  90.8725829  48.9774805  91.2401669  92.4171525
  49.2770442  90.5869027  93.2366686  49.7424962  92.0007921  92.2612647
  48.0316829  91.7222015  92.6645606  45.9322839  85.9227360  89.7302683
  44.8490539  86.0805251  89.1534023  46.8142389  84.9369010  89.4247431
  47.6952798  84.9727017  89.9172719  46.6409553  83.9230765  88.3901158
  46.4386974  84.4083861  87.4353040  47.9137670  83.0533789  88.2433424
  48.7532746  83.6991975  87.9859622  48.0969678  82.5890580  89.2123334
  47.7638784  81.9807865  87.1921926  47.1359273  80.7697156  87.4885331
  46.8215640  80.5791444  88.5146704  46.9095774  79.8167934  86.5050123
  46.3741290  78.8974475  86.7420775  47.3825677  80.0298698  85.2254516
  47.1767928  79.0740349  84.2748274  46.6995920  78.3104751  84.6077771
  48.0409748  81.2092783  84.9113933  48.4132279  81.3809424  83.9014133
  48.2255348  82.1779304  85.8959976  48.7391771  83.1087128  85.6553404
  45.3922464  83.0752524  88.6520803  44.5029189  83.0652195  87.8001895
  45.3050080  82.4056195  89.8367167  46.1203302  82.4033370  90.4328239
  44.1517449  81.5675017  90.2241798  43.9325463  80.8672531  89.4181382
  44.4290568  80.7721257  91.5005920  44.9454795  81.5225860  92.0991037
  43.5165867  80.4653323  92.0118417  45.3412656  79.5550228  91.3096351
  46.1374950  79.8246023  90.6157716  45.9480688  79.1059306  92.6251499
  45.1524083  78.8357261  93.3194214  46.5891826  78.2412385  92.4537397
  46.5393151  79.9176286  93.0490301  44.6230125  78.4294463  90.5543153
  44.3161771  78.7885526  89.5719742  45.2982253  77.5819597  90.4361826
  43.7435639  78.1169267  91.1173435  42.8279013  82.3429066  90.3281321
  41.8049469  81.8502369  89.8487295  42.8470292  83.5534778  90.8930396
  43.6905001  83.8618738  91.3551522  41.6665190  84.4078901  90.9657132
  40.8357986  83.8490835  91.3966864  41.9363127  85.6358069  91.8401992
  42.9533417  85.9495430  91.6049949  41.2398104  86.4286410  91.5674378
  41.8369190  85.3969318  93.3277480  41.0557500  84.5644658  93.8193744
  42.6143478  86.1751263  94.0703803  42.6072406  86.0788594  95.0757569
  43.2094961  86.8600116  93.6267235  41.1359307  84.8309763  89.5801342
  39.9175429  84.8994933  89.3862824  42.0479751  85.1153710  88.6228315
  43.0219825  85.1122076  88.8900375  41.7061869  85.4971293  87.2538821
  41.0469658  86.3650831  87.2674087  42.9836386  85.8576445  86.4525059
  43.3088092  86.8102220  86.8707876  43.7652676  85.1119334  86.5976648
  42.7133509  86.0228037  84.9738180  42.3090408  87.2466521  84.4513148
  42.2408423  88.1055525  85.1189514  41.9928646  87.3873052  83.0970404
  41.6880744  88.3566305  82.7025619  42.0377660  86.2847895  82.2636347
  41.7175230  86.4128185  80.9403940  41.4767348  87.3099164  80.6978325
  42.4360118  85.0599968  82.7606951  42.4852939  84.1914843  82.1039168
  42.7757435  84.9359231  84.1072069  43.0985480  83.9722852  84.5012872
  40.9073035  84.3731359  86.5433870  39.8821953  84.6539931  85.9056516
  41.4254445  83.1116022  86.6503805  42.2864363  83.0781478  87.1773275
  40.9377879  81.8720801  86.0353055  40.7676068  82.0284109  84.9700834
  41.9676078  80.7537756  86.2069070  42.1776462  80.5877585  87.2635155
  41.6039805  79.8287043  85.7595610  43.5648243  81.0956448  85.4251232
  44.1420395  79.9518763  85.7822148  39.6025739  81.4609267  86.5678076
  38.7453123  80.9526800  85.8330438  39.4404187  81.6497781  87.8726983
  40.2261782  81.9680775  88.4216670  38.2199142  81.2928209  88.5641137
  37.8059646  80.3753701  88.1457492  38.5126227  81.0649116  90.0465078
  39.2158361  81.8284351  90.3791066  37.5791997  81.1654008  90.6003341
  39.1021839  79.6930575  90.2965311  38.3196158  78.9648921  90.0833103
  39.9211906  79.5631075  89.5891111  39.6147733  79.4843370  91.7050523
  39.8540224  78.4276853  91.8248277  40.5210813  80.0775832  91.8265605
  38.6577563  79.8701689  92.7463002  37.8629789  80.4211336  92.4549821
  38.7850525  79.5716666  94.0384539  39.8081885  78.8234197  94.4580265
  40.4873361  78.4831438  93.7923908  39.8983066  78.6011085  95.4391259
  37.8820120  79.9846516  94.9150195  37.0913135  80.5296327  94.6021433
  37.9882830  79.7526802  95.8922577  37.1388632  82.3301726  88.3080138
  35.9496359  82.0324757  88.4474592  37.5764034  83.5131639  87.8773408
  38.5796288  83.6113323  87.8140868  36.7442622  84.6515216  87.4985799
  35.8680965  84.6558424  88.1469734  37.3235995  85.5596065  87.6654612
  36.2877211  84.6159173  86.0517311  35.4190953  85.4038457  85.6660990
  36.8494266  83.7042170  85.2327808  37.5982620  83.1128193  85.5638301
  36.4499116  83.5989841  83.8213423  36.3528227  84.6071422  83.4184896
  37.4567438  82.8130631  82.9491301  37.5115527  81.8512254  83.4589964
  36.9764955  82.6827752  81.9793432  38.8600111  83.3608478  82.7495435
  39.2301500  83.7518662  83.6972790  39.7770931  82.2694899  82.2648173
  39.4078331  81.8782670  81.3168244  40.7801472  82.6725066  82.1249568
  39.8081435  81.4665075  83.0012652  38.8846217  84.4996982  81.7901062
  38.2556530  85.3063562  82.1666707  39.9075308  84.8592208  81.6782946
  38.5087181  84.1681967  80.8221692  35.0683899  82.9698505  83.6382639
  34.6924237  82.0324893  84.3664928  34.3324085  83.4648881  82.6115536
  34.6749182  84.2655101  82.0998985  33.0511461  82.8971337  82.2257471
  32.4875005  82.6392041  83.1223380  32.2234978  83.8858332  81.3937366
  32.8516484  84.1922507  80.5572951  31.3626338  83.3331083  81.0175607
  31.7428989  85.1236566  82.1494931  31.1241515  84.7840385  82.9801025
  32.6230565  85.6356923  82.5383942  30.9357907  86.0893451  81.2725648
  29.9416471  85.6689456  81.1207694  30.8509288  87.0418208  81.7957168
  31.5529743  86.3268119  79.9580844  31.2666671  85.7004191  79.2193289
  32.4401062  87.2838989  79.6740114  32.8434036  88.1304888  80.6217407
  32.4758694  88.0470647  81.5587887  33.5146043  88.8513652  80.3982981
  32.9310200  87.4018414  78.4428790  32.6309127  86.7639637  77.7195894
  33.6014944  88.1286981  78.2373499  33.3522674  81.6332723  81.4139033
  34.4192111  81.5093693  80.8125853  32.4004750  80.7055837  81.4021101
  31.6170236  80.8808375  82.0149635  32.4481785  79.4363513  80.6873412
  33.1298106  78.7500792  81.1898425  31.0407493  78.7964002  80.6505256
  30.7338842  78.5476346  81.6664236  30.3116868  79.4745856  80.2070929
  30.9786434  77.5146624  79.8543472  31.6124391  76.3602731  80.3100240
  32.1363838  76.3843031  81.2655366  31.5825352  75.1870141  79.5621610
  32.0791321  74.2903976  79.9330670  30.9292968  75.1596128  78.3608073
  30.9236149  74.2458903  77.7665188  30.2776195  76.2869791  77.9003338
  29.7362766  76.2513140  76.9549365  30.3105936  77.4655283  78.6390541
  29.8096389  78.3580001  78.2640364  33.0491027  79.5304193  79.2844277
  34.0277076  78.8478456  79.0219996  32.4692231  80.3512681  78.4012035
  31.6431541  80.8350584  78.7231606  32.8861038  80.5391959  77.0088409
  33.2895174  79.6145347  76.5960962  31.6580804  80.9460612  76.1893849
  31.9094002  80.7681228  75.1437867  30.8503651  80.2774965  76.4872394
  31.2084289  82.3999653  76.3658907  32.0750610  82.9518900  76.0019831
  30.3763002  82.5343909  75.6748112  30.8149709  82.9226991  77.7417788
  30.1930124  82.1703240  78.5329357  31.0961815  84.1154613  78.0054016
  34.0421920  81.5716804  76.7973540  34.5134799  81.7525915  75.6634418
  34.4720437  82.2476786  77.8826889  33.9888427  82.0658690  78.7507680
  35.4876290  83.2967816  77.8622327  35.3352061  83.9466634  77.0005367
  35.3958690  84.1386308  79.1294485  34.3404286  84.3729537  79.2681479
  35.7369668  83.5034268  79.9469253  36.2031352  85.4263512  79.1181485
  37.2367271  85.1485150  78.9117617  35.8159722  86.0229911  78.2921794
  36.1439587  86.2378551  80.3992017  35.3789429  85.8734706  81.3247047
  36.8794943  87.2484179  80.4765605  36.9231078  82.8024610  77.6371683
  37.4070408  81.8554679  78.2671953  37.6104111  83.5079796  76.7433883
  37.1176670  84.2709506  76.3015988  38.9906290  83.2719487  76.3676797
  39.1984401  82.2084222  76.2500997  39.2707089  83.9705982  75.0468223
  39.0758832  85.0379454  75.1512873  40.3133502  83.8176642  74.7682353
  38.6239901  83.5578149  74.2725718  39.9307650  83.8222464  77.4253142
  39.8311440  85.0111814  77.7778057  40.9149951  83.0280396  77.8846364
  40.9985660  81.5656822  77.9448573  41.5960191  81.2189808  77.1016799
  39.9904338  81.1586272  77.8669163  41.6421593  81.2591477  79.2770084
  42.1453209  80.2925841  79.2508884  40.8995526  81.2601593  80.0749028
  42.6433401  82.4071274  79.4593203  43.5503123  82.2195950  78.8845751
  42.9088635  82.6390666  80.4907276  41.8747123  83.5680764  78.8478607
  41.3470206  84.0694205  79.6592138  42.7767338  84.5799218  78.1216183
  42.9585150  84.4858555  76.9202728  43.2485824  85.6121493  78.8207888
  42.9725079  85.6842141  79.7896484  44.1780530  86.6130166  78.2863068
  44.0129273  86.7283680  77.2150800  43.9697319  87.9826142  78.9679126
  42.8976340  88.1369791  78.8459417  44.2024422  87.8739470  80.0272225
  44.7244767  89.1840253  78.4017592  45.6962525  88.9814407  77.6459541
  44.3846983  90.3345751  78.7825345  45.5297943  86.0351226  78.6705605
  46.0172070  86.2784479  79.7931765  46.0910648  85.2082493  77.7597778
  45.5654522  84.9955235  76.9239678  47.3698951  84.5252845  77.9685148
  47.3399715  83.9822381  78.9131335  47.6615479  83.5282943  76.8386785
  47.8591836  84.1417898  75.9596663  48.5582941  82.9651486  77.0971611
  46.5304992  82.5662266  76.5386506  46.4303014  81.3442864  77.2020445
  47.1749214  81.0879265  77.9556493  45.3944524  80.4537807  76.9128294
  45.3268653  79.5005994  77.4372141  44.4582634  80.7775607  75.9315478
  43.4151124  79.9519388  75.6148596  43.4044358  79.1448074  76.1344985
  44.5475273  81.9757091  75.2555284  43.8149422  82.2318555  74.4901471
  45.5800270  82.8604438  75.5547173  45.6604566  83.8057158  75.0179752
  48.5414274  85.4884710  78.1432199  49.4717709  85.1830225  78.9033437
  48.4973710  86.6395585  77.4421217  47.7443603  86.7739740  76.7825713
  49.5348600  87.6563474  77.5210136  50.4987529  87.1849702  77.3291460
  49.3332279  88.8030195  76.5009539  49.1943207  88.3497281  75.5194596
  48.4278556  89.3399138  76.7840537  50.5336804  89.7994476  76.4483340
  50.3885990  90.4655924  75.5978616  50.5354747  90.3822000  77.3694738
  52.1627107  88.9326646  76.2724780  52.0203373  88.4988947  74.4649301
  51.9189380  89.4120824  73.8784956  52.9142878  87.9616688  74.1481626
  51.1444246  87.8689600  74.3098163  49.6271170  88.1968222  78.9198851
  50.7252930  88.2879772  79.4484966  48.4616954  88.5212212  79.5247346
  47.6449318  88.5045212  78.9308343  48.3089486  88.9849811  80.8931930
  48.8957992  89.8913403  81.0422518  46.8200066  89.3016343  81.2008347
  46.5631041  90.2083313  80.6531113  46.2295915  88.4682155  80.8201470
  46.5235119  89.4992792  82.6678290  46.8166785  90.7014544  83.3066710
  47.2386986  91.5174906  82.7200848  46.5804429  90.8724397  84.6689891
  46.8668923  91.8035299  85.1579877  46.0720458  89.8204423  85.4211678
  45.7807628  89.9966505  86.7608032  45.9673301  90.8856291  87.0714625
  45.7634487  88.6185732  84.8001810  45.3795639  87.7819537  85.3839623
  45.9459249  88.4832248  83.4247886  45.6341100  87.5682713  82.9210707
  48.9068047  87.9782234  81.8673881  49.7418546  88.3572328  82.6775266
  48.5348297  86.7011038  81.7614950  47.8095532  86.4648077  81.0995000
  49.0332242  85.6494348  82.6498334  48.9258000  85.9634216  83.6880875
  48.2390667  84.3428770  82.4452879  48.4144428  84.1535287  81.3862838
  48.6729885  83.5353542  83.0349648  46.7148425  84.4143837  82.7111285
  46.2897650  85.2191143  82.1112796  46.0483340  83.1117576  82.3483923
  46.4725932  82.3065689  82.9482041  44.9782724  83.1840117  82.5429390
  46.2115412  82.9015046  81.2913883  46.3975801  84.8625916  84.1982197
  46.8230965  85.8496160  84.3793776  45.3180855  84.9004810  84.3443603
  46.8331012  84.1463012  84.8948892  50.5387460  85.4109932  82.5337826
  51.1772996  85.2053855  83.5556782  51.1086279  85.4688274  81.3004052
  50.4960002  85.5713448  80.5039902  52.5467126  85.3164977  81.0563270
  52.9067638  84.4303892  81.5790833  52.8537794  85.1647354  79.5737117
  52.0377053  85.6169714  79.0101472  53.7801651  85.6989254  79.3626414
  53.0057856  83.6992727  79.1630293  53.6182846  83.2060198  79.9177793
  52.0112745  83.2532023  79.1546090  53.6535116  83.5260288  77.7883997
  54.6880241  83.8681613  77.8171779  53.6262754  82.4774118  77.4921566
  52.9333036  84.3066047  76.8010600  53.2060134  85.2708586  76.6747937
  51.9239106  83.8370364  76.0857137  51.5764030  82.5570563  76.1740735
  52.0857173  81.9400692  76.7905360  50.8046435  82.2073681  75.6243417
  51.2731056  84.6357048  75.2476519  51.5509111  85.6025940  75.1579332
  50.5033551  84.2725314  74.7038799  53.3109782  86.4871048  81.6413997
  54.3278072  86.2759389  82.3130699  52.7867354  87.7204811  81.4162033
  51.9854540  87.7189581  80.8013495  53.2701728  89.0021401  81.9194897
  54.2825169  89.1827331  81.5580416  52.3662790  90.1440576  81.4368785
  51.3432743  89.7692156  81.4693458  52.4778121  90.9568509  82.1545326
  52.6723033  90.6548038  80.0448856  52.6124784  89.8000677  79.3711290
  51.9455566  91.4080899  79.7407453  54.0513437  91.2494633  79.9460998
  54.2451996  92.4247297  80.2749381  55.0176094  90.4645211  79.4470423
  55.9590680  90.8201259  79.3615877  54.7993942  89.5213928  79.1589581
  53.3543036  89.0592335  83.4281671  54.2950929  89.6761482  83.9398358
  52.3589872  88.4724683  84.1596894  51.5970950  88.0265172  83.6690295
  52.3626924  88.4278396  85.6306264  52.2440437  89.4411853  86.0142304
  51.2230439  87.5492802  86.1953750  51.2829356  86.6669922  85.5581308
  51.5288882  87.2867991  87.2081252  49.7919264  88.0633865  86.2155820
  49.4698788  88.2881949  85.1987992  48.8828163  86.9968023  86.8115193
  49.2039794  86.7717831  87.8285342  47.8558320  87.3616884  86.8277093
  48.9370264  86.0924516  86.2054570  49.6809847  89.3586064  86.9963402
  50.3142734  90.1166535  86.5354613  48.6454865  89.6989287  86.9913094
  50.0033361  89.1925719  88.0242610  53.6729114  87.8130246  86.0818409
  54.4000924  88.4268210  86.8688852  54.0024407  86.6225009  85.5012406
  53.3183989  86.2005455  84.8895708  55.2024538  85.8565998  85.8316345
  55.3911411  85.9206346  86.9032668  55.0396967  84.3933376  85.4536812
  54.8736699  84.3060564  84.3799418  55.9170857  83.8103532  85.7337130
  53.8515556  83.7407222  86.1304735  53.6494571  83.8737608  87.5015493
  54.3384416  84.4889118  88.0803322  52.5827038  83.2328887  88.1368676
  52.4512730  83.3327700  89.2142953  51.6995203  82.4769970  87.4041108
  50.8726209  81.9722810  87.9037096  51.8584704  82.3556180  86.0325102
  51.1405473  81.7803143  85.4479486  52.9419822  82.9726354  85.3986422
  53.0829734  82.8565948  84.3240465  56.4897100  86.4494537  85.2702534
  57.5211817  86.3733655  85.9383722  56.4358747  87.0673608  84.0913299
  55.5715330  87.0275808  83.5703400  57.5911602  87.6958758  83.4653577
  58.4513060  87.0275076  83.5045020  57.2752847  88.0056149  81.9900468
  57.0351844  87.0598078  81.5043515  56.3990773  88.6537972  81.9752019
  58.4121521  88.6776842  81.2507441  58.0965025  89.6824068  80.9696770
  59.2706883  88.7408380  81.9193465  58.7891804  87.9190730  80.0324405
  59.0375641  86.8923151  80.3010903  57.9575919  87.9186884  79.3277705
  59.9472543  88.5264552  79.3879580  60.4877957  89.1968213  79.9157115
  60.3329972  88.2333762  78.1580019  59.6443137  87.3738382  77.4293871
  58.8183907  86.9381513  77.8142611  59.9467149  87.1561210  76.4906367
  61.4082214  88.8146563  77.6402380  61.9313240  89.4820399  78.1889300
  61.6982717  88.5868761  76.6999797  58.0523757  88.9340852  84.2416410
  59.2582031  89.1162978  84.4476140  57.0855727  89.7678545  84.6977844
  56.1512726  89.6126430  84.3469397  57.3360932  90.9734514  85.5119764
  58.1924583  91.5273650  85.1273756  56.0913629  91.9096866  85.5598954
  55.2239308  91.3219286  85.8602325  56.3001960  93.0523962  86.5522988
  57.1672407  93.6409200  86.2523424  55.4159226  93.6895805  86.5648445
  56.4666263  92.6430931  87.5487280  55.7754495  92.4717123  84.1306873
  56.5280341  93.2303166  83.9156599  55.8869705  91.6419332  83.4327409
  54.3870469  93.0778062  83.9802406  54.2749356  93.9080049  84.6775934
  54.2568449  93.4403615  82.9605836  53.6338716  92.3196215  84.1946768
  57.8939272  90.5631702  86.8912543  58.8122161  91.2131099  87.3856001
  57.3963779  89.4491566  87.4716269  56.5903136  89.0191352  87.0409978
  57.8956291  88.8859797  88.7271228  57.9287328  89.6591530  89.4947206
  56.9617749  87.7477283  89.2107189  56.0732874  88.3243631  89.4679764
  56.7369088  87.0900108  88.3711101  57.3942063  86.9009515  90.4252612
  58.3145620  86.3802259  90.1608919  57.6257250  87.7341421  91.6564645
  56.7056184  88.2548459  91.9217383  57.9279694  87.0886118  92.4811097
  58.4115542  88.4634495  91.4597829  56.4173337  85.8049077  90.6673745
  56.3652357  85.1630948  89.7879079  56.7365311  85.2164577  91.5275727
  55.4336416  86.2311591  90.8642464  59.3516464  88.4033868  88.5831178
  60.1845797  88.7501264  89.4219997  59.6562970  87.6415236  87.4926301
  58.8823084  87.4374250  86.8766880  60.9760679  87.0915326  87.1579962
  61.3121824  86.3783870  87.9106912  60.8401693  86.3776863  85.8498922
  59.9044395  85.8259704  85.7597900  60.8621990  87.1779291  85.1101449
  61.9403226  85.4215420  85.4820215  61.9643399  84.1291279  86.0055832
  61.1978329  83.8316793  86.7211888  62.9459468  83.2275601  85.6270750
  62.9854316  82.2365172  86.0791541  63.8747488  83.5880960  84.6749396
  64.6256253  82.8656763  84.3549489  63.8582497  84.8537435  84.1275867
  64.6064572  85.1403205  83.3885608  62.8844445  85.7650120  84.5203437
  62.8562413  86.7588885  84.0736737  62.0621515  88.1907482  87.0506453
  63.1720268  88.0510659  87.5939975  61.6997585  89.2976311  86.3939295
  60.7688035  89.2769297  86.0027856  62.5002850  90.4917755  86.2010939
  63.4357769  90.2556288  85.6939561  61.6993711  91.4714052  85.3246873
  61.5317902  90.9697528  84.3716077  60.7439688  91.6266913  85.8258787
  62.3677343  92.8170634  85.0788852  62.6344984  93.2514183  86.0423548
  63.2716715  92.6518672  84.4926176  61.4512171  93.7636632  84.3358461
  62.0587439  94.4832783  83.7870617  60.8464935  93.1893896  83.6339781
  60.5569119  94.4949146  85.2370739  60.8774789  94.6550375  86.1813709
  59.3675547  94.9740942  84.8803128  58.9023161  94.7704587  83.6509493
  59.4548181  94.2494448  82.9850768  57.9986867  95.1377844  83.3889851
  58.6233545  95.6419454  85.7567635  58.9629236  95.7857224  86.6970406
  57.7219212  96.0023880  85.4781994  62.7876488  91.1128295  87.5713417
  63.9444004  91.3936643  87.8924937  61.7234708  91.3135198  88.3708188
  60.8235726  91.1602193  87.9386367  61.7576299  91.8689918  89.7347946
  62.2463526  92.8432378  89.7444864  60.3237938  92.0356894  90.2460871
  59.8660013  91.0468215  90.2719051  60.2501264  92.6632073  91.6263681
  60.7073414  93.6523595  91.6012298  59.2071299  92.7532187  91.9299391
  60.7829388  92.0352684  92.3404440  59.6372747  92.8694324  89.3164650
  58.7312330  92.9951408  89.6078172  62.6758982  91.0491599  90.6865245
  63.3930575  91.6314229  91.4940680  62.6897789  89.7221896  90.5381896
  61.9990866  89.3194958  89.9210339  63.5336933  88.8216480  91.3111698
  63.6586869  89.2059323  92.3234945  62.8853902  87.4210614  91.3911574
  62.7012413  87.1532586  90.3507391  63.5964531  86.7187487  91.8261819
  61.5583263  87.3644660  92.1796753  60.9025885  88.1522940  91.8089520
  60.8775500  86.0285354  92.0214758  61.5325374  85.2401966  92.3924370
  59.9473269  86.0246536  92.5896049  60.6599189  85.8535706  90.9678514
  61.7572083  87.6623480  93.6448327  62.1778425  88.6613926  93.7591836
  60.7979640  87.6114145  94.1599612  62.4397490  86.9298129  94.0756803
  64.9900222  88.7700333  90.8042369  65.8313224  88.1132329  91.4394441
  65.2873686  89.4884741  89.6811020  64.4633102  89.8344251  89.2106287
  66.6004623  89.6708134  89.0220108  66.4709642  90.3179109  88.1544889
  67.6567690  90.3111716  89.9662325  67.8104925  89.5998856  90.7777377
  68.5883376  90.4396892  89.4150852  67.2584818  91.6456814  90.5613356
  67.4784043  91.9126922  91.7485969  66.6298890  92.5054000  89.7564324
  66.3453018  93.4076991  90.1099381  66.4417757  92.2496095  88.7976387
  67.1329831  88.4002959  88.3586189  68.3412658  88.2144236  88.2393405
  66.2103141  87.5983296  87.8193537  65.2540173  87.8978226  87.9454479
  66.4567548  86.3477341  87.0990907  67.4031669  85.9114373  87.4185409
  65.3123886  85.3296024  87.3974142  64.3367002  85.7116627  87.0971454
  65.5446939  84.4344041  86.8205657  65.1821452  84.8967806  88.8273527
  66.2943643  84.6978197  89.6331674  65.8207399  84.3105392  90.8044991
  66.5416533  84.1233047  91.6003170  64.4946375  84.2185170  90.7895906
  63.8856263  83.9427389  91.5466583  64.0751083  84.5732252  89.5292766
  63.0138223  84.5508958  89.2817394  66.5459478  86.5428957  85.5647757
  65.8328389  87.3702908  84.9883089  67.3669172  85.7094483  84.9070449
  67.8762750  85.0387048  85.4645009  67.5608321  85.6954813  83.4529270
  67.0516847  86.5524658  83.0119670  69.0427435  85.7676055  83.0887463
  69.4207426  84.7502763  83.1900237  69.0742500  86.0636577  82.0401947
  69.9180319  86.7250745  83.9186436  69.8522168  86.3691818  84.9468019
  70.9520095  86.6641638  83.5791111  69.4821462  88.1682382  83.8793968
  69.0898247  88.6981008  82.8330377  69.5921294  88.8515695  85.0167635
  69.3147279  89.8222262  85.0479949  69.9524570  88.3961499  85.8431160
  66.9934483  84.3937320  82.8941844  67.0094080  83.3652051  83.5749485
  66.4860330  84.4274871  81.6604813  66.3940036  85.3071262  81.1727673
  65.9612549  83.2269147  81.0241953  65.5658228  82.5483587  81.7800354
  64.8220066  83.5946838  80.0458951  65.2435216  84.4458290  79.5111277
  64.6585011  82.7729602  79.3486603  63.4944839  83.9977830  80.6755335
  62.5782497  83.0287438  81.1089523  62.8383944  81.9762867  80.9959996
  61.3495528  83.3895717  81.6775367  60.6843690  82.6248534  82.0785833
  60.9831772  84.7316051  81.7366668  59.7531840  85.0812590  82.2550370
  59.2378957  84.3237263  82.5417805  61.8574408  85.7100538  81.2645192
  61.5715841  86.7614138  81.2965912  63.1073687  85.3385127  80.7473981
  63.7988096  86.1022887  80.3915106  67.1536990  82.4734410  80.3377636
  67.1298157  82.2537479  79.1294153  68.2068830  82.1085246  81.1384186
  68.1369908  82.4545283  82.0847251  69.4383209  81.3910216  80.7433692
  69.7213001  81.6852337  79.7326955  70.5965245  81.7161750  81.6898210
  71.4697672  81.1698386  81.3333622  70.7558801  82.7854602  81.5507710
  70.3840525  81.4234841  83.1672118  69.4107436  80.6943424  83.5049085
  71.2158368  81.8871141  83.9879189  69.2963790  79.8617432  80.6001042
  70.2817670  79.1869599  80.2674600  68.0859671  79.3291888  80.8419857
  67.4175699  79.9791062  81.2305110  67.7172622  77.9063692  80.7744046
  66.7152098  77.7881881  81.1867436  67.7275787  77.3462217  79.3312198
  68.6994489  77.3646932  78.8380399  67.4125782  76.3124934  79.4736295
  66.7153375  78.0667451  78.4745526  65.3461305  77.9002262  78.6908199
  65.0174988  77.1580368  79.4183194  64.4049803  78.6613969  77.9970479
  63.3406956  78.5230339  78.1874567  64.8281398  79.6080692  77.0710816
  63.9197361  80.3677979  76.3682217  63.0084642  80.1655880  76.5924855
  66.1823080  79.7862750  76.8360727  66.5199566  80.5107452  76.0949676
  67.1154409  79.0337681  77.5526188  68.1819185  79.1964305  77.3968416
  68.5162959  77.0300890  81.7520898  68.7040482  75.8308106  81.5266805
  68.9276763  77.6345861  82.8704611  68.8630197  78.6404358  82.9351549
  69.5852726  76.9198872  83.9410654  69.9382404  75.9658103  83.5495935
  70.7896657  77.6980219  84.4997887  70.4255860  78.6498847  84.8864457
  71.4968825  76.9513611  85.5938289  71.8616754  75.9995259  85.2077777
  72.3384065  77.5435362  85.9533636  70.8046828  76.7682263  86.4156694
  71.7239247  77.9087322  83.4459503  72.4811395  78.3938966  83.7818694
  68.4655700  76.6140208  84.9341176  68.0910369  77.4794218  85.7301799
  67.8531024  75.4222798  84.8040831  68.1238779  74.8099125  84.0479176
  66.7926493  74.9845118  85.7010081  66.2013126  75.8436687  86.0176616
  65.8688580  73.9868886  85.0000298  66.5135357  73.1734881  84.6670593
  65.1073200  73.5937943  85.6735555  65.1457265  74.4906468  83.7793482
  63.9460288  75.1855362  83.8976538  63.5332829  75.3704337  84.8893965
  63.2687979  75.6464624  82.7590426  62.3561828  76.2315280  82.8727643
  63.7553180  75.3609227  81.4938994  63.2135797  75.6969161  80.6097456
  64.9293140  74.6489697  81.3546832  65.3250456  74.4340723  80.3620524
  65.6181914  74.1986061  82.5021141  66.5321324  73.6143977  82.3948187
  67.4539736  74.3468104  86.9124651  68.6808302  74.3044467  86.9738999
  66.6737170  73.8756691  87.8853780  65.6708098  73.9737841  87.8171878
  67.2315423  73.2457126  89.0894194  67.9553990  73.9161834  89.5526685
  66.1286372  72.9431975  90.1020832  65.3964223  72.3658189  89.5376414
  66.5436332  72.3242191  90.8975352  65.4586714  74.1523368  90.7042576
  66.0428349  75.2544502  90.6441901  64.3811857  73.9914580  91.2816341
  67.9729781  71.9572379  88.7601130  68.9996221  71.6478549  89.3866713
  67.4264336  71.1914814  87.7978156  66.5500651  71.4829842  87.3890326
  67.9866416  69.9050247  87.3907700  68.3195536  69.3585997  88.2732032
  66.9503780  69.0595684  86.6558471  67.4146209  68.1672433  86.2359261
  66.1596563  68.7663906  87.3464309  66.2837571  69.7718180  85.5182312
  66.7620931  69.9283567  84.2522686  67.7438258  69.5034767  84.0430375
  65.8572266  70.6202560  83.4836770  66.0100011  70.9239260  82.5326018
  64.7441715  70.8861254  84.2334681  63.5549552  71.5414813  83.8920659
  63.4067463  71.8594737  82.8600709  62.6379286  71.7434010  84.8992831
  61.7050593  72.2621424  84.6784617  62.8756966  71.2943740  86.2148314
  62.1353425  71.4561162  86.9982948  64.0453860  70.6396586  86.5524530
  64.1791230  70.3113363  87.5831904  65.0046246  70.4175015  85.5464985
  69.2293599  70.0782569  86.5704294  70.1004515  69.2071689  86.6091876
  69.3241024  71.2052476  85.8466547  68.5110459  71.8042001  85.8294938
  70.4659024  71.5642012  85.0108522  70.7298292  70.7927860  84.2874157
  70.1359746  72.8591014  84.2500426  69.7464256  73.5746352  84.9741719
  71.3337315  73.4615711  83.5378392  71.7235713  72.7467439  82.8131692
  71.0299379  74.3723216  83.0217558  72.1088659  73.6988178  84.2665237
  69.0807183  72.5741953  83.3193398  68.8591368  73.3716149  82.8328997
  71.6927971  71.6440993  85.9106521  72.7368552  71.0502588  85.6108570
  71.4976271  72.2811604  87.0715702  70.5904065  72.7160131  87.1607512
  72.4729825  72.4971130  88.1292504  73.4073355  72.8723712  87.7117999
  71.9333183  73.5238108  89.1135813  70.9717975  73.1669120  89.4826344
  72.6353958  73.5990655  89.9439570  71.7556728  74.8846789  88.4793787
  72.7187718  75.1633245  88.0517130  71.0236446  74.7688702  87.6801133
  71.2079451  76.1827916  89.5999994  72.5062872  76.1147450  90.8965898
  73.4794284  76.3140871  90.4478605  72.2981282  76.8647467  91.6596546
  72.5131378  75.1249464  91.3530469  72.9184016  71.2184901  88.8396040
  74.1064913  71.0904679  89.1163844  71.9931179  70.2800422  89.1360875
  71.0205161  70.4853647  88.9572360  72.3281782  69.0063663  89.7978052
  72.9452136  69.2106254  90.6728165  71.0707389  68.2469753  90.2499785
  70.4626856  68.2068523  89.3462304  71.3678841  67.2370259  90.5324795
  70.2617389  68.8718658  91.3781916  70.1092579  69.9290992  91.1611482
  68.9274570  68.1901823  91.5114373  69.0791303  67.1329317  91.7289583
  68.3632472  68.6502068  92.3226990  68.3717764  68.2927463  90.5793429
  71.0114417  68.8225933  92.6914997  71.9492566  69.3698190  92.5958612
  70.4043064  69.2772104  93.4743223  71.2216233  67.7852037  92.9517794
  73.1959907  68.1168794  88.9140318  73.9326226  67.2742529  89.4246148
  73.1257582  68.3470102  87.5906519  72.3988293  68.9895610  87.3099349
  73.8964295  67.6704361  86.5447900  74.2206622  66.6922146  86.8998321
  73.0309880  67.4740958  85.2718790  72.6885560  68.4532167  84.9369730
  73.6555360  67.0245650  84.4998934  71.8177570  66.5714711  85.5381121
  72.2186824  65.5976805  85.8193442  71.2945127  67.0078683  86.3889205
  70.8383919  66.4027230  84.3668333  70.4920869  67.3808495  84.0330065
  71.3359372  65.8929832  83.5417797  69.6503876  65.5760661  84.8298722
  70.0469678  64.7149088  85.3676760  69.0729411  66.1970650  85.5147189
  68.7726762  65.1088007  83.7257423  69.3074558  64.5329972  83.0912656
  68.0092439  64.5691802  84.1079475  68.4047517  65.9066259  83.2275399
  75.2363339  68.4324442  86.2818432  76.0350873  68.0278675  85.4316693
  75.4744617  69.5147605  87.0566358  74.7266828  69.7246672  87.7022868
  76.6720789  70.3591023  87.0823022  77.3959881  69.9830181  86.3593808
  76.3334570  71.8232147  86.7256914  75.5165424  72.1205531  87.3832169
  77.2205086  72.4116253  86.9602385  75.9293603  72.0675621  85.2659349
  76.8358236  71.9624611  84.6697983  75.2056843  71.3111286  84.9622848
  75.3316591  73.4463757  85.0051733  75.1468891  74.2748577  85.9109760
  74.9796376  73.7162312  83.7521207  74.5789075  74.6152979  83.5258557
  75.1145101  73.0209701  83.0320354  77.1788743  70.2980334  88.5261851
  76.5272082  70.2071634  89.2786457  78.1586880  70.3487991  88.7197667
  74.7215512  53.3918427  62.5954610  75.0253003  54.7742011  63.1604379
  76.3158058  55.3150620  62.5544231  77.4590267  54.3606767  62.6748710
  77.1331979  53.0454100  62.9293629  75.9167674  52.4507915  62.6929592
  71.3660664  52.2648339  63.6535509  72.0988886  51.8452417  64.7469172
  73.5474770  52.1575942  64.5309995  73.5369670  52.8182600  63.2265348
  72.2910681  52.8629983  62.6740065  69.3672850  51.4973621  64.6497808
  70.0971650  51.0725092  65.7595687  71.4794316  51.2336184  65.8357193
  69.9905928  52.1023196  63.5764622  72.0254643  53.3212825  61.5662213
  72.1941959  50.8166694  66.9233477  75.8318809  51.2518702  62.5458436
  78.6207569  54.7003235  62.5612928  76.1677953  55.5181618  61.6176049
  76.5491332  56.1485801  62.9923442  74.2914245  55.3781568  62.9686757
  75.1081980  54.7263662  64.1255248  71.7913337  50.4418638  67.5842431
  73.0466027  50.9296314  66.9465030  73.9003050  52.7355274  65.2257201
  74.0924345  51.3556018  64.5254819  77.7491663  52.5497438  63.2681122
  69.4888508  52.4005613  62.8020974  69.6295846  50.6526521  66.4989939
  68.4064142  51.3663474  64.6314912  74.5342160  53.5041161  61.6506344
  44.7097088  58.7363108  92.3787410  43.3445992  50.7079984  95.0116722
  63.5215307  78.9466876  68.2165311  32.2423581  60.6750100  75.1367509
  77.5190075  69.7965501  71.8642152  35.2371376  66.3119439  60.9190199
  76.4958316  46.8163463  40.0339403  77.1003261  47.3524731  40.5471520
  75.6739742  47.3069784  40.0418331  86.2315206  50.9442282  42.7489146
  86.8360151  51.4803550  43.2621264  85.4096632  51.4348603  42.7568075
  70.8688050  56.1730840  32.6721373  71.4732995  56.7092109  33.1853490
  70.0469476  56.6637162  32.6800301  85.5379696  59.0433652  23.9814997
  86.1424641  59.5794921  24.4947114  84.7161121  59.5339974  23.9893926
  88.1562346  51.9985979  22.3257817  88.7607291  52.5347247  22.8389934
  87.3343772  52.4892300  22.3336746  54.0873924  47.1048780  61.4526723
  54.6918868  47.6410049  61.9658840  53.2655349  47.5955102  61.4605652
  61.4761764  57.9133059  61.5552863  62.0806708  58.4494327  62.0684981
  60.6543189  58.4039380  61.5631792  55.6858391  43.7011574  73.4098706
  56.2903336  44.2372842  73.9230823  54.8639817  44.1917895  73.4177634
  62.9395651  60.7316426  68.2217513  63.5440595  61.2677694  68.7349630
  62.1177076  61.2222747  68.2296441  68.0956260  59.2706615  71.9689945
  68.7001205  59.8067884  72.4822062  67.2737686  59.7612937  71.9768873
  50.9350796  61.5540474  74.0604793  51.5395741  62.0901743  74.5736910
  50.1132222  62.0446796  74.0683722  38.6434889  58.0013767  67.3633627
  39.2479834  58.5375035  67.8765745  37.8216315  58.4920088  67.3712556
  57.0533064  75.1279175  65.0267526  57.6578009  75.6640443  65.5399643
  56.2314489  75.6185496  65.0346455  64.0686912  62.4540778  70.1618382
  64.6731856  62.9902047  70.6750499  63.2468337  62.9447100  70.1697310
  56.0712964  60.6832481  91.5312015  56.6757909  61.2193750  92.0444133
  55.2494390  61.1738803  91.5390944  60.0579862  59.7379902  89.0986209
  60.6624806  60.2741170  89.6118326  59.2361287  60.2286223  89.1065137
  59.8944614  64.1238778  94.9695212  60.4989559  64.6600046  95.4827330
  59.0726040  64.6145099  94.9774141  57.9816119  71.9004669  96.3988526
  58.5861064  72.4365937  96.9120644  57.1597545  72.3910990  96.4067455
  65.7950540  72.5131141  93.9004967  66.3995485  73.0492409  94.4137085
  64.9731966  73.0037462  93.9083896  63.5526702  79.7844369  95.4549923
  64.1571646  80.3205637  95.9682040  62.7308127  80.2750690  95.4628852
  59.6610612  73.8908622  95.8646259  60.2655557  74.4269891  96.3778377
  58.8392038  74.3814944  95.8725188  59.0747711  77.6908202  94.1727842
  59.6792655  78.2269470  94.6859960  58.2529136  78.1814523  94.1806771
  64.7957114  81.2629194  92.5433455  65.4002059  81.7990462  93.0565573
  63.9738540  81.7535515  92.5512384  66.3389603  77.5820030  87.8023664
  66.9434548  78.1181298  88.3155781  65.5171029  78.0726351  87.8102593
  57.8963707  83.5327162  83.4654215  58.5008651  84.0688431  83.9786332
  57.0745132  84.0233484  83.4733143  61.3500703  78.8030774  79.7108908
  61.9545647  79.3392043  80.2241025  60.5282128  79.2937096  79.7187836
  56.7080540  81.2161798  76.3069902  57.3125485  81.7523066  76.8202019
  55.8861966  81.7068119  76.3148831  55.6874847  83.9349660  81.8831756
  56.2919792  84.4710929  82.3963873  54.8656273  84.4255982  81.8910685
  57.1307827  85.9887921  77.9928716  57.7352771  86.5249189  78.5060833
  56.3089252  86.4794242  78.0007644  60.7480348  80.8920625  78.2004462
  61.3525293  81.4281894  78.7136580  59.9261774  81.3826947  78.2083391
  58.6074061  78.4312196  73.7524657  59.2119006  78.9673464  74.2656775
  57.7855487  78.9218517  73.7603586  47.3659956  78.5352179  66.1874903
  47.9704901  79.0713448  66.7007021  46.5441382  79.0258501  66.1953832
  66.2685614  73.5595812  73.9900800  66.8730559  74.0957080  74.5032917
  65.4467040  74.0502133  73.9979729  64.3119235  65.5555899  68.1591482
  64.9164180  66.0917167  68.6723599  63.4900661  66.0462220  68.1670410
  41.8273051  80.3683118  73.1352381  42.4317996  80.9044387  73.6484499
  41.0054477  80.8589440  73.1431310  29.4828768  80.8869548  71.4422852
  30.0873713  81.4230816  71.9554969  28.6610194  81.3775869  71.4501780
  36.2706665  78.4595711  76.9349158  36.8751610  78.9956980  77.4481276
  35.4488091  78.9502033  76.9428087  22.6781003  70.4102052  82.5945576
  23.2825947  70.9463320  83.1077693  21.8562428  70.9008373  82.6024505
  36.8828484  79.6234348  79.2877866  37.4873428  80.1595617  79.8009983
  36.0609909  80.1140670  79.2956794  41.6801617  76.8255571  95.8136040
  42.2846561  77.3616839  96.3268158  40.8583042  77.3161892  95.8214969
  53.5549768  90.8401941  88.0681229  54.1594713  91.3763210  88.5813346
  52.7331194  91.3308263  88.0760157  56.3388261  92.0067096  90.7680085
  56.9433206  92.5428364  91.2812203  55.5169687  92.4973417  90.7759014
  44.3065567  88.3955580  93.4076450  44.9110511  88.9316848  93.9208568
  43.4846992  88.8861901  93.4155379  38.4362389  86.9818152  85.5854945
  39.0407333  87.5179420  86.0987063  37.6143814  87.4724473  85.5933874
  38.3690257  88.4283767  83.3030182  38.9735202  88.9645035  83.8162300
  37.5471683  88.9190088  83.3109111  45.8729996  86.9564733  74.9575041
  46.4774941  87.4926001  75.4707158  45.0511422  87.4471054  74.9653969
  55.1277300  87.7883755  78.1906303  55.7322245  88.3245024  78.7038420
  54.3058726  88.2790077  78.1985232  61.2535201  90.8538699  81.3080577
  61.8580146  91.3899967  81.8212695  60.4316627  91.3445020  81.3159506
  63.2089239  90.9558984  79.3720104  63.8134184  91.4920253  79.8852221
  62.3870665  91.4465306  79.3799033  59.5175312  92.7108884  81.9295217
  60.1220257  93.2470153  82.4427335  58.6956738  93.2015206  81.9374146
  58.7172693  95.5432190  88.6644571  59.3217638  96.0793458  89.1776688
  57.8954119  96.0338511  88.6723499  55.7401814  96.7520208  85.3129400
  56.3446758  97.2881476  85.8261518  54.9183239  97.2426529  85.3208329
  64.6920505  93.9895759  90.7272359  65.2965449  94.5257028  91.2404477
  63.8701930  94.4802081  90.7351288  68.6869109  55.7772487 132.4482403
  68.0130808  56.0804184 133.0567361  69.0734931  56.5801567 132.0987860
  70.7776579  47.5680700 130.9829843  70.1605750  46.8427528 130.8862896
  70.3093068  48.3290060 130.6396917  72.6525850  53.3557971 133.7222226
  73.3476754  53.9764663 133.9409541  72.9949000  52.5053322 133.9974604
  66.7440718  53.4619722 132.6297320  66.1714685  54.0809909 132.1767792
  67.3173512  54.0119084 133.1637242  69.9637978  53.7456872 133.7605902
  70.8968651  53.6802434 133.9638778  69.8761191  54.5813139 133.3020435
  72.5925995  53.0622743 130.7209850  72.5139626  52.7282606 131.6145608
  73.4135662  53.5544511 130.7201322  70.1629946  50.3790738 130.3419828
  70.8665797  50.5840741 130.9577484  69.4392595  50.9467500 130.6068911
  72.0716644  50.8173267 132.3918288  72.9062248  50.3854466 132.2095763
  71.9100987  50.6455281 133.3195182  73.5330499  57.2710815 132.9053241
  72.6967811  57.6085501 133.2262515  73.3935269  57.1359794 131.9680378
  73.4068879  57.1158042 130.1051147  72.5298346  56.9946843 129.7413394
  73.8826633  56.3244120 129.8530036  71.1087348  58.0557045 133.6632803
  70.4156593  58.1301400 133.0072839  70.8639100  57.2917388 134.1854320
  76.1524188  58.0522429 129.9068257  75.2455644  57.7555542 129.9830971
  76.4300169  57.7552247 129.0402544  74.9222973  54.9109364 130.0480237
  75.7842137  55.2364263 130.3076054  75.1073317  54.1240860 129.5353302
  75.8752416  52.1505407 133.3359946  75.8631086  53.0947247 133.4928217
  76.7675838  51.9675553 133.0419407  68.6869110  32.7834610 119.1727710
  68.0130809  33.0866306 119.7812667  69.0734932  33.5863690 118.8233167
  70.7776580  24.5742823 117.7075150  70.1605751  23.8489651 117.6108202
  70.3093069  25.3352183 117.3642224  72.6525851  30.3620093 120.4467533
  73.3476756  30.9826786 120.6654847  72.9949001  29.5115444 120.7219911
  66.7440720  30.4681845 119.3542626  66.1714687  31.0872032 118.9013098
  67.3173513  31.0181207 119.8882548  69.9637979  30.7518995 120.4851209
  70.8968652  30.6864557 120.6884084  69.8761192  31.5875262 120.0265741
  72.5925996  30.0684865 117.4455156  72.5139627  29.7344729 118.3390914
  73.4135663  30.5606633 117.4446629  70.1629948  27.3852861 117.0665135
  70.8665798  27.5902863 117.6822790  69.4392597  27.9529623 117.3314218
  72.0716645  27.8235390 119.1163595  72.9062249  27.3916588 118.9341069
  71.9100988  27.6517404 120.0440489  80.7000920  38.3405041 129.2118771
  81.3379330  38.2211788 128.5082111  80.5821763  39.2885885 129.2706723
  77.5090627  38.2932469 129.1480296  77.1709138  38.1773534 128.2600831
  78.3780395  37.8923634 129.1281302  73.3677442  40.1467946 125.1377187
  72.8042307  40.0557882 124.3693475  73.2529837  39.3267850 125.6179680
  78.9477001  43.8138913 120.4491652  78.2964981  44.3992994 120.0625666
  79.7421364  44.3445108 120.5086689  72.8732628  40.9028050 120.8478786
  73.6463504  40.3557037 120.7091662  73.2258027  41.7672300 121.0593248
  75.2098906  37.0620717 118.4797236  75.4624427  36.5402238 117.7180699
  74.2723465  36.8986862 118.5823920  80.2542189  36.0656495 126.2871979
  81.0405278  35.6475918 125.9362396  80.5180893  36.9702587 126.4553628
  80.4252266  41.5029345 120.9860636  79.7898099  41.5763972 121.6981541
  80.0949673  42.0922944 120.3079715  74.9295195  38.9648822 120.6821611
  74.8131453  38.2893726 121.3502695  75.0397455  38.4781196 119.8653764
  77.2726736  38.4258970 124.3868300  76.9084943  37.8989591 125.0981222
  78.1293852  38.0357439 124.2134786  76.9132223  33.4548869 119.3829649
  77.0806625  34.3229106 119.7500120  76.7229392  33.6176151 118.4590938
  79.6707556  41.9165848 131.0495479  79.3708279  42.8190887 130.9411286
  79.3258615  41.6498031 131.9016632  76.8921443  35.9106527 120.3676316
  76.7721069  36.3563578 121.2061796  76.1974032  36.2591844 119.8089854
  74.6528336  48.6810169 124.0166447  74.5752365  49.6317994 124.0954927
  74.0489979  48.3356041 124.6741373  82.5906510  36.3828000 121.1956650
  83.5024366  36.6155387 121.0204347  82.0816157  36.9665044 120.6331728
  81.1976092  41.3653818 128.5870231  80.5684954  41.5299533 127.8846299
  80.8101754  41.7795428 129.3581195  85.0765324  42.3008256 125.9414595
  84.3916362  42.6807158 125.3911628  85.1609173  42.9103583 126.6746543
  76.7504054  41.1028227 125.8520316  77.2142399  41.3815929 125.0624939
  76.4860852  40.2011671 125.6693407  75.6872940  37.2251379 122.6609881
  76.3896983  37.6772423 123.1283808  75.3553568  36.5835198 123.2889775
  83.4462083  42.8240171 130.7132296  84.2679527  42.4220358 130.4314977
  83.4424486  42.7208405 131.6648412  76.9266704  44.0392321 122.7371987
  76.7912379  44.8843857 123.1656834  77.4676517  44.2411599 121.9737920
  70.3796102  41.5567760 123.3099912  70.8920622  42.3511010 123.4605476
  71.0318815  40.8594050 123.2433513  72.1890987  44.6733516 125.3922665
  72.3657615  45.5951481 125.2043649  72.9847820  44.3591935 125.8217045
  73.3122302  46.1911690 131.3933007  73.8629727  46.0628753 130.6210001
  72.4733778  46.4906579 131.0427900  68.3445019  39.8856414 124.0859482
  69.1820241  40.2953422 123.8693190  68.5223286  38.9455856 124.0559676
  80.2409451  37.5531494 119.7743315  79.7256074  38.3236099 120.0131703
  79.9686759  36.8796631 120.3976377  77.8256562  32.3981195 124.8328554
  76.9698158  32.0088046 124.6534192  78.2383514  32.4773156 123.9728339
  85.2143725  40.3063849 121.7096489  84.4373168  39.9675009 121.2651651
  85.8935206  40.3116472 121.0351454  80.0295754  35.4258587 121.6003096
  79.7245889  35.7404736 122.4513240  80.9826196  35.5040006 121.6430429
  78.4742186  41.5848810 123.2496050  77.9463547  40.8501569 122.9369288
  77.9729688  42.3623486 123.0036019  83.4535032  39.7797830 128.3663097
  82.7958706  40.4697092 128.4543225  84.2575431  40.1694262 128.7097083
  82.2640491  38.1342203 126.4167038  82.7772372  38.7672195 126.9188748
  82.9141714  37.5343399 126.0510398  73.5330500  34.2772937 119.6298547
  72.6967813  34.6147624 119.9507822  73.3935270  34.1421917 118.6925684
  76.6194786  39.4029020 116.2531023  75.7121848  39.1718274 116.4522172
  77.1165818  38.6066639 116.4405005  79.5262865  48.1126527 119.1727710
  78.8524564  48.4158224 119.7812667  79.9128687  48.9155608 118.8233167
  79.5256369  37.0083074 123.7928059  80.2728188  37.5204472 123.4835181
  79.7947959  36.6867127 124.6532453  77.7983019  39.5041615 120.7755014
  76.8894239  39.2200648 120.8727483  77.8278103  39.9240694 119.9158320
  83.0302287  43.1148205 124.5446181  82.5764614  42.2739114 124.6011372
  82.3996254  43.7509603 124.8820961  81.9735206  34.0440191 125.7746849
  81.2357963  33.5317577 126.1057091  82.2261980  33.6040572 124.9630125
  81.4735226  44.9524701 125.4795999  81.7658200  45.5129758 124.7608365
  81.9833847  45.2453262 126.2349158  76.3467913  37.1170236 126.8764809
  76.4016523  36.1644072 126.8007285  75.5359115  37.2729675 127.3606107
  77.4959107  41.0450359 118.1143092  77.0578537  40.3286218 117.6548729
  78.2369548  41.2726474 117.5528183  74.2860273  35.7347295 124.6355188
  73.4728139  36.0341466 125.0420380  74.7819268  35.3402984 125.3529670
  76.4368851  45.7305052 126.5689452  76.3945030  45.9565899 125.6397984
  77.3531550  45.4968427 126.7175254  85.6132222  39.3207556 124.1719411
  85.4750121  39.5109152 123.2440600  85.2568441  40.0826939 124.6287462
  74.5534652  42.6068081 126.3651415  75.3475251  42.1118401 126.1633990
  73.8426344  42.0785944 126.0019121  79.3729496  44.9886177 130.7163783
  79.4266519  45.5577113 131.4841499  78.5044278  45.1588062 130.3517820
  70.8617415  36.7511163 122.4411168  69.9315004  36.6895619 122.6581130
  70.9574887  36.2287116 121.6447809  77.1305928  43.1797103 130.0449252
  76.9917014  42.8115888 130.9175190  76.3420524  43.6944743 129.8733210
  77.7254080  48.2806200 121.3874789  77.9005836  47.8094243 122.2020411
  77.0386868  48.9071966 121.6156049  78.6811143  42.5578706 127.4338090
  78.3460976  42.5179476 128.3295740  78.1815089  41.8923422 126.9608500
  81.6170335  39.9034740 117.7075150  80.9999505  39.1781569 117.6108202
  81.1486823  40.6644101 117.3642224  72.2915165  51.4295563 128.1614649
  72.5311763  52.0614087 128.8393667  71.4484362  51.0783603 128.4480008
  73.4068881  34.1220165 116.8296454  72.5298347  34.0008965 116.4658701
  73.8826634  33.3306243 116.5775343  76.8043027  47.2374685 130.5656153
  76.7313199  48.0429656 131.0775457  76.3620420  47.4366651 129.7404174
  76.5932807  46.4746455 124.0758974  75.8100329  47.0168135 124.1697199
  77.2925552  46.9920435 124.4753216  79.9029457  32.2841084 126.7193180
  80.3998156  31.5311047 126.3994250  79.1316438  32.3205401 126.1536389
  79.2641711  47.1361519 132.7214312  79.9769683  47.7708984 132.6490213
  78.7731739  47.2325385 131.9054313  80.9859238  41.0412772 124.2931603
  80.0515516  41.1614234 124.1236308  81.1635906  40.1385238 124.0291613
  84.3731789  36.8830091 124.8281637  84.8392241  37.7158083 124.7541940
  84.8239289  36.4175073 125.5326896  82.4408020  43.2273912 121.8267789
  82.7167864  43.1130507 122.7361664  81.5712519  42.8291397 121.7879963
  79.0762084  47.4760263 125.4700603  79.2584479  46.6581919 125.9328355
  79.8995070  47.6927955 125.0325493  79.4104250  46.4028448 122.7315652
  79.9392016  45.8920903 122.1185814  79.6732469  46.0870978 123.5961185
  72.7659997  47.4543565 125.4913427  72.0970373  47.9389693 125.0077468
  72.6272867  47.7012785 126.4056806  76.9065266  49.4887308 132.0896086
  77.4583574  49.6518930 132.8545171  77.2471460  50.0791746 131.4176111
  68.1347575  35.7162020 122.2709360  68.4301016  34.8072698 122.2176413
  67.2335610  35.6949759 121.9490362  80.0433653  47.4369284 129.0759768
  79.9184793  46.6359024 128.5670713  80.7012744  47.9315477 128.5873738
  82.1068562  45.2378304 130.7039318  81.1598897  45.1183655 130.6317645
  82.4551335  44.3500802 130.7865580  69.8635416  33.3976118 122.3948685
  69.5348122  32.5173496 122.2123791  70.2174787  33.3423786 123.2825074
  79.1114995  45.0331020 126.9043670  78.9639957  44.1047728 127.0851240
  79.9368489  45.0551111 126.4200746  72.9777239  33.6849087 122.7624162
  73.3173312  34.2135009 122.0402771  73.4249360  34.0229493 123.5382729
  82.7149117  45.8559579 127.9908543  83.6395664  45.6502440 127.8532994
  82.5464420  45.6075980 128.8997885  74.9645386  32.1823709 120.9617455
  75.6853749  32.5604962 120.4581172  74.3410691  32.9012586 121.0652433
  79.1076509  32.8868858 121.8975788  79.3240124  33.7693496 121.5964616
  78.6270576  32.4955071 121.1681430  82.5044433  46.3745246 123.3470635
  82.6781311  45.8091669 122.5944487  82.9973324  47.1746141 123.1650124
  75.1109010  31.7171499 123.7914992  75.2324921  30.7888146 123.9905879
  74.8211052  31.7310185 122.8793307  88.3583824  39.1381669 124.9660934
  88.8014970  38.3888995 124.5680058  87.4810335  39.1291806 124.5834666
  83.4919606  45.6912011 120.4467533  84.1870510  46.3118704 120.6654847
  83.8342756  44.8407362 120.7219911  85.3911029  43.1411716 121.9754864
  85.9162353  43.4798989 121.2504184  85.3033381  42.2058732 121.7917998
  77.0751689  49.2083700 126.3350117  76.6356680  48.7160078 127.0282973
  77.8259806  48.6656667 126.0942192  69.5544028  45.3995241 126.3374745
  70.3802048  45.0999012 125.9573388  69.2038080  44.6302863 126.7864533
  74.5225562  44.7521709 128.4072418  73.9005571  44.0892414 128.1074646
  75.1930428  44.7782841 127.7246066  67.7552633  43.3181567 127.2963678
  66.9184542  42.8903741 127.1147680  67.7276279  43.5114010 128.2334470
  74.0839068  43.3025632 121.8830879  74.2327189  43.9861096 121.2297552
  74.8905512  43.2830722 122.3980335  71.8391701  39.3290810 122.8891948
  71.5937743  38.4253140 123.0872158  72.0087616  39.3307960 121.9471426
  71.1087349  35.0619167 120.3878109  70.4156594  35.1363522 119.7318145
  70.8639101  34.2979511 120.9099626  77.5834474  45.7973763 119.3542626
  77.0108441  46.4163950 118.9013098  78.1567268  46.3473124 119.8882548
  80.8031734  46.0810913 120.4851209  81.7362407  46.0156474 120.6884084
  80.7154947  46.9167180 120.0265741  83.4319750  45.3976783 117.4455156
  83.3533382  45.0636647 118.3390914  84.2529417  45.8898551 117.4446629
  77.9681272  37.1334575 116.6958679  78.9140377  37.0040783 116.7647097
  77.5895517  36.3949237 117.1728107  76.1524190  35.0584552 116.6313564
  75.2455645  34.7617664 116.7076278  76.4300171  34.7614370 115.7647850
  77.7686255  29.6021441 122.7857805  76.9586984  29.2568526 123.1613051
  78.4570672  29.2928985 123.3745417  74.9222974  31.9171487 116.7725543
  75.7842138  32.2426385 117.0321361  75.1073318  31.1302983 116.2598609
  83.0755611  30.7900013 123.9160766  82.4954280  31.4484817 123.5338819
  82.8091543  29.9677358 123.5048184  81.8580489  32.9500104 122.9717115
  80.9706344  33.2349754 122.7537309  82.2734478  32.7893867 122.1244391
  69.8664739  47.5307855 128.0588559  69.7319207  46.7708256 127.4926557
  69.4496801  48.2548755 127.5917348  81.0023702  42.7144778 117.0665135
  81.7059552  42.9194781 117.6822790  80.2786351  43.2821540 117.3314218
  81.8321513  38.4654640 123.1867405  81.7756714  38.9223191 122.3475037
  82.3849855  37.7045324 123.0090247  85.6426318  34.2544372 124.0117524
  85.3863253  33.8541007 124.8425732  85.0179186  34.9688165 123.8867663
  73.0233865  48.4277172 128.2707002  72.9066249  49.3722604 128.1685692
  72.2026311  48.1250733 128.6592801  82.9110400  43.1527308 119.1163595
  83.7456004  42.7208506 118.9341069  82.7494743  42.9809321 120.0440489
  82.5656292  39.6559421 120.4819934  82.5105096  39.4903692 119.5408378
  81.9402347  40.3635454 120.6382124  75.8752417  29.1567530 120.0605252
  75.8631087  30.1009370 120.2173523  76.7675839  28.9737675 119.7664713
  74.0488379  49.0805434 131.4862930  74.9515626  49.1129044 131.8029425
  73.8225749  48.1505885 131.5009266  75.8041981  47.8336420 128.1473009
  74.8537612  47.8338282 128.0337381  76.1074467  47.0869155 127.6309044
  88.3484381  53.6224387 129.1480296  88.0102893  53.5065452 128.2600831
  89.2174149  53.2215552 129.1281302  84.2071197  55.4759863 125.1377187
  83.6436062  55.3849800 124.3693475  84.0923592  54.6559768 125.6179680
  81.7535629  56.9711055 127.9761407  82.5456921  56.6301879 127.5607707
  81.9932279  57.0806030 128.8963561  89.7870755  59.1430831 120.4491652
  89.1358735  59.7284911 120.0625666  90.5815118  59.6737026 120.5086689
  83.7126383  56.2319968 120.8478786  84.4857259  55.6848955 120.7091662
  84.0651781  57.0964217 121.0593248  86.0492660  52.3912634 118.4797236
  86.3018181  51.8694155 117.7180699  85.1117219  52.2278780 118.5823920
  91.0935943  51.3948413 126.2871979  91.8799032  50.9767836 125.9362396
  91.3574648  52.2994505 126.4553628  91.2646021  56.8321263 120.9860636
  90.6291854  56.9055889 121.6981541  90.9343427  57.4214862 120.3079715
  85.7688949  54.2940740 120.6821611  85.6525207  53.6185644 121.3502695
  85.8791209  53.8073114 119.8653764  88.1120490  53.7550887 124.3868300
  87.7478697  53.2281508 125.0981222  88.9687606  53.3649356 124.2134786
  87.7525977  48.7840787 119.3829649  87.9200379  49.6521023 119.7500120
  87.5623146  48.9468069 118.4590938  83.9613792  53.6971563 127.0832184
  83.0364288  53.5647777 127.2909875  84.2098205  54.4765782 127.5802126
  87.7315198  51.2398444 120.3676316  87.6114823  51.6855495 121.2061796
  87.0367786  51.5883762 119.8089854  81.3222603  53.3404836 127.9175973
  81.4514984  53.5939315 128.8315384  80.6420054  53.9332544 127.5980628
  85.4922090  64.0102086 124.0166447  85.4146120  64.9609911 124.0954927
  84.8883734  63.6647959 124.6741373  93.4300264  51.7119918 121.1956650
  94.3418120  51.9447304 121.0204347  92.9209911  52.2956962 120.6331728
  87.5897808  56.4320144 125.8520316  88.0536154  56.7107847 125.0624939
  87.3254606  55.5303589 125.6693407  84.4821889  55.9791626 128.7900080
  85.0523246  56.4078894 128.1517564  85.0730001  55.6974210 129.4884265
  86.5266694  52.5543297 122.6609881  87.2290738  53.0064340 123.1283808
  86.1947323  51.9127115 123.2889775  80.2692028  50.8126849 127.9627015
  79.4791082  51.0684378 127.4867126  80.7603276  51.6275187 128.0679056
  82.2206774  51.1771428 124.9210492  81.4237937  51.2890123 125.4393987
  81.9932366  51.5158081 124.0551382  78.5529731  51.0657340 130.3942006
  78.8037770  51.9504350 130.6599582  79.0889280  50.8861941 129.6217098
  87.7660459  59.3684239 122.7371987  87.6306134  60.2135775 123.1656834
  88.3070271  59.5703517 121.9737920  81.2189856  56.8859677 123.3099912
  81.7314377  57.6802927 123.4605476  81.8712569  56.1885968 123.2433513
  83.0284741  60.0025433 125.3922665  83.2051369  60.9243398 125.2043649
  83.8241575  59.6883853 125.8217045  79.1838773  55.2148332 124.0859482
  80.0213995  55.6245340 123.8693190  79.3617041  54.2747774 124.0559676
  91.0803205  52.8823412 119.7743315  90.5649829  53.6528017 120.0131703
  90.8080514  52.2088548 120.3976377  88.6650316  47.7273113 124.8328554
  87.8091913  47.3379963 124.6534192  89.0777268  47.8065074 123.9728339
  86.4392349  45.3458186 128.2386295  87.3045346  45.1500995 127.8792185
  86.5069858  45.1168538 129.1655652  96.0537479  55.6355767 121.7096489
  95.2766922  55.2966926 121.2651651  96.7328960  55.6408390 121.0351454
  90.8689508  50.7550504 121.6003096  90.5639644  51.0696653 122.4513240
  91.8219951  50.8331924 121.6430429  89.3135940  56.9140728 123.2496050
  88.7857302  56.1793487 122.9369288  88.8123443  57.6915404 123.0036019
  84.0454668  47.5760394 125.6102662  84.6198420  47.3535575 124.8775855
  84.6325650  47.6449088 126.3631263  93.1034245  53.4634121 126.4167038
  93.6166127  54.0964113 126.9188748  93.7535469  52.8635316 126.0510398
  84.3724255  49.6064855 119.6298547  83.5361567  49.9439541 119.9507822
  84.2329025  49.4713835 118.6925684  86.3477336  44.4501643 124.3377731
  85.6941748  44.1350660 123.7134346  86.3057810  43.8277383 125.0637554
  87.4588540  54.7320938 116.2531023  86.5515602  54.5010191 116.4522172
  87.9559572  53.9358557 116.4405005  90.3656619  63.4418445 119.1727710
  89.6918318  63.7450142 119.7812667  90.7522441  64.2447525 118.8233167
  89.5815076  50.9383576 128.6625379  88.6637637  51.1598523 128.5047067
  89.9975220  51.0129887 127.8037086  90.3650124  52.3374992 123.7928059
  91.1121943  52.8496389 123.4835181  90.6341713  52.0159045 124.6532453
  88.6376774  54.8333533 120.7755014  87.7287993  54.5492566 120.8727483
  88.6671858  55.2532611 119.9158320  92.8128961  49.3732108 125.7746849
  92.0751718  48.8609494 126.1057091  93.0655734  48.9332490 124.9630125
  79.2064944  52.5539047 124.7570216  79.0089344  51.9608408 124.0321282
  78.6511608  52.2491257 125.4746155  87.1861668  52.4462153 126.8764809
  87.2410278  51.4935990 126.8007285  86.3752870  52.6021592 127.3606107
  88.3352862  56.3742276 118.1143092  87.8972292  55.6578135 117.6548729
  89.0763303  56.6018391 117.5528183  85.1254028  51.0639213 124.6355188
  84.3121893  51.3633384 125.0420380  85.6213022  50.6694902 125.3529670
  96.4525976  54.6499473 124.1719411  96.3143875  54.8401069 123.2440600
  96.0962195  55.4118856 124.6287462  84.6168103  48.6357569 130.2516423
  85.2567482  48.4946328 129.5539386  83.7845633  48.3492082 129.8755025
  85.3928407  57.9359999 126.3651415  86.1869005  57.4410319 126.1633990
  84.6820099  57.4077862 126.0019121  81.7011170  52.0803081 122.4411168
  80.7708758  52.0187536 122.6581130  81.7968642  51.5579033 121.6447809
  81.6196719  48.6057894 125.0289409  81.8803536  49.5203227 124.9198570
  82.4413891  48.1382336 125.1786022  83.0921644  50.0195651 132.1988234
  83.7644698  49.8113013 131.5500883  82.2651431  49.8217737 131.7593466
  88.5647834  63.6098117 121.3874789  88.7399590  63.1386161 122.2020411
  87.8780622  64.2363884 121.6156049  92.4564089  55.2326658 117.7075150
  91.8393260  54.5073486 117.6108202  91.9880578  55.9936018 117.3642224
  84.2462635  49.4512082 116.8296454  83.3692102  49.3300883 116.4658701
  84.7220388  48.6598161 116.5775343  75.7664775  54.2389242 126.9237961
  76.4535815  53.9250972 126.3358976  75.6112904  55.1430607 126.6505213
  80.5699497  49.1279439 131.3522985  80.4857686  48.5205108 130.6173395
  79.7482204  49.6188457 131.3532481  87.4326561  61.8038373 124.0758974
  86.6494083  62.3460053 124.1697199  88.1319306  62.3212352 124.4753216
  90.7423211  47.6133002 126.7193180  91.2391911  46.8602964 126.3994250
  89.9710193  47.6497319 126.1536389  91.8252992  56.3704689 124.2931603
  90.8909271  56.4906152 124.1236308  92.0029661  55.4677156 124.0291613
  87.3258180  49.7550385 126.4464864  86.9555968  49.2021426 127.1345770
  87.8217273  49.1508519 125.8939864  95.2125543  52.2122009 124.8281637
  95.6785996  53.0450000 124.7541940  95.6633044  51.7466990 125.5326896
  93.2801775  58.5565830 121.8267789  93.5561618  58.4422425 122.7361664
  92.4106273  58.1583315 121.7879963  90.2498004  61.7320366 122.7315652
  90.7785770  61.2212820 122.1185814  90.5126224  61.4162896 123.5961185
  75.3432751  52.3189835 129.1955428  75.3816851  51.7853426 129.9892546
  74.8373044  51.7925041 128.5766405  82.7223514  47.1654376 132.6917971
  82.7864840  48.0269207 132.2795368  82.6590634  46.5528378 131.9590329
  78.9741329  51.0453938 122.2709360  79.2694770  50.1364616 122.2176413
  78.0729365  51.0241677 121.9490362  82.5035576  49.1209934 128.2536908
  81.7822162  49.7345902 128.1144382  83.2928832  49.6567699 128.1753554
  80.7029171  48.7268035 122.3948685  80.3741877  47.8465414 122.2123791
  81.0568541  48.6715704 123.2825074  83.8170994  49.0141005 122.7624162
  84.1567066  49.5426926 122.0402771  84.2643114  49.3521411 123.5382729
  85.8039141  47.5115627 120.9617455  86.5247503  47.8896879 120.4581172
  85.1804445  48.2304503 121.0652433  89.9470264  48.2160776 121.8975788
  90.1633878  49.0985413 121.5964616  89.4664331  47.8246989 121.1681430
  84.6869485  51.1746489 128.4746532  84.5414066  51.4886792 129.3670814
  84.2094689  51.7931389 127.9217431  86.5465868  48.1649037 128.5227422
  86.5327437  47.2690130 128.1859720  87.2638296  48.1719701 129.1565708
  88.3991999  48.5986377 130.5680549  88.1409777  49.5203448 130.5664880
  87.8677039  48.2016812 131.2581013  79.1615147  53.7151833 131.4134193
  78.6168615  54.4911641 131.5454468  80.0394497  54.0622638 131.2553315
  85.9502764  47.0463417 123.7914992  86.0718675  46.1180063 123.9905879
  85.6604806  47.0602103 122.8793307  88.8193954  44.7318328 126.9281712
  88.8415651  44.7957661 125.9733691  89.2362013  43.8922836 127.1222218
  94.3313360  61.0203929 120.4467533  95.0264265  61.6410621 120.6654847
  94.6736510  60.1699280 120.7219911  96.2304783  58.4703634 121.9754864
  96.7556107  58.8090907 121.2504184  96.1427136  57.5350649 121.7917998
  80.3937783  60.7287158 126.3374745  81.2195803  60.4290930 125.9573388
  80.0431835  59.9594781 126.7864533  78.5946388  58.6473485 127.2963678
  77.7578296  58.2195659 127.1147680  78.5670033  58.8405928 128.2334470
  84.9232823  58.6317550 121.8830879  85.0720943  59.3153014 121.2297552
  85.7299266  58.6122640 122.3980335  82.6785456  54.6582727 122.8891948
  82.4331498  53.7545057 123.0872158  82.8481370  54.6599878 121.9471426
  81.9481103  50.3911085 120.3878109  81.2550348  50.4655440 119.7318145
  81.7032855  49.6271429 120.9099626  88.4228228  61.1265680 119.3542626
  87.8502196  61.7455867 118.9013098  88.9961022  61.6765042 119.8882548
  91.6425488  61.4102830 120.4851209  92.5756161  61.3448392 120.6884084
  91.5548701  62.2459097 120.0265741  94.2713505  60.7268701 117.4455156
  94.1927136  60.3928564 118.3390914  95.0923172  61.2190469 117.4446629
  88.8075027  52.4626493 116.6958679  89.7534132  52.3332701 116.7647097
  88.4289272  51.7241155 117.1728107  86.9917944  50.3876469 116.6313564
  86.0849400  50.0909582 116.7076278  87.2693925  50.0906287 115.7647850
  77.9095885  51.7082833 127.0812611  77.5898669  50.8548141 126.7886985
  77.3629313  51.9231411 127.8370578  81.6875792  54.4245274 130.7982117
  81.9061802  55.3562382 130.8170151  82.1001566  54.0653248 131.5836921
  88.6080010  44.9313359 122.7857805  87.7980738  44.5860444 123.1613051
  89.2964427  44.6220903 123.3745417  90.5370558  44.0091406 124.4082102
  91.0901597  44.4286859 125.0672125  90.7740645  43.0827154 124.4505058
  85.7616729  47.2463405 116.7725543  86.6235893  47.5718303 117.0321361
  85.9467073  46.4594900 116.2598609  77.7784145  55.3285744 129.0505732
  77.0847616  54.9139697 128.5375686  78.5257136  55.3706281 128.4539151
  93.9149365  46.1191931 123.9160766  93.3348034  46.7776735 123.5338819
  93.6485298  45.2969276 123.5048184  79.6920887  55.2603998 126.9271747
  79.6691575  55.3591685 125.9753630  80.0021524  56.1069149 127.2488913
  92.6974243  48.2792021 122.9717115  91.8100098  48.5641672 122.7537309
  93.1128232  48.1185785 122.1244391  91.8417457  58.0436696 117.0665135
  92.5453307  58.2486699 117.6822790  91.1180105  58.6113458 117.3314218
  92.6715267  53.7946557 123.1867405  92.6150468  54.2515109 122.3475037
  93.2243609  53.0337242 123.0090247  96.4820073  49.5836289 124.0117524
  96.2257007  49.1832925 124.8425732  95.8572941  50.2980083 123.8867663
  93.7504154  58.4819225 119.1163595  94.5849758  58.0500424 118.9341069
  93.5888497  58.3101239 120.0440489  93.4050046  54.9851339 120.4819934
  93.3498850  54.8195610 119.5408378  92.7796102  55.6927371 120.6382124
  78.1942561  50.2219403 134.3081356  78.8401425  49.7118357 134.7968581
  77.9859712  50.9588085 134.8824781  86.7146172  44.4859448 120.0605252
  86.7024842  45.4301288 120.2173523  87.6069594  44.3029593 119.7664713
  90.5298291  41.0802224 124.3151189  89.7630687  40.5260711 124.4607871
  90.9408996  41.1524093 125.1765341  95.2118009  64.9356773 119.6298547
  94.3755322  65.2731459 119.9507822  95.0722779  64.8005752 118.6925684
  95.0856390  64.7804000 116.8296454  94.2085856  64.6592801 116.4658701
  95.5614143  63.9890078 116.5775343  92.7874858  65.7203003 120.3878109
  92.0944103  65.7947358 119.7318145  92.5426610  64.9563346 120.9099626
  97.8311699  65.7168387 116.6313564  96.9243154  65.4201500 116.7076278
  98.1087680  65.4198205 115.7647850  96.6010483  62.5755322 116.7725543
  97.4629647  62.9010221 117.0321361  96.7860827  61.7886818 116.2598609
  97.5539926  59.8151365 120.0605252  97.5418596  60.7593205 120.2173523
  98.4463348  59.6321511 119.7664713  68.6869112   9.7896732 105.8973016
  68.0130810  10.0928429 106.5057974  69.0734934  10.5925813 105.5478473
  70.7776582   1.5804945 104.4320456  70.1605752   0.8551773 104.3353509
  70.3093070   2.3414306 104.0887531  72.6525852   7.3682216 107.1712839
  73.3476757   7.9888908 107.3900154  72.9949002   6.5177567 107.4465217
  66.7440721   7.4743967 106.0787933  66.1714688   8.0934155 105.6258405
  67.3173514   8.0243329 106.6127855  69.9637981   7.7581118 107.2096515
  70.8968654   7.6926679 107.4129391  69.8761193   8.5937384 106.7511048
  72.5925997   7.0746988 104.1700463  72.5139629   6.7406852 105.0636221
  73.4135664   7.5668756 104.1691935  70.1629949   4.3914983 103.7910441
  70.8665799   4.5964986 104.4068097  69.4392598   4.9591745 104.0559525
  72.0716646   4.8297513 105.8408901  72.9062250   4.3978711 105.6586376
  71.9100989   4.6579526 106.7685796  80.7000922  15.3467164 115.9364078
  81.3379331  15.2273911 115.2327418  80.5821764  16.2948008 115.9952030
  77.5090628  15.2994592 115.8725603  77.1709139  15.1835656 114.9846138
  78.3780396  14.8985757 115.8526609  73.3677443  17.1530068 111.8622494
  72.8042309  17.0620005 111.0938781  73.2529839  16.3329973 112.3424986
  78.9477002  20.8201036 107.1736959  78.2964982  21.4055116 106.7870972
  79.7421365  21.3507231 107.2331996  72.8732629  17.9090173 107.5724093
  73.6463505  17.3619160 107.4336969  73.2258028  18.7734422 107.7838554
  75.2098907  14.0682839 105.2042543  75.4624428  13.5464360 104.4426006
  74.2723466  13.9048985 105.3069226  80.2542190  13.0718617 113.0117286
  81.0405279  12.6538041 112.6607703  80.5180894  13.9764710 113.1798934
  80.4252267  18.5091468 107.7105943  79.7898100  18.5826094 108.4226847
  80.0949674  19.0985067 107.0325022  74.9295196  15.9710945 107.4066918
  74.8131454  15.2955848 108.0748002  75.0397456  15.4843319 106.5899071
  77.2726737  15.4321092 111.1113607  76.9084944  14.9051713 111.8226528
  78.1293853  15.0419561 110.9380092  76.9132224  10.4610992 106.1074956
  77.0806626  11.3291228 106.4745427  76.7229393  10.6238274 105.1836245
  79.6707557  18.9227971 117.7740786  79.3708280  19.8253010 117.6656593
  79.3258617  18.6560154 118.6261939  76.8921445  12.9168649 107.0921622
  76.7721070  13.3625700 107.9307103  76.1974033  13.2653967 106.5335160
  74.6528337  25.6872291 110.7411754  74.5752366  26.6380116 110.8200234
  74.0489980  25.3418164 111.3986680  82.5906511  13.3890123 107.9201956
  83.5024367  13.6217509 107.7449654  82.0816158  13.9727167 107.3577035
  81.1976093  18.3715941 115.3115538  80.5684956  18.5361655 114.6091606
  80.8101755  18.7857551 116.0826502  85.0765325  19.3070379 112.6659902
  84.3916363  19.6869280 112.1156935  85.1609174  19.9165706 113.3991849
  76.7504055  18.1090349 112.5765623  77.2142401  18.3878052 111.7870245
  76.4860853  17.2073794 112.3938714  75.6872941  14.2313501 109.3855188
  76.3896984  14.6834545 109.8529114  75.3553570  13.5897320 110.0135081
  83.4462085  19.8302293 117.4377602  84.2679528  19.4282481 117.1560284
  83.4424487  19.7270527 118.3893718  76.9266706  21.0454444 109.4617293
  76.7912381  21.8905980 109.8902141  77.4676518  21.2473722 108.6983227
  70.3796103  18.5629882 110.0345218  70.8920624  19.3573132 110.1850783
  71.0318816  17.8656173 109.9678820  72.1890988  21.6795638 112.1167972
  72.3657616  22.6013603 111.9288955  72.9847821  21.3654058 112.5462351
  73.3122303  23.1973812 118.1178314  73.8629728  23.0690876 117.3455308
  72.4733779  23.4968701 117.7673207  68.3445020  16.8918536 110.8104789
  69.1820242  17.3015545 110.5938497  68.5223288  15.9517979 110.7804983
  80.2409452  14.5593617 106.4988622  79.7256075  15.3298222 106.7377009
  79.9686760  13.8858753 107.1221683  77.8256563   9.4043318 111.5573860
  76.9698159   9.0150168 111.3779499  78.2383515   9.4835279 110.6973646
  85.2143726  17.3125972 108.4341795  84.4373169  16.9737131 107.9896957
  85.8935207  17.3178595 107.7596760  80.0295755  12.4320709 108.3248403
  79.7245891  12.7466858 109.1758546  80.9826197  12.5102129 108.3675736
  78.4742187  18.5910932 109.9741357  77.9463549  17.8563692 109.6614594
  77.9729690  19.3685609 109.7281325  83.4535033  16.7859953 115.0908403
  82.7958707  17.4759214 115.1788532  84.2575432  17.1756385 115.4342390
  82.2640492  15.1404326 113.1412345  82.7772374  15.7734318 113.6434055
  82.9141716  14.5405521 112.7755705  73.5330502  11.2835060 106.3543854
  72.6967814  11.6209746 106.6753129  73.3935271  11.1484040 105.4170991
  76.6194787  16.4091143 102.9776330  75.7121849  16.1780396 103.1767479
  77.1165819  15.6128762 103.1650312  79.5262866  25.1188650 105.8973016
  78.8524565  25.4220347 106.5057974  79.9128688  25.9217730 105.5478473
  79.5256370  14.0145197 110.5173366  80.2728189  14.5266594 110.2080488
  79.7947960  13.6929250 111.3777759  77.7983021  16.5103738 107.5000320
  76.8894240  16.2262770 107.5972790  77.8278104  16.9302816 106.6403627
  83.0302288  20.1210327 111.2691488  82.5764615  19.2801237 111.3256678
  82.3996255  20.7571725 111.6066268  81.9735208  11.0502313 112.4992155
  81.2357964  10.5379699 112.8302398  82.2261981  10.6102695 111.6875432
  81.4735227  21.9586824 112.2041306  81.7658202  22.5191881 111.4853671
  81.9833848  22.2515385 112.9594465  76.3467915  14.1232358 113.6010116
  76.4016524  13.1706195 113.5252592  75.5359117  14.2791797 114.0851414
  77.4959108  18.0512481 104.8388399  77.0578538  17.3348340 104.3794036
  78.2369549  18.2788596 104.2773490  74.2860275  12.7409418 111.3600494
  73.4728140  13.0403589 111.7665687  74.7819269  12.3465107 112.0774977
  76.4368852  22.7367175 113.2934759  76.3945031  22.9628021 112.3643291
  77.3531551  22.5030549 113.4420560  85.6132223  16.3269678 110.8964717
  85.4750122  16.5171274 109.9685907  85.2568442  17.0889061 111.3532768
  74.5534653  19.6130204 113.0896722  75.3475252  19.1180524 112.8879297
  73.8426346  19.0848067 112.7264427  79.3729498  21.9948299 117.4409089
  79.4266520  22.5639236 118.2086805  78.5044279  22.1650184 117.0763127
  70.8617417  13.7573286 109.1656474  69.9315005  13.6957741 109.3826437
  70.9574889  13.2349238 108.3693116  77.1305929  20.1859226 116.7694559
  76.9917015  19.8178010 117.6420497  76.3420525  20.7006865 116.5978517
  77.7254081  25.2868322 108.1120095  77.9005837  24.8156366 108.9265718
  77.0386869  25.9134089 108.3401356  78.6811144  19.5640829 114.1583397
  78.3460977  19.5241599 115.0541047  78.1815090  18.8985545 113.6853807
  81.6170336  16.9096863 104.4320456  80.9999507  16.1843691 104.3353509
  81.1486825  17.6706223 104.0887531  72.2915167  28.4357685 114.8859956
  72.5311765  29.0676209 115.5638974  71.4484363  28.0845725 115.1725315
  73.4068882  11.1282287 103.5541761  72.5298348  11.0071088 103.1904007
  73.8826635  10.3368366 103.3020649  76.8043028  24.2436808 117.2901460
  76.7313200  25.0491779 117.8020764  76.3620421  24.4428773 116.4649481
  76.5932808  23.4808578 110.8004281  75.8100330  24.0230258 110.8942506
  77.2925553  23.9982557 111.1998522  79.9029458   9.2903207 113.4438487
  80.3998158   8.5373169 113.1239557  79.1316440   9.3267524 112.8781696
  79.2641712  24.1423642 119.4459618  79.9769684  24.7771106 119.3735520
  78.7731741  24.2387508 118.6299620  80.9859239  18.0474894 111.0176910
  80.0515518  18.1676357 110.8481614  81.1635907  17.1447361 110.7536920
  84.3731790  13.8892214 111.5526944  84.8392242  14.7220205 111.4787247
  84.8239291  13.4237195 112.2572203  82.4408021  20.2336035 108.5513096
  82.7167865  20.1192629 109.4606970  81.5712520  19.8353520 108.5125269
  79.0762085  24.4822386 112.1945910  79.2584480  23.6644042 112.6573662
  79.8995071  24.6990078 111.7570800  79.4104251  23.4090571 109.4560958
  79.9392017  22.8983025 108.8431120  79.6732470  23.0933101 110.3206491
  72.7659999  24.4605688 112.2158734  72.0970374  24.9451815 111.7322774
  72.6272868  24.7074908 113.1302113  76.9065267  26.4949431 118.8141392
  77.4583575  26.6581053 119.5790478  77.2471461  27.0853869 118.1421417
  68.1347576  12.7224142 108.9954666  68.4301017  11.8134821 108.9421720
  67.2335612  12.7011882 108.6735669  80.0433655  24.4431407 115.8005075
  79.9184794  23.6421146 115.2916020  80.7012746  24.9377600 115.3119045
  82.1068563  22.2440427 117.4284625  81.1598898  22.1245778 117.3562951
  82.4551336  21.3562925 117.5110886  69.8635417  10.4038240 109.1193991
  69.5348124   9.5235619 108.9369097  70.2174788  10.3485909 110.0070381
  79.1114996  22.0393143 113.6288977  78.9639959  21.1109850 113.8096547
  79.9368490  22.0613234 113.1446052  72.9777241  10.6911210 109.4869469
  73.3173313  11.2197131 108.7648077  73.4249361  11.0291616 110.2628036
  82.7149118  22.8621702 114.7153850  83.6395666  22.6564563 114.5778301
  82.5464421  22.6138103 115.6243191  74.9645388   9.1885832 107.6862762
  75.6853750   9.5667084 107.1826479  74.3410692   9.9074708 107.7897740
  79.1076511   9.8930981 108.6221094  79.3240125  10.7755618 108.3209922
  78.6270578   9.5017194 107.8926736  82.5044434  23.3807369 110.0715941
  82.6781312  22.8153792 109.3189794  82.9973326  24.1808264 109.8895431
  75.1109011   8.7233622 110.5160298  75.2324922   7.7950268 110.7151186
  74.8211053   8.7372308 109.6038614  88.3583825  16.1443792 111.6906241
  88.8014972  15.3951117 111.2925364  87.4810336  16.1353928 111.3079973
  83.4919607  22.6974133 107.1712839  84.1870511  23.3180826 107.3900154
  83.8342757  21.8469485 107.4465217  85.3911030  20.1473839 108.7000170
  85.9162354  20.4861112 107.9749490  85.3033382  19.2120854 108.5163305
  77.0751691  26.2145822 113.0595423  76.6356681  25.7222201 113.7528280
  77.8259808  25.6718790 112.8187499  69.5544030  22.4057363 113.0620051
  70.3802050  22.1061135 112.6818695  69.2038082  21.6364986 113.5109840
  74.5225563  21.7583831 115.1317725  73.9005572  21.0954536 114.8319953
  75.1930430  21.7844963 114.4491373  67.7552635  20.3243690 114.0208985
  66.9184543  19.8965864 113.8392986  67.7276280  20.5176133 114.9579776
  74.0839070  20.3087755 108.6076186  74.2327190  20.9923219 107.9542858
  74.8905513  20.2892845 109.1225641  71.8391703  16.3352932 109.6137255
  71.5937745  15.4315262 109.8117465  72.0087617  16.3370083 108.6716733
  71.1087350  12.0681290 107.1123416  70.4156595  12.1425645 106.4563452
  70.8639102  11.3041634 107.6344933  77.5834475  22.8035885 106.0787933
  77.0108442  23.4226072 105.6258405  78.1567269  23.3535247 106.6127855
  80.8031735  23.0873035 107.2096515  81.7362408  23.0218597 107.4129391
  80.7154948  23.9229302 106.7511048  83.4319752  22.4038906 104.1700463
  83.3533383  22.0698769 105.0636221  84.2529419  22.8960674 104.1691935
  77.9681274  14.1396698 103.4203986  78.9140378  14.0102906 103.4892404
  77.5895519  13.4011360 103.8973414  76.1524191  12.0646674 103.3558871
  75.2455646  11.7679787 103.4321584  76.4300172  11.7676492 102.4893157
  77.7686257   6.6083564 109.5103112  76.9586985   6.2630649 109.8858358
  78.4570674   6.2991108 110.0990724  74.9222976   8.9233609 103.4970850
  75.7842140   9.2488508 103.7566667  75.1073320   8.1365105 102.9843916
  83.0755612   7.7962136 110.6406073  82.4954281   8.4546940 110.2584125
  82.8091545   6.9739481 110.2293490  81.8580490   9.9562226 109.6962421
  80.9706345  10.2411877 109.4782616  82.2734479   9.7955990 108.8489698
  69.8664740  24.5369977 114.7833866  69.7319208  23.7770378 114.2171864
  69.4496803  25.2610877 114.3162655  81.0023703  19.7206901 103.7910441
  81.7059554  19.9256903 104.4068097  80.2786352  20.2883663 104.0559525
  81.8321514  15.4716762 109.9112711  81.7756715  15.9285314 109.0720344
  82.3849856  14.7107447 109.7335554  85.6426320  11.2606494 110.7362831
  85.3863254  10.8603130 111.5671039  85.0179188  11.9750288 110.6112970
  73.0233866  25.4339294 114.9952309  72.9066251  26.3784727 114.8930999
  72.2026313  25.1312856 115.3838108  82.9110401  20.1589430 105.8408901
  83.7456005  19.7270629 105.6586376  82.7494744  19.9871444 106.7685796
  82.5656293  16.6621544 107.2065241  82.5105097  16.4965815 106.2653685
  81.9402348  17.3697576 107.3627430  75.8752419   6.1629653 106.7850559
  75.8631088   7.1071492 106.9418830  76.7675840   5.9799798 106.4910020
  74.0488380  26.0867556 118.2108237  74.9515627  26.1191167 118.5274732
  73.8225751  25.1568007 118.2254573  75.8041983  24.8398543 114.8718316
  74.8537614  24.8400405 114.7582688  76.1074469  24.0931277 114.3554350
  91.5394676  30.6759081 115.9364078  92.1773086  30.5565829 115.2327418
  91.4215519  31.6239925 115.9952030  88.3484382  30.6286509 115.8725603
  88.0102894  30.5127574 114.9846138  89.2174150  30.2277675 115.8526609
  84.2071198  32.4821986 111.8622494  83.6436063  32.3911923 111.0938781
  84.0923593  31.6621890 112.3424986  81.7535630  33.9773177 114.7006714
  82.5456922  33.6364002 114.2853013  81.9932280  34.0868152 115.6208867
  89.7870757  36.1492954 107.1736959  89.1358736  36.7347034 106.7870972
  90.5815119  36.6799148 107.2331996  83.7126384  33.2382091 107.5724093
  84.4857260  32.6911078 107.4336969  84.0651783  34.1026340 107.7838554
  85.5511426  34.5658473 120.7790992  85.2601292  35.4704104 120.6637659
  86.1868411  34.6075001 121.4935062  86.4767633  31.9435321 117.3692352
  87.0731206  31.7191344 116.6549315  86.5342605  31.2020067 117.9717800
  86.0492662  29.3974757 105.2042543  86.3018182  28.8756278 104.4426006
  85.1117221  29.2340902 105.3069226  91.0935944  28.4010535 113.0117286
  91.8799034  27.9829958 112.6607703  91.3574649  29.3056627 113.1798934
  91.2646022  33.8383385 107.7105943  90.6291855  33.9118012 108.4226847
  90.9343428  34.4276984 107.0325022  85.7688950  31.3002863 107.4066918
  85.6525209  30.6247766 108.0748002  85.8791210  30.8135237 106.5899071
  88.1120491  30.7613010 111.1113607  87.7478699  30.2343631 111.8226528
  88.9687607  30.3711479 110.9380092  87.7525978  25.7902910 106.1074956
  87.9200381  26.6583146 106.4745427  87.5623147  25.9530191 105.1836245
  90.5101311  34.2519888 117.7740786  90.2102035  35.1544927 117.6656593
  90.1652371  33.9852072 118.6261939  83.9613793  30.7033685 113.8077490
  83.0364289  30.5709899 114.0155182  84.2098206  31.4827905 114.3047433
  87.7315199  28.2460567 107.0921622  87.6114824  28.6917618 107.9307103
  87.0367788  28.5945885 106.5335160  81.3222604  30.3466959 114.6421279
  81.4514985  30.6001438 115.5560691  80.6420055  30.9394667 114.3225934
  85.4922091  41.0164209 110.7411754  85.4146121  41.9672034 110.8200234
  84.8883735  40.6710081 111.3986680  93.4300265  28.7182040 107.9201956
  94.3418121  28.9509427 107.7449654  92.9209912  29.3019084 107.3577035
  86.2385693  30.9977528 122.9591087  86.9800378  31.5362572 122.6825911
  85.5322679  31.6243816 123.1162639  88.0672103  28.0779275 118.9296806
  88.9133298  28.5018688 119.0731455  88.0070741  27.4212899 119.6235369
  92.0369848  33.7007859 115.3115538  91.4078710  33.8653573 114.6091606
  91.6495510  34.1149468 116.0826502  95.9159080  34.6362297 112.6659902
  95.2310118  35.0161198 112.1156935  96.0002929  35.2457623 113.3991849
  87.5897810  33.4382267 112.5765623  88.0536155  33.7169970 111.7870245
  87.3254608  32.5365711 112.3938714  84.4821891  32.9853748 115.5145386
  85.0523248  33.4141017 114.8762871  85.0730002  32.7036333 116.2129572
  86.5266696  29.5605419 109.3855188  87.2290739  30.0126463 109.8529114
  86.1947324  28.9189238 110.0135081  80.2692030  27.8188972 114.6872322
  79.4791084  28.0746500 114.2112432  80.7603277  28.6337310 114.7924362
  94.2855839  35.1594211 117.4377602  95.1073283  34.7574398 117.1560284
  94.2818242  35.0562445 118.3893718  82.2206775  28.1833551 111.6455798
  81.4237938  28.2952245 112.1639294  81.9932367  28.5220203 110.7796689
  88.0512443  34.7078254 119.5938313  88.1156875  35.1698662 120.4296485
  87.3423366  34.0775619 119.7220623  78.5529733  28.0719462 117.1187312
  78.8037771  28.9566472 117.3844888  79.0889281  27.8924064 116.3462404
  87.7660460  36.3746362 109.4617293  87.6306135  37.2197897 109.8902141
  88.3070273  36.5765639 108.6983227  81.2189858  33.8921800 110.0345218
  81.7314378  34.6865050 110.1850783  81.8712570  33.1948090 109.9678820
  83.0284742  37.0087556 112.1167972  83.2051371  37.9305521 111.9288955
  83.8241576  36.6945975 112.5462351  82.3137099  29.0552188 121.9930135
  82.1990614  28.1537445 122.2937234  81.4581617  29.3015885 121.6414951
  89.3928937  36.9969928 123.5917635  88.9492791  36.2106307 123.2738540
  90.0546150  37.1849079 122.9261526  84.1516058  38.5265730 118.1178314
  84.7023483  38.3982793 117.3455308  83.3127534  38.8260619 117.7673207
  87.9483229  34.7916858 122.4622545  88.4811566  34.0305146 122.2321853
  87.4197310  34.4990510 123.2046699  79.1838774  32.2210454 110.8104789
  80.0213996  32.6307462 110.5938497  79.3617042  31.2809896 110.7804983
  91.0803206  29.8885535 106.4988622  90.5649830  30.6590139 106.7377009
  90.8080515  29.2150671 107.1221683  88.6650318  24.7335236 111.5573860
  87.8091914  24.3442086 111.3779499  89.0777269  24.8127196 110.6973646
  86.4392350  22.3520309 114.9631602  87.3045347  22.1563117 114.6037491
  86.5069859  22.1230660 115.8900959  96.0537481  32.6417889 108.4341795
  95.2766923  32.3029049 107.9896957  96.7328962  32.6470513 107.7596760
  90.8689510  27.7612627 108.3248403  90.5639645  28.0758776 109.1758546
  91.8219952  27.8394047 108.3675736  89.3135942  33.9202850 109.9741357
  88.7857303  33.1855610 109.6614594  88.8123444  34.6977527 109.7281325
  94.2928788  32.1151871 115.0908403  93.6352462  32.8051132 115.1788532
  95.0969187  32.5048303 115.4342390  84.0454669  24.5822516 112.3347969
  84.6198421  24.3597698 111.6021162  84.6325652  24.6511211 113.0876570
  93.1034246  30.4696243 113.1412345  93.6166128  31.1026235 113.6434055
  93.7535470  29.8697439 112.7755705  84.3724256  26.6126977 106.3543854
  83.5361568  26.9501664 106.6753129  84.2329026  26.4775957 105.4170991
  86.3477337  21.4563765 111.0623038  85.6941749  21.1412783 110.4379653
  86.3057811  20.8339506 111.7882861  87.4588542  31.7383060 102.9776330
  86.5515603  31.5072314 103.1767479  87.9559574  30.9420680 103.1650312
  90.3656621  40.4480568 105.8973016  89.6918319  40.7512264 106.5057974
  90.7522443  41.2509648 105.5478473  89.5815077  27.9445699 115.3870686
  88.6637639  28.1660646 115.2292374  89.9975221  28.0192009 114.5282393
  90.3650125  29.3437115 110.5173366  91.1121944  29.8558512 110.2080488
  90.6341715  29.0221167 111.3777759  88.6376775  31.8395655 107.5000320
  87.7287994  31.5554688 107.5972790  88.6671859  32.2594734 106.6403627
  93.8696043  35.4502245 111.2691488  93.4158370  34.6093155 111.3256678
  93.2390009  36.0863643 111.6066268  92.8128962  26.3794231 112.4992155
  92.0751719  25.8671617 112.8302398  93.0655736  25.9394612 111.6875432
  92.3128982  37.2878741 112.2041306  92.6051956  37.8483799 111.4853671
  92.8227602  37.5807302 112.9594465  79.2064946  29.5601169 111.4815522
  79.0089345  28.9670530 110.7566589  78.6511610  29.2553380 112.1991461
  87.1861669  29.4524276 113.6010116  87.2410279  28.4998112 113.5252592
  86.3752871  29.6083715 114.0851414  88.3352863  33.3804399 104.8388399
  87.8972293  32.6640258 104.3794036  89.0763304  33.6080514 104.2773490
  85.1254029  28.0701336 111.3600494  84.3121895  28.3695506 111.7665687
  85.6213023  27.6757024 112.0774977  87.2762607  38.0659093 113.2934759
  87.2338786  38.2919939 112.3643291  88.1925306  37.8322467 113.4420560
  96.4525978  31.6561596 110.8964717  96.3143876  31.8463192 109.9685907
  96.0962197  32.4180979 111.3532768  84.6168104  25.6419691 116.9761729
  85.2567483  25.5008450 116.2784693  83.7845634  25.3554205 116.6000331
  85.3928408  34.9422122 113.0896722  86.1869006  34.4472442 112.8879297
  84.6820100  34.4139985 112.7264427  90.2123252  37.3240217 117.4409089
  90.2660275  37.8931153 118.2086805  89.3438034  37.4942102 117.0763127
  81.7011171  29.0865203 109.1656474  80.7708759  29.0249659 109.3826437
  81.7968643  28.5641156 108.3693116  81.6196720  25.6120016 111.7534716
  81.8803538  26.5265349 111.6443877  82.4413893  25.1444459 111.9031329
  83.0921646  27.0257773 118.9233541  83.7644699  26.8175135 118.2746190
  82.2651432  26.8279859 118.4838773  89.1711352  31.4900479 118.9996021
  90.1003412  31.6411639 118.8264989  88.7502382  31.5784500 118.1444668
  87.9699684  35.5151144 116.7694559  87.8310769  35.1469928 117.6420497
  87.1814280  36.0298783 116.5978517  88.5647836  40.6160240 108.1120095
  88.7399591  40.1448283 108.9265718  87.8780624  41.2426006 108.3401356
  89.5204899  34.8932746 114.1583397  89.1854732  34.8533516 115.0541047
  89.0208845  34.2277462 113.6853807  83.4949143  30.3000376 119.6835978
  83.3568941  29.5680615 120.2847517  84.4054066  30.2109276 119.4020166
  92.4564091  32.2388781 104.4320456  91.8393261  31.5135609 104.3353509
  91.9880579  32.9998141 104.0887531  86.1231444  30.0120336 119.1719657
  86.8331062  29.3713528 119.1306276  86.0800752  30.2633230 120.0945838
  84.8360378  26.9985554 120.9915297  84.2997735  26.5476292 121.6436893
  84.2477086  27.1331462 120.2485761  83.1308921  43.7649603 114.8859956
  83.3705519  44.3968127 115.5638974  82.2878117  43.4137643 115.1725315
  84.2462636  26.4574205 103.5541761  83.3692103  26.3363006 103.1904007
  84.7220390  25.6660283 103.3020649  75.7664777  31.2451365 113.6483268
  76.4535816  30.9313095 113.0604283  75.6112905  32.1492729 113.3750519
  80.5699499  26.1341561 118.0768291  80.4857687  25.5267231 117.3418701
  79.7482205  26.6250580 118.0777788  87.6436783  39.5728725 117.2901460
  87.5706954  40.3783697 117.8020764  87.2014176  39.7720691 116.4649481
  87.4326562  38.8100495 110.8004281  86.6494084  39.3522175 110.8942506
  88.1319308  39.3274475 111.1998522  90.7423213  24.6195125 113.4438487
  91.2391912  23.8665087 113.1239557  89.9710194  24.6559441 112.8781696
  90.1035466  39.4715559 119.4459618  90.8163439  40.1063024 119.3735520
  89.6125495  39.5679425 118.6299620  91.8252993  33.3766812 111.0176910
  90.8909272  33.4968274 110.8481614  92.0029662  32.4739279 110.7536920
  87.3258181  26.7612508 113.1710171  86.9555969  26.2083548 113.8591077
  87.8217274  26.1570641 112.6185171  95.2125545  29.2184131 111.5526944
  95.6785997  30.0512123 111.4787247  95.6633045  28.7529113 112.2572203
  85.1547380  37.2210003 120.2665189  85.8556839  37.8546486 120.4194583
  84.6842495  37.5624734 119.5060828  93.2801776  35.5627953 108.5513096
  93.5561620  35.4484547 109.4606970  92.4106274  35.1645437 108.5125269
  89.9155840  39.8114303 112.1945910  90.0978234  38.9935959 112.6573662
  90.7388826  40.0281996 111.7570800  90.2498005  38.7382489 109.4560958
  90.7785772  38.2274943 108.8431120  90.5126225  38.4225019 110.3206491
  80.7515098  36.7546358 117.1996292  81.3368535  36.0090046 117.3324196
  80.5539936  37.0650315 118.0832956  83.6053753  39.7897605 112.2158734
  82.9364128  40.2743733 111.7322774  83.4666623  40.0366826 113.1302113
  75.3432753  29.3251958 115.9200735  75.3816852  28.7915549 116.7137853
  74.8373046  28.7987164 115.3011712  87.7459022  41.8241349 118.8141392
  88.2977330  41.9872970 119.5790478  88.0865215  42.4145787 118.1421417
  82.7223515  24.1716499 119.4163277  82.7864842  25.0331329 119.0040675
  82.6590635  23.5590500 118.6835636  78.9741330  28.0516060 108.9954666
  79.2694771  27.1426739 108.9421720  78.0729366  28.0303800 108.6735669
  90.8827409  39.7723324 115.8005075  90.7578549  38.9713064 115.2916020
  91.5406500  40.2669518 115.3119045  82.5035577  26.1272057 114.9782215
  81.7822163  26.7408024 114.8389688  83.2928833  26.6629822 114.8998861
  92.9462317  37.5732344 117.4284625  91.9992653  37.4537696 117.3562951
  93.2945091  36.6854842 117.5110886  80.7029172  25.7330158 109.1193991
  80.3741878  24.8527537 108.9369097  81.0568543  25.6777827 110.0070381
  89.9508751  37.3685061 113.6288977  89.8033713  36.4401768 113.8096547
  90.7762244  37.3905151 113.1446052  83.8170995  26.0203128 109.4869469
  84.1567068  26.5489049 108.7648077  84.2643116  26.3583534 110.2628036
  93.5542873  38.1913619 114.7153850  94.4789420  37.9856481 114.5778301
  93.3858176  37.9430020 115.6243191  85.8039142  24.5177749 107.6862762
  86.5247505  24.8959002 107.1826479  85.1804446  25.2366626 107.7897740
  89.9470265  25.2222898 108.6221094  90.1633879  26.1047536 108.3209922
  89.4664332  24.8309112 107.8926736  84.6869486  28.1808611 115.1991839
  84.5414067  28.4948914 116.0916120  84.2094690  28.7993512 114.6462737
  86.5465869  25.1711159 115.2472728  86.5327438  24.2752253 114.9105026
  87.2638297  25.1781823 115.8811014  88.3992000  25.6048500 117.2925856
  88.1409778  26.5265570 117.2910186  87.8677040  25.2078934 117.9826320
  93.3438189  38.7099287 110.0715941  93.5175066  38.1445709 109.3189794
  93.8367080  39.5100182 109.8895431  79.1615149  30.7213956 118.1379500
  78.6168617  31.4973764 118.2699774  80.0394498  31.0684760 117.9798621
  85.9502765  24.0525540 110.5160298  86.0718676  23.1242186 110.7151186
  85.6604808  24.0664226 109.6038614  88.8193956  21.7380450 113.6527018
  88.8415652  21.8019783 112.6978998  89.2362015  20.8984959 113.8467524
  99.1977580  31.4735710 111.6906241  99.6408726  30.7243035 111.2925364
  98.3204090  31.4645846 111.3079973  94.3313361  38.0266051 107.1712839
  95.0264266  38.6472744 107.3900154  94.6736511  37.1761402 107.4465217
  79.9481170  29.8483852 121.0309657  79.2062907  29.9966487 121.6174287
  79.6273915  30.1092118 120.1676406  96.2304784  35.4765757 108.7000170
  96.7556109  35.8153029 107.9749490  96.1427137  34.5412772 108.5163305
  87.8924833  39.3899830 120.8290047  88.2011960  39.1448977 121.7012746
  88.6900315  39.5946469 120.3408917  87.9145445  41.5437740 113.0595423
  87.4750435  41.0514119 113.7528280  88.6653562  41.0010708 112.8187499
  80.3937784  37.7349281 113.0620051  81.2195804  37.4353053 112.6818695
  80.0431836  36.9656903 113.5109840  85.3619317  37.0875749 115.1317725
  84.7399327  36.4246454 114.8319953  86.0324184  37.1136881 114.4491373
  78.5946389  35.6535607 114.0208985  77.7578298  35.2257782 113.8392986
  78.5670035  35.8468051 114.9579776  84.9232824  35.6379672 108.6076186
  85.0720945  36.3215137 107.9542858  85.7299268  35.6184762 109.1225641
  82.6785457  31.6644850 109.6137255  82.4331499  30.7607180 109.8117465
  82.8481372  31.6662000 108.6716733  81.9481105  27.3973208 107.1123416
  81.2550350  27.4717563 106.4563452  81.7032857  26.6333551 107.6344933
  88.4228230  38.1327803 106.0787933  87.8502197  38.7517990 105.6258405
  88.9961023  38.6827164 106.6127855  91.6425490  38.4164953 107.2096515
  92.5756163  38.3510515 107.4129391  91.5548702  39.2521220 106.7511048
  94.2713506  37.7330823 104.1700463  94.1927138  37.3990687 105.0636221
  95.0923173  38.2252591 104.1691935  88.8075028  29.4688616 103.4203986
  89.7534133  29.3394824 103.4892404  88.4289273  28.7303277 103.8973414
  86.9917945  27.3938592 103.3558871  86.0849401  27.0971705 103.4321584
  87.2693926  27.0968410 102.4893157  77.9095886  28.7144955 113.8057917
  77.5898670  27.8610264 113.5132291  77.3629314  28.9293533 114.5615884
  81.6875793  31.4307396 117.5227424  81.9061803  32.3624504 117.5415457
  82.1001567  31.0715371 118.3082227  88.6080011  21.9375482 109.5103112
  87.7980739  21.5922567 109.8858358  89.2964428  21.6283025 110.0990724
  90.5370559  21.0153528 111.1327409  91.0901598  21.4348982 111.7917432
  90.7740646  20.0889277 111.1750365  85.7616730  24.2525527 103.4970850
  86.6235894  24.5780425 103.7566667  85.9467074  23.4657023 102.9843916
  77.7784146  32.3347867 115.7751039  77.0847617  31.9201820 115.2620993
  78.5257137  32.3768403 115.1784458  93.9149366  23.1254054 110.6406073
  93.3348036  23.7838858 110.2584125  93.6485299  22.3031398 110.2293490
  79.6920888  32.2666121 113.6517054  79.6691576  32.3653808 112.6998937
  80.0021525  33.1131271 113.9734220  82.3508266  34.3242276 117.7663668
  83.3051520  34.2926218 117.6993600  82.1520790  33.8632899 118.5813894
  82.9407648  32.8943392 120.3334466  83.7600537  33.3887470 120.3569303
  83.2144456  31.9775360 120.3052033  92.6974245  25.2854144 109.6962421
  91.8100100  25.5703795 109.4782616  93.1128234  25.1247907 108.8489698
  80.7058495  39.8661895 114.7833866  80.5712963  39.1062296 114.2171864
  80.2890557  40.5902795 114.3162655  91.8417458  35.0498819 103.7910441
  92.5453308  35.2548821 104.4068097  91.1180107  35.6175581 104.0559525
  92.6715268  30.8008680 109.9112711  92.6150470  31.2577231 109.0720344
  93.2243611  30.0399365 109.7335554  96.4820074  26.5898412 110.7362831
  96.2257008  26.1895047 111.5671039  95.8572942  27.3042206 110.6112970
  83.8627621  40.7631212 114.9952309  83.7460005  41.7076645 114.8930999
  83.0420067  40.4604774 115.3838108  93.7504155  35.4881348 105.8408901
  94.5849759  35.0562546 105.6586376  93.5888498  35.3163362 106.7685796
  93.4050048  31.9913461 107.2065241  93.3498851  31.8257733 106.2653685
  92.7796103  32.6989494 107.3627430  78.1942563  27.2281526 121.0326663
  78.8401426  26.7180480 121.5213888  77.9859714  27.9650207 121.6070088
  86.7146173  21.4921570 106.7850559  86.7024843  22.4363410 106.9418830
  87.6069595  21.3091716 106.4910020  84.8882135  41.4159474 118.2108237
  85.7909382  41.4483084 118.5274732  84.6619505  40.4859925 118.2254573
  86.6435737  40.1690461 114.8718316  85.6931368  40.1692322 114.7582688
  86.9468223  39.4223195 114.3554350  90.5298292  18.0864347 111.0396496
  89.7630688  17.5322834 111.1853178  90.9408997  18.1586216 111.9010647
 102.3788430  46.0050999 115.9364078 103.0166840  45.8857746 115.2327418
 102.2609273  46.9531843 115.9952030  99.1878137  45.9578427 115.8725603
  98.8496648  45.8419492 114.9846138 100.0567905  45.5569592 115.8526609
  95.0464952  47.8113904 111.8622494  94.4829818  47.7203840 111.0938781
  94.9317348  46.9913808 112.3424986  92.5929384  49.3065095 114.7006714
  93.3850676  48.9655920 114.2853013  92.8326035  49.4160070 115.6208867
 100.6264511  51.4784871 107.1736959  99.9752491  52.0638952 106.7870972
 101.4208874  52.0091066 107.2331996  94.5520138  48.5674008 107.5724093
  95.3251014  48.0202995 107.4336969  94.9045537  49.4318258 107.7838554
  96.3905181  49.8950391 120.7790992  96.0995047  50.7996021 120.6637659
  97.0262165  49.9366918 121.4935062  97.3161388  47.2727239 117.3692352
  97.9124960  47.0483262 116.6549315  97.3736359  46.5311985 117.9717800
  96.8886416  44.7266674 105.2042543  97.1411937  44.2048196 104.4426006
  95.9510975  44.5632820 105.3069226 101.9329699  43.7302453 113.0117286
 102.7192788  43.3121876 112.6607703 102.1968403  44.6348545 113.1798934
 102.1039776  49.1675303 107.7105943 101.4685609  49.2409930 108.4226847
 101.7737183  49.7568902 107.0325022  96.6082705  46.6294780 107.4066918
  96.4918963  45.9539684 108.0748002  96.7184965  46.1427154 106.5899071
  98.9514246  46.0904928 111.1113607  98.5872453  45.5635549 111.8226528
  99.8081362  45.7003397 110.9380092  98.5919733  41.1194827 106.1074956
  98.7594135  41.9875064 106.4745427  98.4016902  41.2822109 105.1836245
 101.3495066  49.5811806 117.7740786 101.0495789  50.4836845 117.6656593
 101.0046126  49.3143989 118.6261939  94.8007547  46.0325603 113.8077490
  93.8758044  45.9001817 114.0155182  95.0491961  46.8119822 114.3047433
  98.5708954  43.5752485 107.0921622  98.4508579  44.0209535 107.9307103
  97.8761542  43.9237802 106.5335160  92.1616359  45.6758877 114.6421279
  92.2908740  45.9293355 115.5560691  91.4813810  46.2686585 114.3225934
  96.3315846  56.3456126 110.7411754  96.2539875  57.2963952 110.8200234
  95.7277489  56.0001999 111.3986680 104.2694020  44.0473958 107.9201956
 105.1811876  44.2801345 107.7449654 103.7603667  44.6311002 107.3577035
  97.0779448  46.3269445 122.9591087  97.8194132  46.8654489 122.6825911
  96.3716433  46.9535734 123.1162639  98.9065858  43.4071193 118.9296806
  99.7527053  43.8310606 119.0731455  98.8464495  42.7504817 119.6235369
 102.8763602  49.0299776 115.3115538 102.2472465  49.1945490 114.6091606
 102.4889264  49.4441386 116.0826502 106.7552834  49.9654214 112.6659902
 106.0703872  50.3453116 112.1156935 106.8396683  50.5749541 113.3991849
  98.4291564  48.7674184 112.5765623  98.8929910  49.0461887 111.7870245
  98.1648362  47.8657629 112.3938714  95.3215645  48.3145666 115.5145386
  95.8917002  48.7432934 114.8762871  95.9123757  48.0328251 116.2129572
  97.3660450  44.8897337 109.3855188  98.0684493  45.3418380 109.8529114
  97.0341079  44.2481156 110.0135081  91.1085784  43.1480889 114.6872322
  90.3184838  43.4038418 114.2112432  91.5997031  43.9629227 114.7924362
 105.1249594  50.4886129 117.4377602 105.9467037  50.0866316 117.1560284
 105.1211996  50.3854363 118.3893718  93.0600529  43.5125469 111.6455798
  92.2631693  43.6244163 112.1639294  92.8326122  43.8512121 110.7796689
  98.8906197  50.0370172 119.5938313  98.9550630  50.4990579 120.4296485
  98.1817121  49.4067537 119.7220623  89.3923487  43.4011380 117.1187312
  89.6431525  44.2858390 117.3844888  89.9283035  43.2215981 116.3462404
  98.6054215  51.7038279 109.4617293  98.4699889  52.5489815 109.8902141
  99.1464027  51.9057557 108.6983227  92.0583612  49.2213717 110.0345218
  92.5708133  50.0156968 110.1850783  92.7106325  48.5240008 109.9678820
  93.8678497  52.3379474 112.1167972  94.0445125  53.2597438 111.9288955
  94.6635330  52.0237893 112.5462351  93.1530853  44.3844106 121.9930135
  93.0384368  43.4829363 122.2937234  92.2975371  44.6307802 121.6414951
 100.2322691  52.3261846 123.5917635  99.7886545  51.5398225 123.2738540
 100.8939905  52.5140996 122.9261526  94.9909812  53.8557648 118.1178314
  95.5417237  53.7274711 117.3455308  94.1521288  54.1552537 117.7673207
  98.7876983  50.1208775 122.4622545  99.3205320  49.3597064 122.2321853
  98.2591064  49.8282427 123.2046699  90.0232529  47.5502372 110.8104789
  90.8607751  47.9599380 110.5938497  90.2010797  46.6101814 110.7804983
 101.9196961  45.2177452 106.4988622 101.4043584  45.9882057 106.7377009
 101.6474269  44.5442589 107.1221683  99.5044072  40.0627153 111.5573860
  98.6485668  39.6734004 111.3779499  99.9171024  40.1419114 110.6973646
  97.2786105  37.6812226 114.9631602  98.1439101  37.4855035 114.6037491
  97.3463613  37.4522578 115.8900959 106.8931235  47.9709807 108.4341795
 106.1160678  47.6320967 107.9896957 107.5722716  47.9762430 107.7596760
 101.7083264  43.0904545 108.3248403 101.4033400  43.4050694 109.1758546
 102.6613706  43.1685964 108.3675736 100.1529696  49.2494768 109.9741357
  99.6251058  48.5147527 109.6614594  99.6517199  50.0269444 109.7281325
 105.1322542  47.4443788 115.0908403 104.4746216  48.1343050 115.1788532
 105.9362941  47.8340220 115.4342390  94.8848424  39.9114434 112.3347969
  95.4592176  39.6889616 111.6021162  95.4719406  39.9803129 113.0876570
 103.9428001  45.7988161 113.1412345 104.4559883  46.4318153 113.6434055
 104.5929225  45.1989357 112.7755705  95.2118011  41.9418895 106.3543854
  94.3755323  42.2793582 106.6753129  95.0722780  41.8067875 105.4170991
  97.1871091  36.7855683 111.0623038  96.5335504  36.4704700 110.4379653
  97.1451565  36.1631423 111.7882861  98.2982296  47.0674978 102.9776330
  97.3909358  46.8364232 103.1767479  98.7953328  46.2712597 103.1650312
 101.2050375  55.7772485 105.8973016 100.5312074  56.0804182 106.5057974
 101.5916197  56.5801566 105.5478473 100.4208832  43.2737617 115.3870686
  99.5031393  43.4952564 115.2292374 100.8368975  43.3483927 114.5282393
 101.2043879  44.6729032 110.5173366 101.9515698  45.1850429 110.2080488
 101.4735469  44.3513085 111.3777759  99.4770530  47.1687573 107.5000320
  98.5681749  46.8846606 107.5972790  99.5065613  47.5886652 106.6403627
 104.7089797  50.7794162 111.2691488 104.2552124  49.9385072 111.3256678
 104.0783764  51.4155561 111.6066268 103.6522717  41.7086149 112.4992155
 102.9145473  41.1963535 112.8302398 103.9049490  41.2686530 111.6875432
 103.1522736  52.6170659 112.2041306 103.4445711  53.1775716 111.4853671
 103.6621357  52.9099220 112.9594465  90.0458700  44.8893087 111.4815522
  89.8483100  44.2962448 110.7566589  89.4905364  44.5845297 112.1991461
  98.0255424  44.7816194 113.6010116  98.0804033  43.8290030 113.5252592
  97.2146626  44.9375633 114.0851414  99.1746617  48.7096317 104.8388399
  98.7366047  47.9932176 104.3794036  99.9157058  48.9372431 104.2773490
  95.9647784  43.3993253 111.3600494  95.1515649  43.6987424 111.7665687
  96.4606778  43.0048942 112.0774977  98.1156361  53.3951010 113.2934759
  98.0732540  53.6211857 112.3643291  99.0319060  53.1614385 113.4420560
 107.2919732  46.9853514 110.8964717 107.1537631  47.1755110 109.9685907
 106.9355951  47.7472897 111.3532768  95.4561858  40.9711609 116.9761729
  96.0961238  40.8300368 116.2784693  94.6239389  40.6846122 116.6000331
  96.2322162  50.2714039 113.0896722  97.0262761  49.7764359 112.8879297
  95.5213855  49.7431902 112.7264427 101.0517007  52.6532135 117.4409089
 101.1054029  53.2223071 118.2086805 100.1831788  52.8234020 117.0763127
  92.5404926  44.4157121 109.1656474  91.6102514  44.3541576 109.3826437
  92.6362398  43.8933074 108.3693116  92.4590475  40.9411934 111.7534716
  92.7197292  41.8557267 111.6443877  93.2807647  40.4736376 111.9031329
  93.9315400  42.3549691 118.9233541  94.6038454  42.1467053 118.2746190
  93.1045187  42.1571777 118.4838773 100.0105106  46.8192397 118.9996021
 100.9397166  46.9703556 118.8264989  99.5896136  46.9076418 118.1444668
  98.8093438  50.8443061 116.7694559  98.6704524  50.4761846 117.6420497
  98.0208034  51.3590701 116.5978517  99.4041590  55.9452158 108.1120095
  99.5793346  55.4740201 108.9265718  98.7174378  56.5717924 108.3401356
 100.3598653  50.2224664 114.1583397 100.0248486  50.1825434 115.0541047
  99.8602599  49.5569380 113.6853807  94.3342897  45.6292294 119.6835978
  94.1962695  44.8972533 120.2847517  95.2447821  45.5401194 119.4020166
 103.2957845  47.5680698 104.4320456 102.6787016  46.8427526 104.3353509
 102.8274334  48.3290059 104.0887531  96.9625198  45.3412253 119.1719657
  97.6724817  44.7005445 119.1306276  96.9194506  45.5925148 120.0945838
  95.6754132  42.3277471 120.9915297  95.1391489  41.8768210 121.6436893
  95.0870840  42.4623380 120.2485761  93.9702675  59.0941520 114.8859956
  94.2099274  59.7260045 115.5638974  93.1271872  58.7429561 115.1725315
  95.0856391  41.7866123 103.5541761  94.2085857  41.6654923 103.1904007
  95.5614144  40.9952201 103.3020649  86.6058531  46.5743282 113.6483268
  87.2929571  46.2605012 113.0604283  86.4506660  47.4784647 113.3750519
  91.4093253  41.4633479 118.0768291  91.3251442  40.8559148 117.3418701
  90.5875960  41.9542497 118.0777788  98.4830537  54.9020643 117.2901460
  98.4100709  55.7075614 117.8020764  98.0407930  55.1012609 116.4649481
  98.2720317  54.1392413 110.8004281  97.4887839  54.6814093 110.8942506
  98.9713062  54.6566393 111.1998522 101.5816967  39.9487042 113.4438487
 102.0785667  39.1957005 113.1239557 100.8103949  39.9851359 112.8781696
 100.9429221  54.8007477 119.4459618 101.6557193  55.4354942 119.3735520
 100.4519250  54.8971343 118.6299620 102.6646748  48.7058730 111.0176910
 101.7303027  48.8260192 110.8481614 102.8423416  47.8031196 110.7536920
  98.1651936  42.0904425 113.1710171  97.7949723  41.5375466 113.8591077
  98.6611028  41.4862559 112.6185171 106.0519299  44.5476049 111.5526944
 106.5179751  45.3804041 111.4787247 106.5026800  44.0821030 112.2572203
  95.9941134  52.5501920 120.2665189  96.6950594  53.1838403 120.4194583
  95.5236249  52.8916652 119.5060828 104.1195530  50.8919870 108.5513096
 104.3955374  50.7776465 109.4606970 103.2500029  50.4937355 108.5125269
 100.7549594  55.1406221 112.1945910 100.9371989  54.3227877 112.6573662
 101.5782580  55.3573913 111.7570800 101.0891760  54.0674406 109.4560958
 101.6179526  53.5566861 108.8431120 101.3519979  53.7516936 110.3206491
  91.5908852  52.0838275 117.1996292  92.1762289  51.3381963 117.3324196
  91.3933691  52.3942232 118.0832956  94.4447508  55.1189523 112.2158734
  93.7757883  55.6035650 111.7322774  94.3060377  55.3658743 113.1302113
  86.1826507  44.6543876 115.9200735  86.2210607  44.1207466 116.7137853
  85.6766800  44.1279081 115.3011712  98.5852776  57.1533266 118.8141392
  99.1371084  57.3164888 119.5790478  98.9258970  57.7437704 118.1421417
  93.5617270  39.5008416 119.4163277  93.6258596  40.3623247 119.0040675
  93.4984390  38.8882418 118.6835636  89.8135085  43.3807978 108.9954666
  90.1088526  42.4718656 108.9421720  88.9123121  43.3595717 108.6735669
 101.7221164  55.1015242 115.8005075 101.5972303  54.3004982 115.2916020
 102.3800255  55.5961435 115.3119045  93.3429332  41.4563974 114.9782215
  92.6215918  42.0699942 114.8389688  94.1322588  41.9921739 114.8998861
 103.7856072  52.9024262 117.4284625 102.8386407  52.7829613 117.3562951
 104.1338845  52.0146760 117.5110886  91.5422926  41.0622075 109.1193991
  91.2135633  40.1819454 108.9369097  91.8962297  41.0069744 110.0070381
 100.7902505  52.6976978 113.6288977 100.6427468  51.7693686 113.8096547
 101.6155999  52.7197069 113.1446052  94.6564750  41.3495045 109.4869469
  94.9960822  41.8780967 108.7648077  95.1036870  41.6875451 110.2628036
 104.3936627  53.5205537 114.7153850 105.3183175  53.3148398 114.5778301
 104.2251930  53.2721938 115.6243191  96.6432897  39.8469667 107.6862762
  97.3641259  40.2250920 107.1826479  96.0198201  40.5658544 107.7897740
 100.7864020  40.5514816 108.6221094 101.0027634  41.4339454 108.3209922
 100.3058087  40.1601029 107.8926736  95.5263241  43.5100529 115.1991839
  95.3807822  43.8240832 116.0916120  95.0488445  44.1285429 114.6462737
  97.3859624  40.5003077 115.2472728  97.3721193  39.6044170 114.9105026
  98.1032052  40.5073741 115.8811014  99.2385755  40.9340417 117.2925856
  98.9803532  41.8557488 117.2910186  98.7070795  40.5370852 117.9826320
 104.1831943  54.0391204 110.0715941 104.3568821  53.4737627 109.3189794
 104.6760835  54.8392099 109.8895431  90.0008903  46.0505873 118.1379500
  89.4562371  46.8265681 118.2699774  90.8788253  46.3976678 117.9798621
  96.7896520  39.3817457 110.5160298  96.9112431  38.4534104 110.7151186
  96.4998562  39.3956143 109.6038614  99.6587710  37.0672368 113.6527018
  99.6809407  37.1311701 112.6978998 100.0755769  36.2276876 113.8467524
 110.0371334  46.8027627 111.6906241 110.4802481  46.0534953 111.2925364
 109.1597845  46.7937764 111.3079973 105.1707116  53.3557969 107.1712839
 105.8658020  53.9764661 107.3900154 105.5130266  52.5053320 107.4465217
  90.7874925  45.1775770 121.0309657  90.0456661  45.3258405 121.6174287
  90.4667669  45.4384035 120.1676406 107.0698539  50.8057674 108.7000170
 107.5949863  51.1444947 107.9749490 106.9820891  49.8704690 108.5163305
  98.7318588  54.7191748 120.8290047  99.0405714  54.4740895 121.7012746
  99.5294070  54.9238386 120.3408917  98.7539200  56.8729658 113.0595423
  98.3144190  56.3806036 113.7528280  99.5047317  56.3302625 112.8187499
  91.2331539  53.0641198 113.0620051  92.0589559  52.7644970 112.6818695
  90.8825591  52.2948821 113.5109840  96.2013072  52.4167667 115.1317725
  95.5793081  51.7538372 114.8319953  96.8717939  52.4428799 114.4491373
  89.4340144  50.9827525 114.0208985  88.5972052  50.5549699 113.8392986
  89.4063789  51.1759968 114.9579776  95.7626579  50.9671590 108.6076186
  95.9114699  51.6507054 107.9542858  96.5693022  50.9476680 109.1225641
  93.5179212  46.9936768 109.6137255  93.2725254  46.0899098 109.8117465
  93.6875126  46.9953918 108.6716733  92.7874859  42.7265125 107.1123416
  92.0944104  42.8009480 106.4563452  92.5426611  41.9625469 107.6344933
  99.2621984  53.4619720 106.0787933  98.6895951  54.0809908 105.6258405
  99.8354778  54.0119082 106.6127855 102.4819244  53.7456871 107.2096515
 103.4149917  53.6802432 107.4129391 102.3942457  54.5813137 106.7511048
 105.1107261  53.0622741 104.1700463 105.0320892  52.7282605 105.0636221
 105.9316927  53.5544509 104.1691935  99.6468783  44.7980533 103.4203986
 100.5927887  44.6686741 103.4892404  99.2683028  44.0595195 103.8973414
  97.8311700  42.7230510 103.3558871  96.9243155  42.4263622 103.4321584
  98.1087681  42.4260328 102.4893157  88.7489640  44.0436873 113.8057917
  88.4292425  43.1902181 113.5132291  88.2023068  44.2585451 114.5615884
  92.5269548  46.7599314 117.5227424  92.7455558  47.6916422 117.5415457
  92.9395322  46.4007288 118.3082227  99.4473766  37.2667399 109.5103112
  98.6374494  36.9214484 109.8858358 100.1358183  36.9574943 110.0990724
 101.3764314  36.3445446 111.1327409 101.9295353  36.7640900 111.7917432
 101.6134400  35.4181194 111.1750365  96.6010485  39.5817445 103.4970850
  97.4629649  39.9072343 103.7566667  96.7860829  38.7948941 102.9843916
  88.6177900  47.6639785 115.7751039  87.9241372  47.2493737 115.2620993
  89.3650891  47.7060321 115.1784458 104.7543121  38.4545971 110.6406073
 104.1741790  39.1130775 110.2584125 104.4879054  37.6323316 110.2293490
  90.5314643  47.5958038 113.6517054  90.5085331  47.6945726 112.6998937
  90.8415279  48.4423189 113.9734220  93.1902021  49.6534193 117.7663668
  94.1445274  49.6218136 117.6993600  92.9914544  49.1924817 118.5813894
  93.7801403  48.2235309 120.3334466  94.5994292  48.7179388 120.3569303
  94.0538211  47.3067278 120.3052033 103.5367999  40.6146062 109.6962421
 102.6493854  40.8995712 109.4782616 103.9521988  40.4539825 108.8489698
  91.5452249  55.1953813 114.7833866  91.4106717  54.4354214 114.2171864
  91.1284312  55.9194713 114.3162655 102.6811212  50.3790736 103.7910441
 103.3847063  50.5840739 104.4068097 101.9573861  50.9467498 104.0559525
 103.5109023  46.1300598 109.9112711 103.4544224  46.5869149 109.0720344
 104.0637365  45.3691282 109.7335554 107.3213829  41.9190329 110.7362831
 107.0650763  41.5186965 111.5671039 106.6966697  42.6334123 110.6112970
  94.7021375  56.0923130 114.9952309  94.5853759  57.0368562 114.8930999
  93.8813822  55.7896691 115.3838108 104.5897910  50.8173266 105.8408901
 105.4243514  50.3854464 105.6586376 104.4282253  50.6455279 106.7685796
 104.2443802  47.3205379 107.2065241 104.1892606  47.1549650 106.2653685
 103.6189857  48.0281412 107.3627430  89.0336317  42.5573443 121.0326663
  89.6795181  42.0472397 121.5213888  88.8253468  43.2942125 121.6070088
  97.5539928  36.8213488 106.7850559  97.5418597  37.7655328 106.9418830
  98.4463349  36.6383633 106.4910020  95.7275889  56.7451392 118.2108237
  96.6303136  56.7775002 118.5274732  95.5013260  55.8151843 118.2254573
  97.4829491  55.4982378 114.8718316  96.5325122  55.4984240 114.7582688
  97.7861978  54.7515113 114.3554350 101.3692047  33.4156265 111.0396496
 100.6024443  32.8614751 111.1853178 101.7802752  33.4878133 111.9010647
 110.0271891  61.2870345 115.8725603 109.6890403  61.1711409 114.9846138
 110.8961659  60.8861510 115.8526609 105.8858707  63.1405821 111.8622494
 105.3223572  63.0495758 111.0938781 105.7711102  62.3205726 112.3424986
 103.4323139  64.6357013 114.7006714 104.2244431  64.2947837 114.2853013
 103.6719789  64.7451988 115.6208867 111.4658266  66.8076789 107.1736959
 110.8146245  67.3930869 106.7870972 112.2602628  67.3382984 107.2331996
 105.3913893  63.8965926 107.5724093 106.1644769  63.3494913 107.4336969
 105.7439292  64.7610175 107.7838554 107.7280171  60.0558592 105.2042543
 107.9805691  59.5340113 104.4426006 106.7904730  59.8924738 105.3069226
 112.7723453  59.0594371 113.0117286 113.5586543  58.6413794 112.6607703
 113.0362158  59.9640463 113.1798934 112.9433531  64.4967221 107.7105943
 112.3079364  64.5701847 108.4226847 112.6130937  65.0860820 107.0325022
 107.4476459  61.9586698 107.4066918 107.3312717  61.2831601 108.0748002
 107.5578719  61.4719072 106.5899071 109.7908000  61.4196845 111.1113607
 109.4266208  60.8927466 111.8226528 110.6475116  61.0295314 110.9380092
 109.4313487  56.4486745 106.1074956 109.5987890  57.3166981 106.4745427
 109.2410656  56.6114027 105.1836245 105.6401302  61.3617521 113.8077490
 104.7151798  61.2293735 114.0155182 105.8885715  62.1411740 114.3047433
 109.4102708  58.9044402 107.0921622 109.2902333  59.3501453 107.9307103
 108.7155297  59.2529720 106.5335160 103.0010113  61.0050794 114.6421279
 103.1302494  61.2585273 115.5560691 102.3207564  61.5978502 114.3225934
 107.1709600  71.6748044 110.7411754 107.0933630  72.6255869 110.8200234
 106.5671244  71.3293917 111.3986680 115.1087774  59.3765876 107.9201956
 116.0205630  59.6093262 107.7449654 114.5997421  59.9602920 107.3577035
 109.2685319  64.0966102 112.5765623 109.7323664  64.3753805 111.7870245
 109.0042117  63.1949547 112.3938714 106.1609400  63.6437584 115.5145386
 106.7310757  64.0724852 114.8762871 106.7517511  63.3620168 116.2129572
 108.2054205  60.2189254 109.3855188 108.9078248  60.6710298 109.8529114
 107.8734833  59.5773073 110.0135081 101.9479539  58.4772807 114.6872322
 101.1578593  58.7330336 114.2112432 102.4390786  59.2921145 114.7924362
 103.8994284  58.8417386 111.6455798 103.1025447  58.9536081 112.1639294
 103.6719876  59.1804039 110.7796689 100.2317242  58.7303298 117.1187312
 100.4825280  59.6150308 117.3844888 100.7676790  58.5507899 116.3462404
 109.4447969  67.0330197 109.4617293 109.3093644  67.8781733 109.8902141
 109.9857782  67.2349475 108.6983227 102.8977367  64.5505635 110.0345218
 103.4101887  65.3448885 110.1850783 103.5500079  63.8531926 109.9678820
 104.7072251  67.6671391 112.1167972 104.8838880  68.5889356 111.9288955
 105.5029085  67.3529811 112.5462351 100.8626283  62.8794289 110.8104789
 101.7001505  63.2891298 110.5938497 101.0404551  61.9393732 110.7804983
 112.7590715  60.5469370 106.4988622 112.2437339  61.3173975 106.7377009
 112.4868024  59.8734506 107.1221683 110.3437827  55.3919071 111.5573860
 109.4879423  55.0025921 111.3779499 110.7564778  55.4711032 110.6973646
 108.1179859  53.0104144 114.9631602 108.9832856  52.8146953 114.6037491
 108.1857368  52.7814496 115.8900959 117.7324990  63.3001725 108.4341795
 116.9554432  62.9612884 107.9896957 118.4116471  63.3054348 107.7596760
 112.5477019  58.4196462 108.3248403 112.2427154  58.7342611 109.1758546
 113.5007461  58.4977882 108.3675736 110.9923450  64.5786686 109.9741357
 110.4644812  63.8439445 109.6614594 110.4910953  65.3561362 109.7281325
 105.7242178  55.2406352 112.3347969 106.2985930  55.0181533 111.6021162
 106.3113161  55.3095046 113.0876570 114.7821755  61.1280079 113.1412345
 115.2953637  61.7610071 113.6434055 115.4322979  60.5281274 112.7755705
 106.0511765  57.2710813 106.3543854 105.2149077  57.6085499 106.6753129
 105.9116535  57.1359793 105.4170991 108.0264846  52.1147601 111.0623038
 107.3729258  51.7996618 110.4379653 107.9845320  51.4923341 111.7882861
 109.1376051  62.3966896 102.9776330 108.2303112  62.1656149 103.1767479
 109.6347083  61.6004515 103.1650312 112.0444130  71.1064403 105.8973016
 111.3705828  71.4096100 106.5057974 112.4309952  71.9093483 105.5478473
 111.2602586  58.6029534 115.3870686 110.3425148  58.8244481 115.2292374
 111.6762730  58.6775845 114.5282393 112.0437634  60.0020950 110.5173366
 112.7909453  60.5142347 110.2080488 112.3129223  59.6805003 111.3777759
 110.3164284  62.4979491 107.5000320 109.4075503  62.2138523 107.5972790
 110.3459368  62.9178569 106.6403627 114.4916471  57.0378066 112.4992155
 113.7539228  56.5255452 112.8302398 114.7443245  56.5978448 111.6875432
 100.8852454  60.2185005 111.4815522 100.6876854  59.6254365 110.7566589
 100.3299118  59.9137215 112.1991461 108.8649178  60.1108111 113.6010116
 108.9197788  59.1581948 113.5252592 108.0540380  60.2667550 114.0851414
 110.0140372  64.0388234 104.8388399 109.5759802  63.3224093 104.3794036
 110.7550813  64.2664349 104.2773490 106.8041538  58.7285171 111.3600494
 105.9909404  59.0279342 111.7665687 107.3000532  58.3340860 112.0774977
 118.1313487  62.3145431 110.8964717 117.9931385  62.5047027 109.9685907
 117.7749706  63.0764814 111.3532768 106.2955613  56.3003527 116.9761729
 106.9354992  56.1592286 116.2784693 105.4633143  56.0138040 116.6000331
 107.0715917  65.6005957 113.0896722 107.8656515  65.1056277 112.8879297
 106.3607609  65.0723820 112.7264427 103.3798680  59.7449039 109.1656474
 102.4496268  59.6833494 109.3826437 103.4756152  59.2224991 108.3693116
 103.2984229  56.2703852 111.7534716 103.5591047  57.1849185 111.6443877
 104.1201402  55.8028294 111.9031329 104.7709155  57.6841609 118.9233541
 105.4432208  57.4758971 118.2746190 103.9438941  57.4863695 118.4838773
 110.2435345  71.2744075 108.1120095 110.4187100  70.8032119 108.9265718
 109.5568133  71.9009842 108.3401356 114.1351600  62.8972616 104.4320456
 113.5180770  62.1719444 104.3353509 113.6668088  63.6581976 104.0887531
 105.9250145  57.1158040 103.5541761 105.0479612  56.9946841 103.1904007
 106.4007899  56.3244119 103.3020649  97.4452286  61.9035200 113.6483268
  98.1323325  61.5896930 113.0604283  97.2900414  62.8076565 113.3750519
 102.2487008  56.7925397 118.0768291 102.1645196  56.1851066 117.3418701
 101.4269714  57.2834415 118.0777788 109.1114071  69.4684331 110.8004281
 108.3281593  70.0106011 110.8942506 109.8106817  69.9858310 111.1998522
 112.4210722  55.2778960 113.4438487 112.9179421  54.5248922 113.1239557
 111.6497703  55.3143277 112.8781696 113.5040502  64.0350647 111.0176910
 112.5696781  64.1552110 110.8481614 113.6817171  63.1323114 110.7536920
 109.0045690  57.4196343 113.1710171 108.6343478  56.8667383 113.8591077
 109.5004783  56.8154477 112.6185171 116.8913054  59.8767967 111.5526944
 117.3573506  60.7095958 111.4787247 117.3420554  59.4112948 112.2572203
 114.9589285  66.2211788 108.5513096 115.2349129  66.1068382 109.4606970
 114.0893783  65.8229273 108.5125269 111.9285514  69.3966324 109.4560958
 112.4573281  68.8858778 108.8431120 112.1913734  69.0808854 110.3206491
  97.0220262  59.9835793 115.9200735  97.0604361  59.4499384 116.7137853
  96.5160555  59.4570999 115.3011712 104.4011024  54.8300334 119.4163277
 104.4652350  55.6915165 119.0040675 104.3378144  54.2174336 118.6835636
 100.6528839  58.7099896 108.9954666 100.9482280  57.8010574 108.9421720
  99.7516875  58.6887635 108.6735669 104.1823086  56.7855892 114.9782215
 103.4609672  57.3991860 114.8389688 104.9716342  57.3213657 114.8998861
 102.3816681  56.3913993 109.1193991 102.0529387  55.5111372 108.9369097
 102.7356052  56.3361662 110.0070381 105.4958504  56.6786963 109.4869469
 105.8354577  57.2072884 108.7648077 105.9430625  57.0167369 110.2628036
 107.4826651  55.1761585 107.6862762 108.2035014  55.5542837 107.1826479
 106.8591955  55.8950461 107.7897740 111.6257774  55.8806734 108.6221094
 111.8421388  56.7631371 108.3209922 111.1451841  55.4892947 107.8926736
 106.3656995  58.8392447 115.1991839 106.2201576  59.1532750 116.0916120
 105.8882199  59.4577347 114.6462737 108.2253378  55.8294995 115.2472728
 108.2114947  54.9336088 114.9105026 108.9425806  55.8365658 115.8811014
 110.0779509  56.2632335 117.2925856 109.8197287  57.1849406 117.2910186
 109.5464549  55.8662769 117.9826320 100.8402658  61.3797791 118.1379500
 100.2956126  62.1557599 118.2699774 101.7182007  61.7268596 117.9798621
 107.6290274  54.7109375 110.5160298 107.7506185  53.7826021 110.7151186
 107.3392317  54.7248061 109.6038614 110.4981465  52.3964285 113.6527018
 110.5203161  52.4603619 112.6978998 110.9149524  51.5568794 113.8467524
 116.0100870  68.6849886 107.1712839 116.7051775  69.3056579 107.3900154
 116.3524020  67.8345238 107.4465217 117.9092293  66.1349592 108.7000170
 118.4343617  66.4736865 107.9749490 117.8214646  65.1996607 108.5163305
 102.0725293  68.3933116 113.0620051 102.8983313  68.0936888 112.6818695
 101.7219345  67.6240739 113.5109840 100.2733898  66.3119443 114.0208985
  99.4365806  65.8841617 113.8392986 100.2457544  66.5051886 114.9579776
 106.6020333  66.2963508 108.6076186 106.7508454  66.9798972 107.9542858
 107.4086777  66.2768598 109.1225641 104.3572966  62.3228685 109.6137255
 104.1119008  61.4191015 109.8117465 104.5268881  62.3245836 108.6716733
 103.6268614  58.0557043 107.1123416 102.9337859  58.1301398 106.4563452
 103.3820366  57.2917387 107.6344933 110.1015739  68.7911638 106.0787933
 109.5289706  69.4101825 105.6258405 110.6748532  69.3411000 106.6127855
 113.3212999  69.0748788 107.2096515 114.2543672  69.0094350 107.4129391
 113.2336211  69.9105055 106.7511048 115.9501015  68.3914659 104.1700463
 115.8714647  68.0574522 105.0636221 116.7710682  68.8836427 104.1691935
 110.4862537  60.1272451 103.4203986 111.4321642  59.9978659 103.4892404
 110.1076782  59.3887113 103.8973414 108.6705454  58.0522427 103.3558871
 107.7636910  57.7555540 103.4321584 108.9481435  57.7552245 102.4893157
  99.5883395  59.3728791 113.8057917  99.2686179  58.5194099 113.5132291
  99.0416823  59.5877369 114.5615884 103.3663302  62.0891232 117.5227424
 103.5849312  63.0208340 117.5415457 103.7789076  61.7299206 118.3082227
 110.2867520  52.5959317 109.5103112 109.4768248  52.2506402 109.8858358
 110.9751937  52.2866861 110.0990724 112.2158068  51.6737364 111.1327409
 112.7689107  52.0932817 111.7917432 112.4528155  50.7473112 111.1750365
 107.4404239  54.9109363 103.4970850 108.3023403  55.2364261 103.7566667
 107.6254583  54.1240858 102.9843916  99.4571655  62.9931702 115.7751039
  98.7635126  62.5785655 115.2620993 100.2044646  63.0352239 115.1784458
 115.5936875  53.7837889 110.6406073 115.0135545  54.4422693 110.2584125
 115.3272808  52.9615234 110.2293490 101.3708397  62.9249956 113.6517054
 101.3479085  63.0237643 112.6998937 101.6809034  63.7715107 113.9734220
 114.3761754  55.9437979 109.6962421 113.4887609  56.2287630 109.4782616
 114.7915743  55.7831743 108.8489698 113.5204967  65.7082654 103.7910441
 114.2240817  65.9132657 104.4068097 112.7967616  66.2759416 104.0559525
 114.3502777  61.4592515 109.9112711 114.2937979  61.9161067 109.0720344
 114.9031120  60.6983200 109.7335554 118.1607583  57.2482247 110.7362831
 117.9044517  56.8478883 111.5671039 117.5360451  57.9626041 110.6112970
 115.4291664  66.1465183 105.8408901 116.2637268  65.7146382 105.6586376
 115.2676007  65.9747197 106.7685796 115.0837557  62.6497297 107.2065241
 115.0286360  62.4841568 106.2653685 114.4583612  63.3573329 107.3627430
  99.8730072  57.8865361 121.0326663 100.5188935  57.3764315 121.5213888
  99.6647223  58.6234043 121.6070088 108.3933682  52.1505406 106.7850559
 108.3812352  53.0947245 106.9418830 109.2857104  51.9675551 106.4910020
 112.2085801  48.7448182 111.0396496 111.4418197  48.1906669 111.1853178
 112.6196506  48.8170051 111.9010647 116.8905520  72.6002731 106.3543854
 116.0542832  72.9377417 106.6753129 116.7510289  72.4651710 105.4170991
 116.7643900  72.4449958 103.5541761 115.8873366  72.3238759 103.1904007
 117.2401653  71.6536036 103.3020649 114.4662368  73.3848961 107.1123416
 113.7731613  73.4593316 106.4563452 114.2214120  72.6209304 107.6344933
 119.5099209  73.3814345 103.3558871 118.6030664  73.0847458 103.4321584
 119.7875190  73.0844163 102.4893157 118.2797994  70.2401280 103.4970850
 119.1417157  70.5656179 103.7566667 118.4648338  69.4532776 102.9843916
 119.2327437  67.4797323 106.7850559 119.2206106  68.4239163 106.9418830
 120.1250858  67.2967469 106.4910020  74.6528338   2.6934414  97.4657060
  74.5752368   3.6442239  97.5445541  74.0489982   2.3480286  98.1231987
  72.2915168   5.4419808 101.6105262  72.5311766   6.0738332 102.2884281
  71.4484364   5.0907848 101.8970621  72.7660000   1.4667810  98.9404041
  72.0970375   1.9513938  98.4568081  72.6272870   1.7137031  99.8547419
  76.9065269   3.5011554 105.5386699  77.4583577   3.6643175 106.3035784
  77.2471462   4.0915991 104.8666724  77.0751692   3.2207945  99.7840730
  76.6356682   2.7284324 100.4773587  77.8259809   2.6780913  99.5432805
  69.8664742   1.5432100 101.5079173  69.7319210   0.7832501 100.9417171
  69.4496804   2.2673000 101.0407961  73.0233868   2.4401417 101.7197615
  72.9066252   3.3846850 101.6176305  72.2026314   2.1374979 102.1083414
  74.0488382   3.0929679 104.9353544  74.9515628   3.1253289 105.2520039
  73.8225752   2.1630130 104.9499879  88.3484384   7.6348632 102.5970909
  88.0102895   7.5189697 101.7091444  89.2174152   7.2339797 102.5771915
  84.2071199   9.4884108  98.5867800  83.6436064   9.3974045  97.8184088
  84.0923594   8.6684013  99.0670293  81.7535631  10.9835300 101.4252021
  82.5456923  10.6426125 101.0098320  81.9932281  11.0930275 102.3454174
  89.7870758  13.1555076  93.8982265  89.1358738  13.7409157  93.5116279
  90.5815121  13.6861271  93.9577303  83.7126385  10.2444213  94.2969400
  84.4857261   9.6973200  94.1582275  84.0651784  11.1088463  94.5083861
  85.5511428  11.5720596 107.5036299  85.2601294  12.4766226 107.3882965
  86.1868412  11.6137123 108.2180368  86.4767635   8.9497444 104.0937658
  87.0731207   8.7253466 103.3794621  86.5342606   8.2082190 104.6963106
  86.0492663   6.4036879  91.9287849  86.3018184   5.8818401  91.1671312
  85.1117222   6.2403025  92.0314533  91.2646023  10.8445508  94.4351249
  90.6291856  10.9180135  95.1472154  90.9343430  11.4339107  93.7570329
  85.7688952   8.3064985  94.1312224  85.6525210   7.6309889  94.7993309
  85.8791212   7.8197359  93.3144377  88.1120493   7.7675132  97.8358914
  87.7478700   7.2405753  98.5471835  88.9687609   7.3773602  97.6625399
  90.5101313  11.2582011 104.4986093  90.2102036  12.1607050 104.3901900
  90.1652372  10.9914194 105.3507245  83.9613794   7.7095808 100.5322797
  83.0364291   7.5772022 100.7400489  84.2098207   8.4890027 101.0292739
  81.3222605   7.3529081 101.3666586  81.4514986   7.6063560 102.2805998
  80.6420057   7.9456789 101.0471241  85.4922093  18.0226331  97.4657060
  85.4146122  18.9734156  97.5445541  84.8883736  17.6772204  98.1231987
  86.2385695   8.0039650 109.6836394  86.9800379   8.5424694 109.4071218
  85.5322680   8.6305939 109.8407946  92.0369849  10.7069981 102.0360844
  91.4078711  10.8715695 101.3336912  91.6495511  11.1211591 102.8071809
  95.9159081  11.6424419  99.3905208  95.2310119  12.0223320  98.8402242
  96.0002930  12.2519746 100.1237156  87.5897811  10.4444389  99.3010930
  88.0536156  10.7232092  98.5115552  87.3254609   9.5427834  99.1184020
  84.4821892   9.9915871 102.2390693  85.0523249  10.4203139 101.6008177
  85.0730004   9.7098456 102.9374879  86.5266697   6.5667542  96.1100495
  87.2290740   7.0188585  96.5774421  86.1947325   5.9251361  96.7380388
  80.2692031   4.8251094 101.4117628  79.4791085   5.0808623 100.9357739
  80.7603278   5.6399432 101.5169669  94.2855840  12.1656334 104.1622909
  95.1073284  11.7636521 103.8805591  94.2818243  12.0624568 105.1139025
  82.2206776   5.1895674  98.3701105  81.4237939   5.3014368  98.8884601
  81.9932368   5.5282326  97.5041996  88.0512444  11.7140377 106.3183620
  88.1156876  12.1760784 107.1541791  87.3423368  11.0837742 106.4465929
  78.5529734   5.0781585 103.8432619  78.8037772   5.9628595 104.1090195
  79.0889282   4.8986186 103.0707711  87.7660461  13.3808484  96.1862600
  87.6306136  14.2260020  96.6147448  88.3070274  13.5827762  95.4228534
  81.2189859  10.8983922  96.7590525  81.7314379  11.6927173  96.9096090
  81.8712572  10.2010213  96.6924126  83.0284744  14.0149679  98.8413278
  83.2051372  14.9367643  98.6534262  83.8241577  13.7008098  99.2707658
  82.3137100   6.0614311 108.7175441  82.1990615   5.1599568 109.0182540
  81.4581618   6.3078007 108.3660258  89.3928938  14.0032051 110.3162942
  88.9492792  13.2168429 109.9983847  90.0546151  14.1911201 109.6506833
  84.1516059  15.5327852 104.8423621  84.7023484  15.4044916 104.0700614
  83.3127535  15.8322741 104.4918513  87.9483230  11.7978980 109.1867852
  88.4811567  11.0367268 108.9567160  87.4197311  11.5052632 109.9292006
  79.1838776   9.2272577  97.5350096  80.0213998   9.6369585  97.3183803
  79.3617043   8.2872019  97.5050289  96.0537482   9.6480012  95.1587102
  95.2766925   9.3091171  94.7142264  96.7328963   9.6532635  94.4842067
  89.3135943  10.9264973  96.6986664  88.7857304  10.1917732  96.3859901
  88.8123445  11.7039649  96.4526632  94.2928789   9.1213993 101.8153710
  93.6352463   9.8113255 101.9033839  95.0969188   9.5110425 102.1587696
  87.4588543   8.7445183  89.7021637  86.5515605   8.5134436  89.9012786
  87.9559575   7.9482802  89.8895618  90.3656622  17.4542690  92.6218323
  89.6918321  17.7574387  93.2303281  90.7522444  18.2571771  92.2723780
  88.6376776   8.8457778  94.2245627  87.7287996   8.5616811  94.3218097
  88.6671860   9.2656856  93.3648934  93.8696044  12.4564367  97.9936794
  93.4158371  11.6155277  98.0501985  93.2390011  13.0925766  98.3311575
  92.3128983  14.2940864  98.9286613  92.6051957  14.8545921  98.2098978
  92.8227604  14.5869425  99.6839772  79.2064947   6.5663292  98.2060829
  79.0089347   5.9732653  97.4811896  78.6511611   6.2615502  98.9236768
  88.3352864  10.3866522  91.5633705  87.8972294   9.6702380  91.1039343
  89.0763305  10.6142636  91.0018797  87.2762608  15.0721215 100.0180066
  87.2338787  15.2982061  99.0888598  88.1925307  14.8384590 100.1665867
  85.3928409  11.9484244  99.8142028  86.1869008  11.4534564  99.6124603
  84.6820101  11.4202107  99.4509734  90.2123253  14.3302340 104.1654396
  90.2660276  14.8993276 104.9332112  89.3438035  14.5004225 103.8008433
  81.7011172   6.0927326  95.8901781  80.7708761   6.0311781  96.1071743
  81.7968644   5.5703279  95.0938422  89.1711353   8.4962602 105.7241328
  90.1003413   8.6473761 105.5510295  88.7502383   8.5846623 104.8689974
  87.9699685  12.5213266 103.4939866  87.8310771  12.1532051 104.3665804
  87.1814281  13.0360906 103.3223823  88.5647837  17.6222363  94.8365402
  88.7399593  17.1510406  95.6511025  87.8780625  18.2488129  95.0646663
  89.5204900  11.8994869 100.8828703  89.1854733  11.8595639 101.7786353
  89.0208846  11.2339585 100.4099114  83.4949144   7.3062499 106.4081284
  83.3568942   6.5742738 107.0092824  84.4054068   7.2171399 106.1265472
  92.4564092   9.2450903  91.1565763  91.8393262   8.5197731  91.0598816
  91.9880580  10.0060263  90.8132837  86.1231445   7.0182458 105.8964964
  86.8331063   6.3775650 105.8551583  86.0800753   7.2695353 106.8191145
  83.1308922  20.7711725 101.6105262  83.3705520  21.4030250 102.2884281
  82.2878119  20.4199765 101.8970621  75.7664778   8.2513487 100.3728574
  76.4535818   7.9375217  99.7849590  75.6112907   9.1554852 100.0995826
  87.6436784  16.5790848 104.0146766  87.5706956  17.3845819 104.5266071
  87.2014177  16.7782814 103.1894788  87.4326564  15.8162618  97.5249588
  86.6494086  16.3584298  97.6187812  88.1319309  16.3336598  97.9243829
  90.1035468  16.4777682 106.1704925  90.8163440  17.1125147 106.0980826
  89.6125496  16.5741548 105.3544927  91.8252995  10.3828935  97.7422217
  90.8909273  10.5030397  97.5726921  92.0029663   9.4801401  97.4782226
  85.1547381  14.2272125 106.9910496  85.8556841  14.8608608 107.1439890
  84.6842496  14.5686857 106.2306135  93.2801777  12.5690075  95.2758403
  93.5561621  12.4546670  96.1852277  92.4106276  12.1707560  95.2370576
  89.9155841  16.8176426  98.9191216  90.0978236  15.9998082  99.3818969
  90.7388827  17.0344118  98.4816106  90.2498007  15.7444611  96.1806265
  90.7785773  15.2337066  95.5676427  90.5126226  15.4287141  97.0451798
  80.7515099  13.7608480 103.9241598  81.3368536  13.0152168 104.0569503
  80.5539938  14.0712437 104.8078262  83.6053754  16.7959728  98.9404041
  82.9364130  17.2805855  98.4568081  83.4666624  17.0428948  99.8547419
  75.3432754   6.3314081 102.6446042  75.3816853   5.7977671 103.4383160
  74.8373047   5.8049286 102.0257019  87.7459023  18.8303471 105.5386699
  88.2977331  18.9935093 106.3035784  88.0865217  19.4207909 104.8666724
  78.9741332   5.0578183  95.7199973  79.2694773   4.1488861  95.6667027
  78.0729367   5.0365922  95.3980975  90.8827410  16.7785447 102.5250381
  90.7578550  15.9775187 102.0161327  91.5406501  17.2731640 102.0364351
  92.9462319  14.5794467 104.1529931  91.9992654  14.4599818 104.0808258
  93.2945092  13.6916965 104.2356193  89.9508752  14.3747183 100.3534284
  89.8033714  13.4463891 100.5341854  90.7762246  14.3967274  99.8691359
  93.5542874  15.1975742 101.4399156  94.4789421  14.9918603 101.3023607
  93.3858177  14.9492143 102.3488498  84.6869488   5.1870734 101.9237145
  84.5414068   5.5011037 102.8161427  84.2094691   5.8055634 101.3708044
  93.3438190  15.7161409  96.7961248  93.5175068  15.1507832  96.0435100
  93.8367081  16.5162304  96.6140738  79.1615150   7.7276078 104.8624807
  78.6168618   8.5035886 104.9945081  80.0394500   8.0746883 104.7043928
  94.3313363  15.0328174  93.8958146  95.0264267  15.6534866  94.1145461
  94.6736513  14.1823525  94.1710524  79.9481172   6.8545975 107.7554963
  79.2062908   7.0028610 108.3419594  79.6273916   7.1154240 106.8921713
  96.2304786  12.4827879  95.4245477  96.7556110  12.8215152  94.6994797
  96.1427138  11.5474895  95.2408611  87.8924834  16.3961953 107.5535353
  88.2011961  16.1511100 108.4258053  88.6900316  16.6008591 107.0654224
  87.9145446  18.5499863  99.7840730  87.4750437  18.0576241 100.4773587
  88.6653563  18.0072830  99.5432805  80.3937785  14.7411403  99.7865358
  81.2195805  14.4415175  99.4064002  80.0431837  13.9719026 100.2355147
  85.3619319  14.0937872 101.8563032  84.7399328  13.4308577 101.5565260
  86.0324185  14.1199003 101.1736679  78.5946390  12.6597730 100.7454292
  77.7578299  12.2319904 100.5638293  78.5670036  12.8530173 101.6825083
  84.9232825  12.6441795  95.3321492  85.0720946  13.3277259  94.6788165
  85.7299269  12.6246885  95.8470948  82.6785458   8.6706973  96.3382561
  82.4331500   7.7669303  96.5362771  82.8481373   8.6724123  95.3962039
  88.4228231  15.1389925  92.8033240  87.8502198  15.7580113  92.3503712
  88.9961025  15.6889287  93.3373162  91.6425491  15.4227076  93.9341822
  92.5756164  15.3572637  94.1374697  91.5548704  16.2583342  93.4756355
  94.2713507  14.7392946  90.8945770  94.1927139  14.4052809  91.7881527
  95.0923174  15.2314714  90.8937242  77.9095887   5.7207078 100.5303224
  77.5898671   4.8672386 100.2377598  77.3629315   5.9355656 101.2861191
  81.6875795   8.4369519 104.2472730  81.9061804   9.3686627 104.2660764
  82.1001568   8.0777493 105.0327534  77.7784147   9.3409989 102.4996345
  77.0847618   8.9263942 101.9866300  78.5257138   9.3830526 101.9029764
  79.6920890   9.2728243 100.3762360  79.6691578   9.3715930  99.4244243
  80.0021526  10.1193394 100.6979526  82.3508267  11.3304398 104.4908975
  83.3051521  11.2988341 104.4238906  82.1520791  10.8695022 105.3059201
  82.9407650   9.9005514 107.0579772  83.7600539  10.3949593 107.0814610
  83.2144457   8.9837482 107.0297340  80.7058496  16.8724018 101.5079173
  80.5712964  16.1124419 100.9417171  80.2890559  17.5964918 101.0407961
  91.8417459  12.0560941  90.5155748  92.5453309  12.2610944  91.1313403
  91.1180108  12.6237703  90.7804831  83.8627622  17.7693335 101.7197615
  83.7460006  18.7138767 101.6176305  83.0420068  17.4666896 102.1083414
  93.7504157  12.4943470  92.5654208  94.5849761  12.0624669  92.3831683
  93.5888500  12.3225484  93.4931102  93.4050049   8.9975584  93.9310547
  93.3498853   8.8319855  92.9898991  92.7796104   9.7051617  94.0872737
  78.1942564   4.2343648 107.7571969  78.8401427   3.7242602 108.2459195
  77.9859715   4.9712330 108.3315395  84.8882136  18.4221597 104.9353544
  85.7909383  18.4545207 105.2520039  84.6619506  17.4922048 104.9499879
  86.6435738  17.1752583 101.5963622  85.6931369  17.1754445 101.4827995
  86.9468224  16.4285318 101.0799657 102.3788432  23.0113122 102.6609385
 103.0166842  22.8919869 101.9572725 102.2609275  23.9593966 102.7197337
  99.1878138  22.9640550 102.5970909  98.8496650  22.8481614 101.7091444
 100.0567906  22.5631715 102.5771915  95.0464954  24.8176026  98.5867800
  94.4829819  24.7265963  97.8184088  94.9317349  23.9975931  99.0670293
  92.5929386  26.3127218 101.4252021  93.3850678  25.9718042 101.0098320
  92.8326036  26.4222193 102.3454174 100.6264512  28.4846994  93.8982265
  99.9752492  29.0701074  93.5116279 101.4208875  29.0153189  93.9577303
  94.5520140  25.5736131  94.2969400  95.3251016  25.0265118  94.1582275
  94.9045538  26.4380380  94.5083861  96.3905182  26.9012513 107.5036299
  96.0995048  27.8058144 107.3882965  97.0262167  26.9429041 108.2180368
  97.3161389  24.2789362 104.0937658  97.9124961  24.0545384 103.3794621
  97.3736361  23.5374107 104.6963106  96.8886417  21.7328797  91.9287849
  97.1411938  21.2110318  91.1671312  95.9510977  21.5694943  92.0314533
 101.9329700  20.7364575  99.7362593 102.7192789  20.3183999  99.3853010
 102.1968405  21.6410668  99.9044241 102.1039778  26.1737426  94.4351249
 101.4685611  26.2472052  95.1472154 101.7737184  26.7631025  93.7570329
  96.6082706  23.6356903  94.1312224  96.4918964  22.9601806  94.7993309
  96.7184966  23.1489277  93.3144377  98.9514247  23.0967050  97.8358914
  98.5872454  22.5697671  98.5471835  99.8081363  22.7065519  97.6625399
  98.5919734  18.1256950  92.8320262  98.7594136  18.9937186  93.1990733
  98.4016903  18.2884232  91.9081551 101.3495067  26.5873929 104.4986093
 101.0495790  27.4898968 104.3901900 101.0046127  26.3206112 105.3507245
  94.8007549  23.0387726 100.5322797  93.8758045  22.9063940 100.7400489
  95.0491962  23.8181945 101.0292739  98.5708955  20.5814607  93.8166929
  98.4508580  21.0271658  94.6552409  97.8761543  20.9299925  93.2580467
  92.1616360  22.6820999 101.3666586  92.2908741  22.9355478 102.2805998
  91.4813811  23.2748707 101.0471241  96.3315847  33.3518249  97.4657060
  96.2539877  34.3026074  97.5445541  95.7277491  33.0064122  98.1231987
 104.2694021  21.0536081  94.6447263 105.1811877  21.2863467  94.4694961
 103.7603668  21.6373125  94.0822342  97.0779449  23.3331568 109.6836394
  97.8194133  23.8716612 109.4071218  96.3716435  23.9597857 109.8407946
  98.9065859  20.4133315 105.6542113  99.7527054  20.8372729 105.7976762
  98.8464496  19.7566939 106.3480676 102.8763603  26.0361899 102.0360844
 102.2472466  26.2007613 101.3336912 102.4889265  26.4503509 102.8071809
 106.7552835  26.9716337  99.3905208 106.0703873  27.3515238  98.8402242
 106.8396685  27.5811663 100.1237156  98.4291565  25.7736307  99.3010930
  98.8929911  26.0524010  98.5115552  98.1648363  24.8719752  99.1184020
  95.3215646  25.3207789 102.2390693  95.8917003  25.7495057 101.6008177
  95.9123758  25.0390373 102.9374879  97.3660451  21.8959459  96.1100495
  98.0684495  22.3480503  96.5774421  97.0341080  21.2543278  96.7380388
  91.1085785  20.1543012 101.4117628  90.3184839  20.4100541 100.9357739
  91.5997033  20.9691350 101.5169669 105.1249595  27.4948251 104.1622909
 105.9467039  27.0928439 103.8805591 105.1211998  27.3916485 105.1139025
  93.0600531  20.5187591  98.3701105  92.2631694  20.6306286  98.8884601
  92.8326123  20.8574244  97.5041996  98.8906198  27.0432295 106.3183620
  98.9550631  27.5052702 107.1541791  98.1817122  26.4129659 106.4465929
  89.3923488  20.4073503 103.8432619  89.6431527  21.2920512 104.1090195
  89.9283037  20.2278104 103.0707711  98.6054216  28.7100402  96.1862600
  98.4699891  29.5551938  96.6147448  99.1464028  28.9119680  95.4228534
  92.0583613  26.2275840  96.7590525  92.5708134  27.0219090  96.9096090
  92.7106326  25.5302131  96.6924126  93.8678498  29.3441596  98.8413278
  94.0445126  30.2659561  98.6534262  94.6635332  29.0300016  99.2707658
  93.1530855  21.3906228 108.7175441  93.0384370  20.4891485 109.0182540
  92.2975372  21.6369925 108.3660258 100.2322692  29.3323969 110.3162942
  99.7886547  28.5460347 109.9983847 100.8939906  29.5203119 109.6506833
  94.9909814  30.8619770 104.8423621  95.5417239  30.7336834 104.0700614
  94.1521289  31.1614659 104.4918513  98.7876985  27.1270898 109.1867852
  99.3205321  26.3659186 108.9567160  98.2591066  26.8344550 109.9292006
  90.0232530  24.5564494  97.5350096  90.8607752  24.9661503  97.3183803
  90.2010798  23.6163937  97.5050289 101.9196962  22.2239575  93.2233929
 101.4043586  22.9944180  93.4622316 101.6474271  21.5504711  93.8466990
  99.5044073  17.0689276  98.2819167  98.6485670  16.6796126  98.1024806
  99.9171025  17.1481237  97.4218952  97.2786106  14.6874349 101.6876908
  98.1439103  14.4917157 101.3282798  97.3463615  14.4584701 102.6146265
 106.8931236  24.9771930  95.1587102 106.1160679  24.6383089  94.7142264
 107.5722717  24.9824553  94.4842067 101.7083265  20.0966667  95.0493710
 101.4033401  20.4112816  95.9003853 102.6613708  20.1748087  95.0921043
 100.1529697  26.2556890  96.6986664  99.6251059  25.5209650  96.3859901
  99.6517200  27.0331567  96.4526632 105.1322543  24.4505911 101.8153710
 104.4746218  25.1405172 101.9033839 105.9362942  24.8402343 102.1587696
  94.8848425  16.9176557  99.0593275  95.4592177  16.6951738  98.3266468
  95.4719407  16.9865251  99.8121876 103.9428002  22.8050284  99.8657652
 104.4559884  23.4380275 100.3679361 104.5929226  22.2051479  99.5001012
  95.2118012  18.9481018  93.0789160  94.3755324  19.2855704  93.3998435
  95.0722782  18.8129998  92.1416297  97.1871093  13.7917806  97.7868345
  96.5335505  13.4766823  97.1624959  97.1451567  13.1693546  98.5128168
  98.2982297  24.0737101  89.7021637  97.3909359  23.8426354  89.9012786
  98.7953329  23.2774720  89.8895618 101.2050376  32.7834608  92.6218323
 100.5312075  33.0866305  93.2303281 101.5916198  33.5863688  92.2723780
 100.4208833  20.2799739 102.1115992  99.5031394  20.5014686 101.9537680
 100.8368977  20.3546050 101.2527700 101.2043881  21.6791155  97.2418673
 101.9515700  22.1912552  96.9325795 101.4735470  21.3575208  98.1023066
  99.4770531  24.1749696  94.2245627  98.5681750  23.8908728  94.3218097
  99.5065615  24.5948774  93.3648934 104.7089798  27.7856285  97.9936794
 104.2552125  26.9447195  98.0501985 104.0783765  28.4217683  98.3311575
 103.6522718  18.7148271  99.2237462 102.9145475  18.2025657  99.5547704
 103.9049491  18.2748653  98.4120739 103.1522738  29.6232782  98.9286613
 103.4445712  30.1837839  98.2098978 103.6621358  29.9161343  99.6839772
  90.0458701  21.8955210  98.2060829  89.8483101  21.3024570  97.4811896
  89.4905365  21.5907420  98.9236768  98.0255425  21.7878316 100.3255422
  98.0804035  20.8352153 100.2497899  97.2146627  21.9437755 100.8096721
  99.1746619  25.7158439  91.5633705  98.7366049  24.9994298  91.1039343
  99.9157060  25.9434554  91.0018797  95.9647785  20.4055376  98.0845801
  95.1515650  20.7049546  98.4910993  96.4606779  20.0111065  98.8020283
  98.1156363  30.4013133 100.0180066  98.0732542  30.6273979  99.0888598
  99.0319062  30.1676507 100.1665867 107.2919733  23.9915636  97.6210024
 107.1537632  24.1817232  96.6931213 106.9355952  24.7535019  98.0778075
  95.4561860  17.9773731 103.7007036  96.0961239  17.8362491 103.0029999
  94.6239390  17.6908245 103.3245638  96.2322164  27.2776162  99.8142028
  97.0262762  26.7826482  99.6124603  95.5213856  26.7494025  99.4509734
 101.0517008  29.6594257 104.1654396 101.1054030  30.2285194 104.9332112
 100.1831789  29.8296142 103.8008433  92.5404927  21.4219244  95.8901781
  91.6102515  21.3603699  96.1071743  92.6362399  20.8995196  95.0938422
  92.4590476  17.9474056  98.4780023  92.7197293  18.8619390  98.3689183
  93.2807648  17.4798499  98.6276636  93.9315401  19.3611814 105.6478847
  94.6038455  19.1529176 104.9991496  93.1045188  19.1633900 105.2084080
 100.0105108  23.8254519 105.7241328 100.9397168  23.9765679 105.5510295
  99.5896138  23.9138540 104.8689974  98.8093440  27.8505184 103.4939866
  98.6704525  27.4823968 104.3665804  98.0208036  28.3652823 103.3223823
  99.4041591  32.9514280  94.8365402  99.5793347  32.4802324  95.6511025
  98.7174379  33.5780047  95.0646663 100.3598655  27.2286787 100.8828703
 100.0248487  27.1887557 101.7786353  99.8602600  26.5631502 100.4099114
  94.3342899  22.6354417 106.4081284  94.1962697  21.9034655 107.0092824
  95.2447822  22.5463317 106.1265472 103.2957846  24.5742821  91.1565763
 102.6787017  23.8489649  91.0598816 102.8274335  25.3352181  90.8132837
  96.9625199  22.3474376 105.8964964  97.6724818  21.7067568 105.8551583
  96.9194507  22.5987271 106.8191145  95.6754133  19.3339594 107.7160604
  95.1391490  18.8830332 108.3682200  95.0870842  19.4685503 106.9731068
  93.9702677  36.1003643 101.6105262  94.2099275  36.7322167 102.2884281
  93.1271873  35.7491683 101.8970621  95.0856392  18.7928245  90.2787067
  94.2085859  18.6717046  89.9149314  95.5614145  18.0014323  90.0265956
  86.6058532  23.5805405 100.3728574  87.2929572  23.2667135  99.7849590
  86.4506661  24.4846770 100.0995826  91.4093254  18.4695601 104.8013598
  91.3251443  17.8621271 104.0664008  90.5875961  18.9604620 104.8023094
  98.4830539  31.9082766 104.0146766  98.4100710  32.7137737 104.5266071
  98.0407932  32.1074731 103.1894788  98.2720318  31.1454536  97.5249588
  97.4887840  31.6876216  97.6187812  98.9713063  31.6628515  97.9243829
 101.5816968  16.9549165 100.1683793 102.0785668  16.2019127  99.8484863
 100.8103950  16.9913482  99.6027002 100.9429222  31.8069600 106.1704925
 101.6557194  32.4417064 106.0980826 100.4519251  31.9033466 105.3544927
 102.6646749  25.7120852  97.7422217 101.7303028  25.8322315  97.5726921
 102.8423418  24.8093319  97.4782226  98.1651937  19.0966548  99.8955478
  97.7949725  18.5437588 100.5836383  98.6611030  18.4924681  99.3430478
 106.0519300  21.5538172  98.2772251 106.5179753  22.3866163  98.2032553
 106.5026801  21.0883153  98.9817509  95.9941136  29.5564043 106.9910496
  96.6950595  30.1900526 107.1439890  95.5236251  29.8978775 106.2306135
 104.1195532  27.8981993  95.2758403 104.3955375  27.7838587  96.1852277
 103.2500030  27.4999478  95.2370576 100.7549596  32.1468344  98.9191216
 100.9371990  31.3290000  99.3818969 101.5782582  32.3636036  98.4816106
 101.0891761  31.0736529  96.1806265 101.6179527  30.5628983  95.5676427
 101.3519981  30.7579059  97.0451798  91.5908854  29.0900398 103.9241598
  92.1762291  28.3444086 104.0569503  91.3933692  29.4004355 104.8078262
  94.4447509  32.1251645  98.9404041  93.7757884  32.6097773  98.4568081
  94.3060379  32.3720866  99.8547419  86.1826508  21.6605998 102.6446042
  86.2210608  21.1269589 103.4383160  85.6766801  21.1341204 102.0257019
  98.5852778  34.1595389 105.5386699  99.1371086  34.3227010 106.3035784
  98.9258971  34.7499827 104.8666724  93.5617271  16.5070539 106.1408584
  93.6258597  17.3685370 105.7285982  93.4984391  15.8944540 105.4080942
  89.8135086  20.3870100  95.7199973  90.1088527  19.4780779  95.6667027
  88.9123122  20.3657840  95.3980975 101.7221165  32.1077365 102.5250381
 101.5972304  31.3067104 102.0161327 102.3800256  32.6023558 102.0364351
  93.3429333  18.4626097 101.7027522  92.6215919  19.0762065 101.5634995
  94.1322589  18.9983862 101.6244167 103.7856073  29.9086385 104.1529931
 102.8386409  29.7891736 104.0808258 104.1338846  29.0208883 104.2356193
  91.5422928  18.0684198  95.8439298  91.2135634  17.1881577  95.6614404
  91.8962298  18.0131867  96.7315687 100.7902507  29.7039101 100.3534284
 100.6427469  28.7755808 100.5341854 101.6156000  29.7259192  99.8691359
  94.6564751  18.3557168  96.2114776  94.9960823  18.8843089  95.4893384
  95.1036871  18.6937574  96.9873342 104.3936628  30.5267660 101.4399156
 105.3183176  30.3210521 101.3023607 104.2251932  30.2784061 102.3488498
  96.6432898  16.8531789  94.4108068  97.3641260  17.2313042  93.9071785
  96.0198202  17.5720666  94.5143046 100.7864021  17.5576938  95.3466401
 101.0027635  18.4401576  95.0455229 100.3058088  17.1663152  94.6172043
  95.5263242  20.5162652 101.9237145  95.3807823  20.8302955 102.8161427
  95.0488446  21.1347552 101.3708044  97.3859625  17.5065200 101.9718035
  97.3721194  16.6106293 101.6350333  98.1032053  17.5135863 102.6056321
  99.2385756  17.9402540 104.0171162  98.9803534  18.8619611 104.0155493
  98.7070796  17.5432974 104.7071627 104.1831945  31.0453327  96.7961248
 104.3568822  30.4799749  96.0435100 104.6760836  31.8454222  96.6140738
  90.0008904  23.0567996 104.8624807  89.4562372  23.8327804 104.9945081
  90.8788254  23.4038801 104.7043928  96.7896521  16.3879580  97.2405605
  96.9112432  15.4596226  97.4396493  96.4998563  16.4018266  96.3283921
  99.6587711  14.0734490 100.3772325  99.6809408  14.1373823  99.4224305
 100.0755770  13.2338999 100.5712831 110.0371336  23.8089750  98.4151548
 110.4802482  23.0597075  98.0170671 109.1597846  23.7999886  98.0325280
 105.1707117  30.3620091  93.8958146 105.8658022  30.9826784  94.1145461
 105.5130267  29.5115443  94.1710524  90.7874926  22.1837892 107.7554963
  90.0456662  22.3320528 108.3419594  90.4667671  22.4446158 106.8921713
 107.0698540  27.8119797  95.4245477 107.5949864  28.1507070  94.6994797
 106.9820893  26.8766812  95.2408611  98.7318589  31.7253871 107.5535353
  99.0405715  31.4803017 108.4258053  99.5294071  31.9300509 107.0654224
  98.7539201  33.8791780  99.7840730  98.3144191  33.3868159 100.4773587
  99.5047318  33.3364748  99.5432805  91.2331540  30.0703321  99.7865358
  92.0589560  29.7707093  99.4064002  90.8825592  29.3010943 100.2355147
  96.2013073  29.4229789 101.8563032  95.5793082  28.7600494 101.5565260
  96.8717940  29.4490921 101.1736679  89.4340145  27.9889648 100.7454292
  88.5972053  27.5611822 100.5638293  89.4063790  28.1822091 101.6825083
  95.7626580  27.9733713  95.3321492  95.9114700  28.6569177  94.6788165
  96.5693023  27.9538803  95.8470948  93.5179213  23.9998890  96.3382561
  93.2725255  23.0961220  96.5362771  93.6875127  24.0016041  95.3962039
  92.7874860  19.7327248  93.8368723  92.0944105  19.8071603  93.1808759
  92.5426612  18.9687591  94.3590240  99.2621985  30.4681843  92.8033240
  98.6895953  31.0872030  92.3503712  99.8354779  31.0181205  93.3373162
 102.4819245  30.7518993  93.9341822 103.4149918  30.6864555  94.1374697
 102.3942458  31.5875260  93.4756355 105.1107262  30.0684864  90.8945770
 105.0320893  29.7344727  91.7881527 105.9316929  30.5606631  90.8937242
  99.6468784  21.8042656  90.1449292 100.5927889  21.6748864  90.2137710
  99.2683029  21.0657318  90.6218720  97.8311701  19.7292632  90.0804177
  96.9243157  19.4325745  90.1566891  98.1087682  19.4322450  89.2138464
  88.7489642  21.0498996 100.5303224  88.4292426  20.1964304 100.2377598
  88.2023070  21.2647574 101.2861191  92.5269549  23.7661437 104.2472730
  92.7455559  24.6978544 104.2660764  92.9395323  23.4069411 105.0327534
  99.4473767  14.2729522  96.2348419  98.6374495  13.9276607  96.6103665
 100.1358184  13.9637066  96.8236030 101.3764315  13.3507569  97.8572715
 101.9295354  13.7703022  98.5162738 101.6134402  12.4243317  97.8995671
  96.6010486  16.5879567  90.2216157  97.4629650  16.9134466  90.4811974
  96.7860830  15.8011063  89.7089222  88.6177902  24.6701907 102.4996345
  87.9241373  24.2555860 101.9866300  89.3650893  24.7122444 101.9029764
 104.7543122  15.4608094  97.3651380 104.1741791  16.1192898  96.9829432
 104.4879055  14.6385438  96.9538797  90.5314644  24.6020161 100.3762360
  90.5085332  24.7007848  99.4244243  90.8415281  25.4485312 100.6979526
  93.1902022  26.6596316 104.4908975  94.1445275  26.6280258 104.4238906
  92.9914546  26.1986940 105.3059201  93.7801404  25.2297432 107.0579772
  94.5994293  25.7241511 107.0814610  94.0538212  24.3129400 107.0297340
 103.5368000  17.6208184  96.4207728 102.6493855  17.9057835  96.2027923
 103.9521989  17.4601948  95.5735005  91.5452251  32.2015935 101.5079173
  91.4106719  31.4416336 100.9417171  91.1284313  32.9256835 101.0407961
 102.6811214  27.3852859  90.5155748 103.3847064  27.5902861  91.1313403
 101.9573863  27.9529621  90.7804831 103.5109024  23.1362720  96.6358018
 103.4544225  23.5931272  95.7965650 104.0637366  22.3753405  96.4580861
 107.3213830  18.9252452  97.4608137 107.0650764  18.5249088  98.2916345
 106.6966698  19.6396246  97.3358277  94.7021377  33.0985252 101.7197615
  94.5853761  34.0430685 101.6176305  93.8813823  32.7958814 102.1083414
 104.5897911  27.8235388  92.5654208 105.4243515  27.3916587  92.3831683
 104.4282254  27.6517402  93.4931102 104.2443803  24.3267501  93.9310547
 104.1892607  24.1611773  92.9898991 103.6189859  25.0343534  94.0872737
  89.0336318  19.5635566 107.7571969  89.6795182  19.0534520 108.2459195
  88.8253469  20.3004247 108.3315395  97.5539929  13.8275610  93.5095866
  97.5418599  14.7717450  93.6664136  98.4463351  13.6445756  93.2155327
  95.7275891  33.7513514 104.9353544  96.6303137  33.7837125 105.2520039
  95.5013261  32.8213965 104.9499879  97.4829493  32.5044501 101.5963622
  96.5325124  32.5046362 101.4827995  97.7861979  31.7577235 101.0799657
 113.2182186  38.3405039 102.6609385 113.8560596  38.2211787 101.9572725
 113.1003029  39.2885883 102.7197337 110.0271893  38.2932467 102.5970909
 109.6890404  38.1773532 101.7091444 110.8961661  37.8923632 102.5771915
 105.8858708  40.1467944  98.5867800 105.3223573  40.0557881  97.8184088
 105.7711103  39.3267848  99.0670293 103.4323140  41.6419135 101.4252021
 104.2244432  41.3009960 101.0098320 103.6719790  41.7514110 102.3454174
 111.4658267  43.8138911  93.8982265 110.8146247  44.3992992  93.5116279
 112.2602630  44.3445106  93.9577303 105.3913894  40.9028049  94.2969400
 106.1644770  40.3557036  94.1582275 105.7439293  41.7672298  94.5083861
 107.2298937  42.2304431 107.5036299 106.9388803  43.1350062 107.3882965
 107.8655921  42.2720959 108.2180368 108.1555144  39.6081279 104.0937658
 108.7518716  39.3837302 103.3794621 108.2130115  38.8666025 104.6963106
 107.7280172  37.0620715  91.9287849 107.9805693  36.5402236  91.1671312
 106.7904731  36.8986860  92.0314533 112.7723455  36.0656493  99.7362593
 113.5586544  35.6475916  99.3853010 113.0362159  36.9702585  99.9044241
 112.9433532  41.5029343  94.4351249 112.3079365  41.5763970  95.1472154
 112.6130938  42.0922942  93.7570329 107.4476461  38.9648821  94.1312224
 107.3312719  38.2893724  94.7993309 107.5578721  38.4781195  93.3144377
 109.7908002  38.4258968  97.8358914 109.4266209  37.8989589  98.5471835
 110.6475117  38.0357437  97.6625399 109.4313489  33.4548867  92.8320262
 109.5987891  34.3229104  93.1990733 109.2410658  33.6176149  91.9081551
 112.1888822  41.9165846 104.4986093 111.8889545  42.8190885 104.3901900
 111.8439881  41.6498030 105.3507245 105.6401303  38.3679643 100.5322797
 104.7151800  38.2355857 100.7400489 105.8885716  39.1473862 101.0292739
 109.4102709  35.9106525  93.8166929 109.2902335  36.3563576  94.6552409
 108.7155298  36.2591843  93.2580467 103.0010114  38.0112917 101.3666586
 103.1302495  38.2647396 102.2805998 102.3207566  38.6040625 101.0471241
 107.1709602  48.6810167  97.4657060 107.0933631  49.6317992  97.5445541
 106.5671245  48.3356039  98.1231987 115.1087776  36.3827998  94.6447263
 116.0205632  36.6155385  94.4694961 114.5997423  36.9665042  94.0822342
 107.9173204  38.6623486 109.6836394 108.6587888  39.2008530 109.4071218
 107.2110189  39.2889774 109.8407946 109.7459613  35.7425233 105.6542113
 110.5920808  36.1664646 105.7976762 109.6858251  35.0858857 106.3480676
 113.7157358  41.3653817 102.0360844 113.0866220  41.5299531 101.3336912
 113.3283020  41.7795426 102.8071809 117.5946590  42.3008254  99.3905208
 116.9097628  42.6807156  98.8402242 117.6790439  42.9103581 100.1237156
 109.2685320  41.1028225  99.3010930 109.7323665  41.3815928  98.5115552
 109.0042118  40.2011669  99.1184020 106.1609401  40.6499706 102.2390693
 106.7310758  41.0786975 101.6008177 106.7517513  40.3682291 102.9374879
 108.2054206  37.2251377  96.1100495 108.9078249  37.6772421  96.5774421
 107.8734834  36.5835196  96.7380388 101.9479540  35.4834930 101.4117628
 101.1578594  35.7392458 100.9357739 102.4390787  36.2983268 101.5169669
 115.9643349  42.8240169 104.1622909 116.7860793  42.4220356 103.8805591
 115.9605752  42.7208403 105.1139025 103.8994285  35.8479509  98.3701105
 103.1025448  35.9598203  98.8884601 103.6719877  36.1866161  97.5041996
 109.7299953  42.3724212 106.3183620 109.7944385  42.8344619 107.1541791
 109.0210877  41.7421577 106.4465929 100.2317243  35.7365420 103.8432619
 100.4825281  36.6212430 104.1090195 100.7676791  35.5570022 103.0707711
 109.4447970  44.0392320  96.1862600 109.3093645  44.8843855  96.6147448
 109.9857783  44.2411597  95.4228534 102.8977368  41.5567758  96.7590525
 103.4101888  42.3511008  96.9096090 103.5500081  40.8594048  96.6924126
 104.7072253  44.6733514  98.8413278 104.8838881  45.5951479  98.6534262
 105.5029086  44.3591933  99.2707658 103.9924609  36.7198146 108.7175441
 103.8778124  35.8183403 109.0182540 103.1369127  36.9661843 108.3660258
 111.0716447  44.6615886 110.3162942 110.6280301  43.8752265 109.9983847
 111.7333660  44.8495037 109.6506833 105.8303568  46.1911688 104.8423621
 106.3810993  46.0628751 104.0700614 104.9915044  46.4906577 104.4918513
 109.6270739  42.4562816 109.1867852 110.1599076  41.6951104 108.9567160
 109.0984820  42.1636467 109.9292006 100.8626285  39.8856412  97.5350096
 101.7001507  40.2953420  97.3183803 101.0404552  38.9455854  97.5050289
 112.7590717  37.5531493  93.2233929 112.2437340  38.3236097  93.4622316
 112.4868025  36.8796629  93.8466990 110.3437828  32.3981193  98.2819167
 109.4879424  32.0088044  98.1024806 110.7564780  32.4773154  97.4218952
 108.1179860  30.0166266 101.6876908 108.9832857  29.8209075 101.3282798
 108.1857369  29.7876618 102.6146265 117.7324991  40.3063847  95.1587102
 116.9554434  39.9675007  94.7142264 118.4116472  40.3116471  94.4842067
 112.5477020  35.4258585  95.0493710 112.2427155  35.7404734  95.9003853
 113.5007462  35.5040005  95.0921043 110.9923452  41.5848808  96.6986664
 110.4644813  40.8501568  96.3859901 110.4910954  42.3623484  96.4526632
 115.9716298  39.7797829 101.8153710 115.3139972  40.4697090 101.9033839
 116.7756697  40.1694261 102.1587696 105.7242179  32.2468474  99.0593275
 106.2985931  32.0243656  98.3266468 106.3113162  32.3157169  99.8121876
 114.7821757  38.1342201  99.8657652 115.2953638  38.7672193 100.3679361
 115.4322980  37.5343397  99.5001012 106.0511766  34.2772935  93.0789160
 105.2149079  34.6147622  93.3998435 105.9116536  34.1421915  92.1416297
 108.0264847  29.1209723  97.7868345 107.3729259  28.8058740  97.1624959
 107.9845321  28.4985464  98.5128168 109.1376052  39.4029018  89.7021637
 108.2303114  39.1718272  89.9012786 109.6347084  38.6066638  89.8895618
 112.0444131  48.1126526  92.6218323 111.3705830  48.4158222  93.2303281
 112.4309953  48.9155606  92.2723780 111.2602587  35.6091657 102.1115992
 110.3425149  35.8306604 101.9537680 111.6762731  35.6837967 101.2527700
 112.0437635  37.0083073  97.2418673 112.7909454  37.5204470  96.9325795
 112.3129225  36.6867125  98.1023066 110.3164285  39.5041613  94.2245627
 109.4075505  39.2200646  94.3218097 110.3459369  39.9240692  93.3648934
 115.5483553  43.1148203  97.9936794 115.0945880  42.2739113  98.0501985
 114.9177519  43.7509601  98.3311575 114.4916472  34.0440189  99.2237462
 113.7539229  33.5317575  99.5547704 114.7443246  33.6040570  98.4120739
 113.9916492  44.9524699  98.9286613 114.2839466  45.5129757  98.2098978
 114.5015113  45.2453260  99.6839772 100.8852456  37.2247127  98.2060829
 100.6876856  36.6316488  97.4811896 100.3299120  36.9199338  98.9236768
 108.8649179  37.1170234 100.3255422 108.9197789  36.1644070 100.2497899
 108.0540381  37.2729673 100.8096721 110.0140373  41.0450357  91.5633705
 109.5759803  40.3286216  91.1039343 110.7550814  41.2726472  91.0018797
 106.8041539  35.7347294  98.0845801 105.9909405  36.0341464  98.4910993
 107.3000534  35.3402982  98.8020283 108.9550117  45.7305051 100.0180066
 108.9126296  45.9565897  99.0888598 109.8712816  45.4968425 100.1665867
 118.1313488  39.3207554  97.6210024 117.9931387  39.5109150  96.6931213
 117.7749707  40.0826937  98.0778075 106.2955614  33.3065649 103.7007036
 106.9354993  33.1654408 103.0029999 105.4633145  33.0200163 103.3245638
 107.0715918  42.6068080  99.8142028 107.8656516  42.1118400  99.6124603
 106.3607610  42.0785943  99.4509734 111.8910762  44.9886175 104.1654396
 111.9447785  45.5577111 104.9332112 111.0225544  45.1588060 103.8008433
 103.3798681  36.7511161  95.8901781 102.4496270  36.6895617  96.1071743
 103.4756153  36.2287114  95.0938422 103.2984231  33.2765974  98.4780023
 103.5591048  34.1911307  98.3689183 104.1201403  32.8090417  98.6276636
 104.7709156  34.6903731 105.6478847 105.4432209  34.4821093 104.9991496
 103.9438942  34.4925817 105.2084080 110.8498862  39.1546437 105.7241328
 111.7790922  39.3057597 105.5510295 110.4289892  39.2430458 104.8689974
 109.6487194  43.1797102 103.4939866 109.5098280  42.8115886 104.3665804
 108.8601790  43.6944741 103.3223823 110.2435346  48.2806198  94.8365402
 110.4187102  47.8094241  95.6511025 109.5568134  48.9071964  95.0646663
 111.1992409  42.5578704 100.8828703 110.8642242  42.5179474 101.7786353
 110.6996355  41.8923420 100.4099114 105.1736653  37.9646334 106.4081284
 105.0356451  37.2326573 107.0092824 106.0841577  37.8755234 106.1265472
 114.1351601  39.9034739  91.1565763 113.5180771  39.1781567  91.0598816
 113.6668089  40.6644099  90.8132837 107.8018954  37.6766294 105.8964964
 108.5118572  37.0359486 105.8551583 107.7588262  37.9279188 106.8191145
 106.5147888  34.6631511 107.7160604 105.9785245  34.2122250 108.3682200
 105.9264596  34.7977420 106.9731068 104.8096431  51.4295561 101.6105262
 105.0493029  52.0614085 102.2884281 103.9665628  51.0783601 101.8970621
 105.9250147  34.1220163  90.2787067 105.0479613  34.0008964  89.9149314
 106.4007900  33.3306241  90.0265956  97.4452287  38.9097323 100.3728574
  98.1323327  38.5959053  99.7849590  97.2900416  39.8138687 100.0995826
 102.2487009  33.7987519 104.8013598 102.1645198  33.1913189 104.0664008
 101.4269715  34.2896537 104.8023094 109.3224293  47.2374683 104.0146766
 109.2494465  48.0429655 104.5266071 108.8801686  47.4366649 103.1894788
 109.1114073  46.4746453  97.5249588 108.3281595  47.0168133  97.6187812
 109.8106818  46.9920433  97.9243829 112.4210723  32.2841083 100.1683793
 112.9179422  31.5311045  99.8484863 111.6497704  32.3205399  99.6027002
 111.7822977  47.1361517 106.1704925 112.4950949  47.7708982 106.0980826
 111.2913005  47.2325383 105.3544927 113.5040504  41.0412770  97.7422217
 112.5696782  41.1614232  97.5726921 113.6817172  40.1385237  97.4782226
 109.0045692  34.4258466  99.8955478 108.6343479  33.8729506 100.5836383
 109.5004784  33.8216599  99.3430478 116.8913055  36.8830089  98.2772251
 117.3573507  37.7158081  98.2032553 117.3420555  36.4175071  98.9817509
 106.8334890  44.8855961 106.9910496 107.5344350  45.5192444 107.1439890
 106.3630005  45.2270692 106.2306135 114.9589286  43.2273910  95.2758403
 115.2349130  43.1130505  96.1852277 114.0893785  42.8291395  95.2370576
 111.5943350  47.4760261  98.9191216 111.7765745  46.6581917  99.3818969
 112.4176336  47.6927954  98.4816106 111.9285516  46.4028446  96.1806265
 112.4573282  45.8920901  95.5676427 112.1913735  46.0870977  97.0451798
 102.4302608  44.4192316 103.9241598 103.0156045  43.6736004 104.0569503
 102.2327447  44.7296272 104.8078262 105.2841263  47.4543563  98.9404041
 104.6151639  47.9389691  98.4568081 105.1454133  47.7012784  99.8547419
  97.0220263  36.9897916 102.6446042  97.0604362  36.4561507 103.4383160
  96.5160556  36.4633121 102.0257019 109.4246532  49.4887307 105.5386699
 109.9764840  49.6518928 106.3035784 109.7652725  50.0791744 104.8666724
 104.4011025  31.8362456 106.1408584 104.4652352  32.6977287 105.7285982
 104.3378146  31.2236458 105.4080942 100.6528841  35.7162018  95.7199973
 100.9482282  34.8072697  95.6667027  99.7516876  35.6949758  95.3980975
 112.5614919  47.4369282 102.5250381 112.4366059  46.6359022 102.0161327
 113.2194010  47.9315476 102.0364351 104.1823088  33.7918015 101.7027522
 103.4609673  34.4053982 101.5634995 104.9716343  34.3275780 101.6244167
 114.6249828  45.2378302 104.1529931 113.6780163  45.1183653 104.0808258
 114.9732601  44.3500800 104.2356193 102.3816682  33.3976116  95.8439298
 102.0529388  32.5173495  95.6614404 102.7356053  33.3423784  96.7315687
 111.6296261  45.0331018 100.3534284 111.4821223  44.1047726 100.5341854
 112.4549755  45.0551109  99.8691359 105.4958505  33.6849086  96.2114776
 105.8354578  34.2135007  95.4893384 105.9430626  34.0229492  96.9873342
 115.2330383  45.8559577 101.4399156 116.1576930  45.6502439 101.3023607
 115.0645686  45.6075978 102.3488498 107.4826652  32.1823707  94.4108068
 108.2035015  32.5604960  93.9071785 106.8591957  32.9012584  94.5143046
 111.6257775  32.8868856  95.3466401 111.8421390  33.7693494  95.0455229
 111.1451842  32.4955070  94.6172043 106.3656997  35.8454569 101.9237145
 106.2201577  36.1594872 102.8161427 105.8882200  36.4639470 101.3708044
 108.2253380  32.8357117 101.9718035 108.2114948  31.9398211 101.6350333
 108.9425808  32.8427781 102.6056321 110.0779510  33.2694458 104.0171162
 109.8197288  34.1911528 104.0155493 109.5464551  32.8724892 104.7071627
 115.0225699  46.3745245  96.7961248 115.1962577  45.8091667  96.0435100
 115.5154590  47.1746140  96.6140738 100.8402659  38.3859914 104.8624807
 100.2956127  39.1619722 104.9945081 101.7182009  38.7330718 104.7043928
 107.6290276  31.7171498  97.2405605 107.7506187  30.7888144  97.4396493
 107.3392318  31.7310184  96.3283921 110.4981466  29.4026408 100.3772325
 110.5203163  29.4665741  99.4224305 110.9149525  28.5630917 100.5712831
 120.8765090  39.1381668  98.4151548 121.3196236  38.3888993  98.0170671
 119.9991601  39.1291804  98.0325280 116.0100872  45.6912009  93.8958146
 116.7051776  46.3118702  94.1145461 116.3524022  44.8407360  94.1710524
 101.6268681  37.5129810 107.7554963 100.8850417  37.6612445 108.3419594
 101.3061425  37.7738076 106.8921713 117.9092295  43.1411715  95.4245477
 118.4343619  43.4798987  94.6994797 117.8214647  42.2058730  95.2408611
 109.5712343  47.0545788 107.5535353 109.8799470  46.8094935 108.4258053
 110.3687825  47.2592427 107.0654224 109.5932955  49.2083698  99.7840730
 109.1537946  48.7160077 100.4773587 110.3441072  48.6656666  99.5432805
 102.0725294  45.3995239  99.7865358 102.8983314  45.0999011  99.4064002
 101.7219346  44.6302861 100.2355147 107.0406828  44.7521707 101.8563032
 106.4186837  44.0892412 101.5565260 107.7111694  44.7782839 101.1736679
 100.2733899  43.3181565 100.7454292  99.4365808  42.8903740 100.5638293
 100.2457545  43.5114009 101.6825083 106.6020334  43.3025630  95.3321492
 106.7508455  43.9861095  94.6788165 107.4086778  43.2830720  95.8470948
 104.3572967  39.3290808  96.3382561 104.1119009  38.4253138  96.5362771
 104.5268882  39.3307958  95.3962039 103.6268615  35.0619166  93.8368723
 102.9337860  35.1363520  93.1808759 103.3820367  34.2979509  94.3590240
 110.1015740  45.7973761  92.8033240 109.5289707  46.4163948  92.3503712
 110.6748534  46.3473122  93.3373162 113.3213000  46.0810911  93.9341822
 114.2543673  46.0156473  94.1374697 113.2336213  46.9167178  93.4756355
 115.9501016  45.3976781  90.8945770 115.8714648  45.0636645  91.7881527
 116.7710683  45.8898549  90.8937242 110.4862538  37.1334574  90.1449292
 111.4321643  37.0040782  90.2137710 110.1076783  36.3949235  90.6218720
 108.6705456  35.0584550  90.0804177 107.7636911  34.7617663  90.1566891
 108.9481437  34.7614368  89.2138464  99.5883396  36.3790913 100.5303224
  99.2686180  35.5256221 100.2377598  99.0416824  36.5939491 101.2861191
 103.3663304  39.0953354 104.2472730 103.5849313  40.0270462 104.2660764
 103.7789077  38.7361329 105.0327534 110.2867521  29.6021440  96.2348419
 109.4768250  29.2568525  96.6103665 110.9751938  29.2928983  96.8236030
 112.2158070  28.6799486  97.8572715 112.7689108  29.0994940  98.5162738
 112.4528156  27.7535235  97.8995671 107.4404240  31.9171485  90.2216157
 108.3023404  32.2426383  90.4811974 107.6254584  31.1302981  89.7089222
  99.4571656  39.9993825 102.4996345  98.7635127  39.5847778 101.9866300
 100.2044647  40.0414361 101.9029764 115.5936877  30.7900012  97.3651380
 115.0135546  31.4484816  96.9829432 115.3272809  29.9677356  96.9538797
 101.3708399  39.9312079 100.3762360 101.3479087  40.0299766  99.4244243
 101.6809035  40.7777229 100.6979526 104.0295776  41.9888234 104.4908975
 104.9839030  41.9572176 104.4238906 103.8308300  41.5278857 105.3059201
 104.6195159  40.5589350 107.0579772 105.4388048  41.0533428 107.0814610
 104.8931966  39.6421318 107.0297340 114.3761755  32.9500102  96.4207728
 113.4887610  33.2349753  96.2027923 114.7915744  32.7893865  95.5735005
 102.3846005  47.5307853 101.5079173 102.2500473  46.7708254 100.9417171
 101.9678067  48.2548753 101.0407961 113.5204968  42.7144777  90.5155748
 114.2240818  42.9194779  91.1313403 112.7967617  43.2821539  90.7804831
 114.3502779  38.4654638  96.6358018 114.2937980  38.9223189  95.7965650
 114.9031121  37.7045322  96.4580861 118.1607584  34.2544370  97.4608137
 117.9044519  33.8541005  98.2916345 117.5360452  34.9688164  97.3358277
 105.5415131  48.4277170 101.7197615 105.4247515  49.3722603 101.6176305
 104.7207577  48.1250732 102.1083414 115.4291666  43.1527306  92.5654208
 116.2637270  42.7208504  92.3831683 115.2676009  42.9809320  93.4931102
 115.0837558  39.6559419  93.9310547 115.0286362  39.4903691  92.9898991
 114.4583613  40.3635452  94.0872737  99.8730073  34.8927484 107.7571969
 100.5188936  34.3826437 108.2459195  99.6647224  35.6296165 108.3315395
 108.3933683  29.1567528  93.5095866 108.3812353  30.1009368  93.6664136
 109.2857105  28.9737674  93.2155327 106.5669645  49.0805432 104.9353544
 107.4696892  49.1129042 105.2520039 106.3407015  48.1505883 104.9499879
 108.3223247  47.8336419 101.5963622 107.3718878  47.8338280 101.4827995
 108.6255733  47.0869153 101.0799657 112.2085803  25.7510305  97.7641802
 111.4418199  25.1968791  97.9098485 112.6196508  25.8232174  98.6255954
 120.8665647  53.6224385 102.5970909 120.5284159  53.5065450 101.7091444
 121.7355415  53.2215550 102.5771915 116.7252463  55.4759861  98.5867800
 116.1617328  55.3849798  97.8184088 116.6104858  54.6559766  99.0670293
 114.2716895  56.9711053 101.4252021 115.0638187  56.6301878 101.0098320
 114.5113545  57.0806028 102.3454174 116.2307649  56.2319966  94.2969400
 117.0038525  55.6848953  94.1582275 116.5833047  57.0964216  94.5083861
 118.0692691  57.5596349 107.5036299 117.7782557  58.4641979 107.3882965
 118.7049675  57.6012876 108.2180368 118.9948898  54.9373197 104.0937658
 119.5912470  54.7129219 103.3794621 119.0523870  54.1957943 104.6963106
 118.5673926  52.3912632  91.9287849 118.8199447  51.8694154  91.1671312
 117.6298485  52.2278778  92.0314533 118.2870215  54.2940738  94.1312224
 118.1706473  53.6185642  94.7993309 118.3972475  53.8073112  93.3144377
 120.6301756  53.7550885  97.8358914 120.2659963  53.2281506  98.5471835
 121.4868872  53.3649355  97.6625399 120.2707243  48.7840785  92.8320262
 120.4381645  49.6521022  93.1990733 120.0804412  48.9468067  91.9081551
 116.4795058  53.6971561 100.5322797 115.5545554  53.5647775 100.7400489
 116.7279471  54.4765780 101.0292739 120.2496464  51.2398443  93.8166929
 120.1296089  51.6855493  94.6552409 119.5549052  51.5883760  93.2580467
 113.8403869  53.3404834 101.3666586 113.9696250  53.5939313 102.2805998
 113.1601320  53.9332542 101.0471241 118.0103356  64.0102084  97.4657060
 117.9327386  64.9609910  97.5445541 117.4065000  63.6647957  98.1231987
 118.7566958  53.9915403 109.6836394 119.4981642  54.5300447 109.4071218
 118.0503944  54.6181692 109.8407946 120.5853368  51.0717150 105.6542113
 121.4314563  51.4956564 105.7976762 120.5252005  50.4150775 106.3480676
 120.1079074  56.4320142  99.3010930 120.5717420  56.7107845  98.5115552
 119.8435872  55.5303587  99.1184020 117.0003155  55.9791624 102.2390693
 117.5704512  56.4078892 101.6008177 117.5911267  55.6974209 102.9374879
 119.0447960  52.5543295  96.1100495 119.7472004  53.0064338  96.5774421
 118.7128589  51.9127114  96.7380388 112.7873294  50.8126847 101.4117628
 111.9972348  51.0684376 100.9357739 113.2784542  51.6275185 101.5169669
 114.7388040  51.1771427  98.3701105 113.9419203  51.2890121  98.8884601
 114.5113632  51.5158079  97.5041996 120.5693707  57.7016130 106.3183620
 120.6338140  58.1636537 107.1541791 119.8604631  57.0713495 106.4465929
 111.0710997  51.0657338 103.8432619 111.3219036  51.9504348 104.1090195
 111.6070546  50.8861939 103.0707711 120.2841725  59.3684237  96.1862600
 120.1487400  60.2135773  96.6147448 120.8251537  59.5703515  95.4228534
 113.7371122  56.8859675  96.7590525 114.2495643  57.6802926  96.9096090
 114.3893835  56.1885966  96.6924126 115.5466007  60.0025432  98.8413278
 115.7232635  60.9243396  98.6534262 116.3422841  59.6883851  99.2707658
 114.8318364  52.0490064 108.7175441 114.7171879  51.1475321 109.0182540
 113.9762881  52.2953760 108.3660258 116.6697322  61.5203605 104.8423621
 117.2204748  61.3920669 104.0700614 115.8308798  61.8198495 104.4918513
 120.4664494  57.7854733 109.1867852 120.9992830  57.0243021 108.9567160
 119.9378575  57.4928385 109.9292006 111.7020039  55.2148330  97.5350096
 112.5395261  55.6245338  97.3183803 111.8798307  54.2747772  97.5050289
 121.1831582  47.7273111  98.2819167 120.3273179  47.3379962  98.1024806
 121.5958534  47.8065072  97.4218952 118.9573615  45.3458184 101.6876908
 119.8226612  45.1500993 101.3282798 119.0251124  45.1168536 102.6146265
 121.8317206  56.9140726  96.6986664 121.3038568  56.1793485  96.3859901
 121.3304709  57.6915402  96.4526632 116.5635934  47.5760392  99.0593275
 117.1379686  47.3535574  98.3266468 117.1506916  47.6449087  99.8121876
 116.8905521  49.6064853  93.0789160 116.0542833  49.9439540  93.3998435
 116.7510291  49.4713833  92.1416297 118.8658602  44.4501641  97.7868345
 118.2123014  44.1350658  97.1624959 118.8239076  43.8277381  98.5128168
 119.9769806  54.7320936  89.7021637 119.0696868  54.5010190  89.9012786
 120.4740838  53.9358555  89.8895618 121.1558040  54.8333531  94.2245627
 120.2469259  54.5492564  94.3218097 121.1853124  55.2532609  93.3648934
 111.7246210  52.5539045  98.2060829 111.5270610  51.9608406  97.4811896
 111.1692874  52.2491255  98.9236768 119.7042934  52.4462152 100.3255422
 119.7591544  51.4935988 100.2497899 118.8934136  52.6021591 100.8096721
 120.8534128  56.3742275  91.5633705 120.4153558  55.6578134  91.1039343
 121.5944569  56.6018389  91.0018797 117.6435294  51.0639211  98.0845801
 116.8303159  51.3633382  98.4910993 118.1394288  50.6694900  98.8020283
 119.7943872  61.0596968 100.0180066 119.7520051  61.2857815  99.0888598
 120.7106571  60.8260343 100.1665867 117.1349369  48.6357567 103.7007036
 117.7748748  48.4946326 103.0029999 116.3026899  48.3492080 103.3245638
 117.9109672  57.9359997  99.8142028 118.7050271  57.4410317  99.6124603
 117.2001365  57.4077860  99.4509734 114.2192436  52.0803079  95.8901781
 113.2890024  52.0187534  96.1071743 114.3149908  51.5579032  95.0938422
 114.1377985  48.6057892  98.4780023 114.3984802  49.5203225  98.3689183
 114.9595157  48.1382334  98.6276636 115.6102910  50.0195649 105.6478847
 116.2825964  49.8113011 104.9991496 114.7832697  49.8217735 105.2084080
 120.4880948  58.5089019 103.4939866 120.3492034  58.1407804 104.3665804
 119.6995545  59.0236659 103.3223823 121.0829100  63.6098116  94.8365402
 121.2580856  63.1386159  95.6511025 120.3961888  64.2363882  95.0646663
 122.0386164  57.8870622 100.8828703 121.7035996  57.8471392 101.7786353
 121.5390109  57.2215338 100.4099114 116.0130408  53.2938252 106.4081284
 115.8750206  52.5618491 107.0092824 116.9235331  53.2047152 106.1265472
 118.6412708  53.0058211 105.8964964 119.3512327  52.3651403 105.8551583
 118.5982016  53.2571106 106.8191145 117.3541642  49.9923429 107.7160604
 116.8178999  49.5414168 108.3682200 116.7658351  50.1269338 106.9731068
 115.6490186  66.7587478 101.6105262 115.8886784  67.3906003 102.2884281
 114.8059382  66.4075518 101.8970621 116.7643901  49.4512081  90.2787067
 115.8873368  49.3300881  89.9149314 117.2401654  48.6598159  90.0265956
 108.2846041  54.2389240 100.3728574 108.9717081  53.9250970  99.7849590
 108.1294170  55.1430605 100.0995826 113.0880763  49.1279437 104.8013598
 113.0038952  48.5205106 104.0664008 112.2663470  49.6188455 104.8023094
 120.1618048  62.5666601 104.0146766 120.0888219  63.3721572 104.5266071
 119.7195441  62.7658567 103.1894788 119.9507827  61.8038371  97.5249588
 119.1675349  62.3460051  97.6187812 120.6500572  62.3212351  97.9243829
 119.8439446  49.7550383  99.8955478 119.4737234  49.2021424 100.5836383
 120.3398539  49.1508517  99.3430478 117.6728645  60.2147878 106.9910496
 118.3738104  60.8484361 107.1439890 117.2023760  60.5562610 106.2306135
 113.2696363  59.7484233 103.9241598 113.8549800  59.0027921 104.0569503
 113.0721201  60.0588190 104.8078262 116.1235018  62.7835481  98.9404041
 115.4545393  63.2681608  98.4568081 115.9847888  63.0304701  99.8547419
 107.8614017  52.3189834 102.6446042 107.8998117  51.7853424 103.4383160
 107.3554310  51.7925039 102.0257019 120.2640287  64.8179224 105.5386699
 120.8158595  64.9810846 106.3035784 120.6046480  65.4083662 104.8666724
 115.2404780  47.1654374 106.1408584 115.3046106  48.0269205 105.7285982
 115.1771900  46.5528376 105.4080942 111.4922595  51.0453936  95.7199973
 111.7876036  50.1364614  95.6667027 110.5910631  51.0241675  95.3980975
 115.0216842  49.1209932 101.7027522 114.3003428  49.7345900 101.5634995
 115.8110098  49.6567697 101.6244167 113.2210437  48.7268033  95.8439298
 112.8923143  47.8465412  95.6614404 113.5749807  48.6715702  96.7315687
 116.3352260  49.0141003  96.2114776 116.6748332  49.5426924  95.4893384
 116.7824380  49.3521409  96.9873342 118.3220407  47.5115625  94.4108068
 119.0428769  47.8896878  93.9071785 117.6985711  48.2304502  94.5143046
 117.2050751  51.1746487 101.9237145 117.0595332  51.4886790 102.8161427
 116.7275955  51.7931387 101.3708044 119.0647134  48.1649035 101.9718035
 119.0508703  47.2690128 101.6350333 119.7819562  48.1719699 102.6056321
 120.9173265  48.5986375 104.0171162 120.6591043  49.5203446 104.0155493
 120.3858305  48.2016810 104.7071627 111.6796413  53.7151831 104.8624807
 111.1349881  54.4911639 104.9945081 112.5575763  54.0622636 104.7043928
 118.4684030  47.0463415  97.2405605 118.5899941  46.1180061  97.4396493
 118.1786072  47.0602101  96.3283921 121.3375220  44.7318326 100.3772325
 121.3596917  44.7957659  99.4224305 121.7543279  43.8922834 100.5712831
 112.4662435  52.8421728 107.7554963 111.7244171  52.9904363 108.3419594
 112.1455179  53.1029993 106.8921713 120.4106098  62.3837706 107.5535353
 120.7193224  62.1386853 108.4258053 121.2081580  62.5884344 107.0654224
 120.4326710  64.5375616  99.7840730 119.9931700  64.0451994 100.4773587
 121.1834827  63.9948583  99.5432805 112.9119049  60.7287156  99.7865358
 113.7377069  60.4290928  99.4064002 112.5613101  59.9594779 100.2355147
 117.8800582  60.0813625 101.8563032 117.2580591  59.4184330 101.5565260
 118.5505449  60.1074757 101.1736679 111.1127654  58.6473483 100.7454292
 110.2759562  58.2195657 100.5638293 111.0851299  58.8405926 101.6825083
 117.4414089  58.6317548  95.3321492 117.5902209  59.3153012  94.6788165
 118.2480532  58.6122638  95.8470948 115.1966722  54.6582726  96.3382561
 114.9512764  53.7545056  96.5362771 115.3662636  54.6599876  95.3962039
 114.4662369  50.3911083  93.8368723 113.7731614  50.4655438  93.1808759
 114.2214121  49.6271427  94.3590240 120.9409494  61.1265678  92.8033240
 120.3683462  61.7455866  92.3503712 121.5142288  61.6765040  93.3373162
 121.3256293  52.4626491  90.1449292 122.2715398  52.3332699  90.2137710
 120.9470538  51.7241153  90.6218720 119.5099210  50.3876468  90.0804177
 118.6030666  50.0909580  90.1566891 119.7875191  50.0906286  89.2138464
 110.4277151  51.7082831 100.5303224 110.1079935  50.8548139 100.2377598
 109.8810579  51.9231409 101.2861191 114.2057058  54.4245272 104.2472730
 114.4243068  55.3562380 104.2660764 114.6182832  54.0653246 105.0327534
 121.1261276  44.9313357  96.2348419 120.3162004  44.5860442  96.6103665
 121.8145693  44.6220901  96.8236030 118.2797995  47.2463403  90.2216157
 119.1417159  47.5718301  90.4811974 118.4648339  46.4594899  89.7089222
 110.2965411  55.3285742 102.4996345 109.6028882  54.9139695 101.9866300
 111.0438402  55.3706279 101.9029764 112.2102153  55.2603996 100.3762360
 112.1872841  55.3591684  99.4244243 112.5202790  56.1069147 100.6979526
 114.8689531  57.3180151 104.4908975 115.8232784  57.2864094 104.4238906
 114.6702055  56.8570775 105.3059201 115.4588913  55.8881267 107.0579772
 116.2781802  56.3825346 107.0814610 115.7325721  54.9713235 107.0297340
 113.2239760  62.8599771 101.5079173 113.0894228  62.1000172 100.9417171
 112.8071822  63.5840671 101.0407961 116.3808886  63.7569088 101.7197615
 116.2641270  64.7014520 101.6176305 115.5601332  63.4542649 102.1083414
 110.7123827  50.2219401 107.7571969 111.3582691  49.7118355 108.2459195
 110.5040978  50.9588083 108.3315395 119.2327438  44.4859446  93.5095866
 119.2206108  45.4301286  93.6664136 120.1250860  44.3029591  93.2155327
 117.4063400  64.4097350 104.9353544 118.3090646  64.4420960 105.2520039
 117.1800770  63.4797801 104.9499879 119.1617002  63.1628336 101.5963622
 118.2112633  63.1630198 101.4827995 119.4649488  62.4161071 101.0799657
 121.9104752  66.3949256 103.8432619 122.1612790  67.2796265 104.1090195
 122.4464300  66.2153857 103.0707711 119.1239796  69.5681158 100.3728574
 119.8110836  69.2542888  99.7849590 118.9687925  70.4722523 100.0995826
 118.7007772  67.6481751 102.6446042 118.7391871  67.1145342 103.4383160
 118.1948065  67.1216957 102.0257019 121.9521408  73.9765401 100.7454292
 121.1153317  73.5487575 100.5638293 121.9245054  74.1697844 101.6825083
 121.2670905  67.0374749 100.5303224 120.9473689  66.1840057 100.2377598
 120.7204333  67.2523327 101.2861191 121.1359165  70.6577660 102.4996345
 120.4422636  70.2431613 101.9866300 121.8832156  70.6998197 101.9029764
 121.5517582  65.5511319 107.7571969 122.1976445  65.0410273 108.2459195
 121.3434733  66.2880001 108.3315395  96.3315848  10.3580372  84.1902367
  96.2539878  11.3088197  84.2690847  95.7277492  10.0126244  84.8477293
  93.9702678  13.1065766  88.3350569  94.2099276  13.7384290  89.0129587
  93.1271874  12.7553806  88.6215928  94.4447510   9.1313768  85.6649347
  93.7757885   9.6159896  85.1813387  94.3060380   9.3782988  86.5792726
  98.5852779  11.1657512  92.2632006  99.1371087  11.3289133  93.0281091
  98.9258972  11.7561949  91.5912031  98.7539202  10.8853903  86.5086037
  98.3144192  10.3930281  87.2018893  99.5047319  10.3426870  86.2678112
  91.5452252   9.2078058  88.2324479  91.4106720   8.4478459  87.6662477
  91.1284314   9.9318958  87.7653268  94.7021378  10.1047375  88.4442922
  94.5853762  11.0492808  88.3421612  93.8813824   9.8020937  88.8328721
  95.7275892  10.7575637  91.6598850  96.6303139  10.7899247  91.9765345
  95.5013262   9.8276088  91.6745186 110.0271894  15.2994590  89.3216216
 109.6890405  15.1835655  88.4336751 110.8961662  14.8985755  89.3017222
 105.8858709  17.1530066  85.3113107 105.3223575  17.0620003  84.5429395
 105.7711105  16.3329971  85.7915599 103.4323141  18.6481258  88.1497327
 104.2244433  18.3072083  87.7343627 103.6719792  18.7576233  89.0699481
 111.4658268  20.8201034  80.6227572 110.8146248  21.4055114  80.2361586
 112.2602631  21.3507229  80.6822609 105.3913895  17.9090171  81.0214706
 106.1644771  17.3619158  80.8827582 105.7439294  18.7734421  81.2329168
 107.2298938  19.2366553  94.2281605 106.9388804  20.1412184  94.1128272
 107.8655922  19.2783081  94.9425675 108.1555145  16.6143402  90.8182965
 108.7518717  16.3899424  90.1039928 108.2130116  15.8728147  91.4208413
 107.7280173  14.0682837  78.6533156 107.9805694  13.5464359  77.8916619
 106.7904732  13.9048983  78.7559840 112.9433533  18.5091466  81.1596556
 112.3079366  18.5826093  81.8717461 112.6130940  19.0985065  80.4815635
 107.4476462  15.9710943  80.8557531 107.3312720  15.2955847  81.5238615
 107.5578722  15.4843317  80.0389684 109.7908003  15.4321090  84.5604220
 109.4266210  14.9051711  85.2717142 110.6475119  15.0419559  84.3870706
 112.1888823  18.9227969  91.2231399 111.8889546  19.8253008  91.1147206
 111.8439883  18.6560152  92.0752552 105.6401304  15.3741766  87.2568104
 104.7151801  15.2417980  87.4645795 105.8885718  16.1535985  87.7538046
 103.0010116  15.0175039  88.0911893 103.1302497  15.2709518  89.0051304
 102.3207567  15.6102747  87.7716548 107.1709603  25.6872289  84.1902367
 107.0933632  26.6380114  84.2690847 106.5671246  25.3418162  84.8477293
 107.9173205  15.6685608  96.4081701 108.6587889  16.2070652  96.1316524
 107.2110190  16.2951897  96.5653253 113.7157359  18.3715939  88.7606151
 113.0866222  18.5361653  88.0582219 113.3283021  18.7857549  89.5317115
 117.5946591  19.3070377  86.1150515 116.9097629  19.6869278  85.5647548
 117.6790440  19.9165704  86.8482463 109.2685321  18.1090347  86.0256236
 109.7323667  18.3878050  85.2360859 109.0042119  17.2073792  85.8429327
 106.1609402  17.6561829  88.9635999 106.7310759  18.0849097  88.3253484
 106.7517514  17.3744414  89.6620185 108.2054207  14.2313500  82.8345801
 108.9078250  14.6834543  83.3019728 107.8734836  13.5897319  83.4625694
 101.9479541  12.4897052  88.1362935 101.1578595  12.7454581  87.6603046
 102.4390788  13.3045390  88.2414975 115.9643351  19.8302292  90.8868216
 116.7860794  19.4282479  90.6050897 115.9605753  19.7270526  91.8384332
 103.8994286  12.8541632  85.0946412 103.1025450  12.9660326  85.6129907
 103.6719879  13.1928284  84.2287302 109.7299954  19.3786335  93.0428926
 109.7944387  19.8406742  93.8787098 109.0210878  18.7483700  93.1711236
 100.2317244  12.7427543  90.5677926 100.4825282  13.6274553  90.8335502
 100.7676792  12.5632144  89.7953018 109.4447972  21.0454442  82.9107907
 109.3093646  21.8905978  83.3392754 109.9857784  21.2473720  82.1473840
 102.8977369  18.5629880  83.4835832 103.4101890  19.3573131  83.6341396
 103.5500082  17.8656171  83.4169433 104.7072254  21.6795637  85.5658585
 104.8838882  22.6013601  85.3779569 105.5029087  21.3654056  85.9952965
 103.9924610  13.7260269  95.4420748 103.8778125  12.8245526  95.7427847
 103.1369128  13.9723965  95.0905565 111.0716448  21.6678009  97.0408249
 110.6280302  20.8814387  96.7229153 111.7333662  21.8557159  96.3752139
 105.8303569  23.1973810  91.5668927 106.3810994  23.0690874  90.7945921
 104.9915045  23.4968699  91.2163820 109.6270740  19.4624938  95.9113158
 110.1599077  18.7013226  95.6812466 109.0984821  19.1698590  96.6537313
 100.8626286  16.8918535  84.2595402 101.7001508  17.3015543  84.0429110
 101.0404554  15.9517977  84.2295596 117.7324992  17.3125970  81.8832409
 116.9554435  16.9737129  81.4387571 118.4116473  17.3178593  81.2087374
 110.9923453  18.5910931  83.4231970 110.4644815  17.8563690  83.1105208
 110.4910956  19.3685607  83.1771939 115.9716299  16.7859951  88.5399017
 115.3139973  17.4759213  88.6279145 116.7756698  17.1756383  88.8833003
 109.1376053  16.4091141  76.4266943 108.2303115  16.1780394  76.6258092
 109.6347085  15.6128760  76.6140925 112.0444132  25.1188648  79.3463630
 111.3705831  25.4220345  79.9548587 112.4309954  25.9217729  78.9969087
 110.3164287  16.5103736  80.9490933 109.4075506  16.2262769  81.0463403
 110.3459370  16.9302814  80.0894240 115.5483554  20.1210325  84.7182101
 115.0945881  19.2801235  84.7747291 114.9177521  20.7571724  85.0556881
 113.9916493  21.9586822  85.6531919 114.2839468  22.5191879  84.9344285
 114.5015114  22.2515383  86.4085078 100.8852457  14.2309250  84.9306136
 100.6876857  13.6378611  84.2057202 100.3299121  13.9261460  85.6482074
 110.0140374  18.0512480  78.2879012 109.5759804  17.3348338  77.8284649
 110.7550815  18.2788594  77.7264103 108.9550118  22.7367173  86.7425372
 108.9126297  22.9628019  85.8133904 109.8712817  22.5030548  86.8911173
 107.0715919  19.6130202  86.5387335 107.8656518  19.1180522  86.3369910
 106.3607612  19.0848065  86.1755041 111.8910764  21.9948298  90.8899703
 111.9447786  22.5639234  91.6577419 111.0225545  22.1650183  90.5253740
 103.3798683  13.7573284  82.6147088 102.4496271  13.6957739  82.8317050
 103.4756155  13.2349237  81.8183729 110.8498863  16.1608560  92.4486635
 111.7790923  16.3119719  92.2755602 110.4289893  16.2492580  91.5935281
 109.6487195  20.1859224  90.2185172 109.5098281  19.8178009  91.0911110
 108.8601791  20.7006864  90.0469130 110.2435347  25.2868321  81.5610709
 110.4187103  24.8156364  82.3756331 109.5568135  25.9134087  81.7891969
 111.1992410  19.5640827  87.6074010 110.8642243  19.5241597  88.5031660
 110.6996356  18.8985543  87.1344420 105.1736654  14.9708457  93.1326591
 105.0356452  14.2388696  93.7338130 106.0841578  14.8817357  92.8510779
 114.1351602  16.9096861  77.8811070 113.5180773  16.1843689  77.7844122
 113.6668091  17.6706221  77.5378144 107.8018955  14.6828416  92.6210271
 108.5118574  14.0421608  92.5796889 107.7588263  14.9341311  93.5436452
 104.8096433  28.4357683  88.3350569 105.0493031  29.0676208  89.0129587
 103.9665629  28.0845723  88.6215928  97.4452288  15.9159445  87.0973881
  98.1323328  15.6021175  86.5094896  97.2900417  16.8200810  86.8241132
 109.3224294  24.2436806  90.7392073 109.2494466  25.0491777  91.2511377
 108.8801687  24.4428772  89.9140094 109.1114074  23.4808576  84.2494894
 108.3281596  24.0230256  84.3433119 109.8106819  23.9982555  84.6489136
 111.7822978  24.1423640  92.8950231 112.4950950  24.7771105  92.8226133
 111.2913007  24.2387506  92.0790233 113.5040505  18.0474893  84.4667523
 112.5696784  18.1676355  84.2972227 113.6817173  17.1447359  84.2027533
 106.8334891  21.8918083  93.7155802 107.5344351  22.5254566  93.8685197
 106.3630006  22.2332815  92.9551442 114.9589287  20.2336033  82.0003709
 115.2349131  20.1192628  82.9097583 114.0893786  19.8353518  81.9615882
 111.5943351  24.4822384  85.6436523 111.7765746  23.6644040  86.1064275
 112.4176337  24.6990076  85.2061413 111.9285517  23.4090569  82.9051571
 112.4573283  22.8983024  82.2921734 112.1913736  23.0933099  83.7697104
 102.4302609  21.4254438  90.6486905 103.0156046  20.6798126  90.7814809
 102.2327448  21.7358395  91.5323569 105.2841265  24.4605686  85.6649347
 104.6151640  24.9451813  85.1813387 105.1454134  24.7074906  86.5792726
  97.0220264  13.9960039  89.3691348  97.0604364  13.4623629  90.1628466
  96.5160557  13.4695244  88.7502325 109.4246533  26.4949429  92.2632006
 109.9764841  26.6581051  93.0281091 109.7652727  27.0853867  91.5912031
 100.6528842  12.7224141  82.4445280 100.9482283  11.8134819  82.3912333
  99.7516878  12.7011880  82.1226282 112.5614921  24.4431405  89.2495688
 112.4366060  23.6421145  88.7406633 113.2194012  24.9377598  88.7609658
 114.6249829  22.2440425  90.8775238 113.6780164  22.1245776  90.8053565
 114.9732602  21.3562923  90.9601499 111.6296262  22.0393141  87.0779590
 111.4821225  21.1109848  87.2587160 112.4549756  22.0613232  86.5936665
 115.2330384  22.8621700  88.1644463 116.1576932  22.6564561  88.0268914
 115.0645687  22.6138101  89.0733804 106.3656998  12.8516692  88.6482452
 106.2201579  13.1656995  89.5406734 105.8882202  13.4701592  88.0953351
 115.0225700  23.3807367  83.5206554 115.1962578  22.8153790  82.7680407
 115.5154592  24.1808262  83.3386044 100.8402660  15.3922036  91.5870113
 100.2956128  16.1681844  91.7190388 101.7182010  15.7392841  91.4289235
 116.0100873  22.6974132  80.6203453 116.7051777  23.3180824  80.8390767
 116.3524023  21.8469483  80.8955831 101.6268682  14.5191933  94.4800270
 100.8850418  14.6674568  95.0664901 101.3061426  14.7800198  93.6167020
 117.9092296  20.1473837  82.1490783 118.4343620  20.4861110  81.4240103
 117.8214648  19.2120853  81.9653918 109.5712345  24.0607911  94.2780660
 109.8799471  23.8157058  95.1503360 110.3687827  24.2654549  93.7899530
 109.5932957  26.2145820  86.5086037 109.1537947  25.7222199  87.2018893
 110.3441074  25.6718788  86.2678112 102.0725296  22.4057361  86.5110665
 102.8983316  22.1061133  86.1309308 101.7219348  21.6364984  86.9600453
 107.0406829  21.7583830  88.5808338 106.4186838  21.0954535  88.2810566
 107.7111696  21.7844961  87.8981986 100.2733901  20.3243688  87.4699598
  99.4365809  19.8965862  87.2883600 100.2457546  20.5176131  88.4070390
 106.6020336  20.3087753  82.0566799 106.7508456  20.9923217  81.4033472
 107.4086779  20.2892843  82.5716255 104.3572969  16.3352931  83.0627868
 104.1119011  15.4315261  83.2608078 104.5268883  16.3370081  82.1207346
 110.1015741  22.8035883  79.5278546 109.5289708  23.4226070  79.0749018
 110.6748535  23.3535245  80.0618468 113.3213001  23.0873033  80.6587129
 114.2543674  23.0218595  80.8620004 113.2336214  23.9229300  80.2001661
 115.9501018  22.4038904  77.6191076 115.8714649  22.0698767  78.5126834
 116.7710684  22.8960672  77.6182548  99.5883397  13.3853036  87.2548530
  99.2686182  12.5318344  86.9622904  99.0416825  13.6001614  88.0106498
 103.3663305  16.1015477  90.9718037 103.5849315  17.0332585  90.9906071
 103.7789079  15.7423451  91.7572841  99.4571657  17.0055947  89.2241652
  98.7635129  16.5909900  88.7111606 100.2044648  17.0476484  88.6275071
 101.3708400  16.9374201  87.1007667 101.3479088  17.0361888  86.1489550
 101.6809036  17.7839352  87.4224833 104.0295778  18.9950356  91.2154281
 104.9839031  18.9634299  91.1484213 103.8308301  18.5340980  92.0304507
 104.6195160  17.5651472  93.7825079 105.4388049  18.0595551  93.8059916
 104.8931968  16.6483440  93.7542646 102.3846006  24.5369976  88.2324479
 102.2500474  23.7770377  87.6662477 101.9678069  25.2610876  87.7653268
 113.5204969  19.7206899  77.2401054 114.2240820  19.9256902  77.8558710
 112.7967618  20.2883661  77.5050138 105.5415132  25.4339293  88.4442922
 105.4247516  26.3784725  88.3421612 104.7207579  25.1312854  88.8328721
 115.4291667  20.1589428  79.2899515 116.2637271  19.7270627  79.1076989
 115.2676010  19.9871442  80.2176409 115.0837559  16.6621542  80.6555854
 115.0286363  16.4965813  79.7144298 114.4583614  17.3697575  80.8118044
  99.8730074  11.8989606  94.4817276 100.5188938  11.3888560  94.9704501
  99.6647225  12.6358288  95.0560701 106.5669646  26.0867555  91.6598850
 107.4696893  26.1191165  91.9765345 106.3407017  25.1568006  91.6745186
 108.3223248  24.8398541  88.3208929 107.3718880  24.8400403  88.2073301
 108.6255735  24.0931276  87.8044963 120.8665648  30.6286508  89.3216216
 120.5284160  30.5127572  88.4336751 121.7355416  30.2277673  89.3017222
 116.7252464  32.4821984  85.3113107 116.1617329  32.3911921  84.5429395
 116.6104859  31.6621889  85.7915599 114.2716896  33.9773176  88.1497327
 115.0638188  33.6364000  87.7343627 114.5113546  34.0868151  89.0699481
 116.2307650  33.2382089  81.0214706 117.0038526  32.6911076  80.8827582
 116.5833049  34.1026338  81.2329168 118.0692692  34.5658471  94.2281605
 117.7782558  35.4704102  94.1128272 118.7049677  34.6074999  94.9425675
 118.9948899  31.9435320  90.8182965 119.5912471  31.7191342  90.1039928
 119.0523871  31.2020065  91.4208413 118.5673928  29.3974755  78.6533156
 118.8199448  28.8756276  77.8916619 117.6298487  29.2340900  78.7559840
 118.2870216  31.3002861  80.8557531 118.1706474  30.6247764  81.5238615
 118.3972476  30.8135235  80.0389684 120.6301757  30.7613008  84.5604220
 120.2659965  30.2343629  85.2717142 121.4868873  30.3711477  84.3870706
 120.2707244  25.7902908  79.5565569 120.4381647  26.6583144  79.9236040
 120.0804413  25.9530189  78.6326858 116.4795059  30.7033684  87.2568104
 115.5545555  30.5709898  87.4645795 116.7279472  31.4827903  87.7538046
 120.2496465  28.2460565  80.5412236 120.1296090  28.6917616  81.3797716
 119.5549054  28.5945883  79.9825774 113.8403870  30.3466957  88.0911893
 113.9696251  30.6001436  89.0051304 113.1601321  30.9394665  87.7716548
 118.0103357  41.0164207  84.1902367 117.9327387  41.9672032  84.2690847
 117.4065001  40.6710080  84.8477293 118.7566959  30.9977526  96.4081701
 119.4981644  31.5362570  96.1316524 118.0503945  31.6243815  96.5653253
 120.5853369  28.0779273  92.3787419 121.4314564  28.5018687  92.5222068
 120.5252007  27.4212897  93.0725982 120.1079076  33.4382265  86.0256236
 120.5717421  33.7169968  85.2360859 119.8435874  32.5365710  85.8429327
 117.0003157  32.9853747  88.9635999 117.5704514  33.4141015  88.3253484
 117.5911268  32.7036331  89.6620185 119.0447962  29.5605417  82.8345801
 119.7472005  30.0126461  83.3019728 118.7128590  28.9189236  83.4625694
 112.7873296  27.8188970  88.1362935 111.9972350  28.0746499  87.6603046
 113.2784543  28.6337308  88.2414975 114.7388041  28.1833549  85.0946412
 113.9419204  28.2952244  85.6129907 114.5113633  28.5220201  84.2287302
 120.5693709  34.7078252  93.0428926 120.6338141  35.1698660  93.8787098
 119.8604632  34.0775617  93.1711236 111.0710999  28.0719460  90.5677926
 111.3219037  28.9566470  90.8335502 111.6070547  27.8924062  89.7953018
 120.2841726  36.3746360  82.9107907 120.1487401  37.2197896  83.3392754
 120.8251539  36.5765638  82.1473840 113.7371124  33.8921798  83.4835832
 114.2495644  34.6865048  83.6341396 114.3893836  33.1948088  83.4169433
 115.5466008  37.0087554  85.5658585 115.7232637  37.9305519  85.3779569
 116.3422842  36.6945974  85.9952965 114.8318365  29.0552186  95.4420748
 114.7171880  28.1537443  95.7427847 113.9762883  29.3015883  95.0905565
 116.6697324  38.5265728  91.5668927 117.2204749  38.3982791  90.7945921
 115.8308800  38.8260617  91.2163820 120.4664495  34.7916856  95.9113158
 120.9992832  34.0305144  95.6812466 119.9378576  34.4990508  96.6537313
 111.7020040  32.2210452  84.2595402 112.5395262  32.6307461  84.0429110
 111.8798308  31.2809894  84.2295596 121.1831584  24.7335234  85.0064474
 120.3273180  24.3442084  84.8270112 121.5958535  24.8127195  84.1464259
 118.9573616  22.3520307  88.4122215 119.8226613  22.1563115  88.0528104
 119.0251125  22.1230659  89.3391572 121.8317208  33.9202848  83.4231970
 121.3038569  33.1855608  83.1105208 121.3304710  34.6977525  83.1771939
 116.5635935  24.5822515  85.7838582 117.1379687  24.3597696  85.0511775
 117.1506918  24.6511209  86.5367183 116.8905522  26.6126976  79.8034467
 116.0542834  26.9501662  80.1243742 116.7510292  26.4775955  78.8661604
 118.8658603  21.4563764  84.5113651 118.2123015  21.1412781  83.8870266
 118.8239077  20.8339504  85.2373474 119.9769808  31.7383059  76.4266943
 119.0696869  31.5072312  76.6258092 120.4740840  30.9420678  76.6140925
 121.1558041  31.8395654  80.9490933 120.2469260  31.5554686  81.0463403
 121.1853125  32.2594732  80.0894240 111.7246212  29.5601168  84.9306136
 111.5270611  28.9670528  84.2057202 111.1692875  29.2553378  85.6482074
 119.7042935  29.4524274  87.0500729 119.7591545  28.4998111  86.9743205
 118.8934137  29.6083713  87.5342027 120.8534129  33.3804397  78.2879012
 120.4153559  32.6640256  77.8284649 121.5944570  33.6080512  77.7264103
 117.6435295  28.0701334  84.8091108 116.8303161  28.3695504  85.2156300
 118.1394289  27.6757023  85.5265590 119.7943873  38.0659091  86.7425372
 119.7520052  38.2919937  85.8133904 120.7106572  37.8322465  86.8911173
 117.1349370  25.6419689  90.4252343 117.7748749  25.5008448  89.7275306
 116.3026900  25.3554203  90.0490945 117.9109674  34.9422120  86.5387335
 118.7050272  34.4472440  86.3369910 117.2001366  34.4139983  86.1755041
 114.2192437  29.0865202  82.6147088 113.2890025  29.0249657  82.8317050
 114.3149909  28.5641154  81.8183729 114.1377986  25.6120014  85.2025329
 114.3984804  26.5265348  85.0934490 114.9595159  25.1444457  85.3521942
 115.6102912  27.0257772  92.3724154 116.2825965  26.8175134  91.7236803
 114.7832698  26.8279858  91.9329386 120.4880950  35.5151142  90.2185172
 120.3492035  35.1469926  91.0911110 119.6995546  36.0298781  90.0469130
 121.0829102  40.6160238  81.5610709 121.2580857  40.1448281  82.3756331
 120.3961890  41.2426004  81.7891969 122.0386165  34.8932744  87.6074010
 121.7035997  34.8533514  88.5031660 121.5390111  34.2277460  87.1344420
 116.0130409  30.3000375  93.1326591 115.8750207  29.5680613  93.7338130
 116.9235332  30.2109275  92.8510779 118.6412710  30.0120334  92.6210271
 119.3512328  29.3713526  92.5796889 118.5982018  30.2633229  93.5436452
 117.3541643  26.9985552  94.4405910 116.8179001  26.5476290  95.0927507
 116.7658352  27.1331461  93.6976375 115.6490187  43.7649601  88.3350569
 115.8886785  44.3968125  89.0129587 114.8059383  43.4137641  88.6215928
 116.7643902  26.4574203  77.0032374 115.8873369  26.3363004  76.6394621
 117.2401656  25.6660281  76.7511263 108.2846043  31.2451363  87.0973881
 108.9717082  30.9313093  86.5094896 108.1294171  32.1492728  86.8241132
 113.0880765  26.1341559  91.5258905 113.0038953  25.5267229  90.7909315
 112.2663471  26.6250578  91.5268401 120.1618049  39.5728723  90.7392073
 120.0888220  40.3783695  91.2511377 119.7195442  39.7720689  89.9140094
 119.9507828  38.8100493  84.2494894 119.1675350  39.3522174  84.3433119
 120.6500574  39.3274473  84.6489136 119.8439447  26.7612506  86.6200784
 119.4737235  26.2083546  87.3081690 120.3398540  26.1570639  86.0675784
 117.6728646  37.2210001  93.7155802 118.3738105  37.8546484  93.8685197
 117.2023761  37.5624733  92.9551442 113.2696364  36.7546356  90.6486905
 113.8549801  36.0090044  90.7814809 113.0721202  37.0650313  91.5323569
 116.1235019  39.7897603  85.6649347 115.4545394  40.2743731  85.1813387
 115.9847889  40.0366824  86.5792726 107.8614019  29.3251956  89.3691348
 107.8998118  28.7915547  90.1628466 107.3554312  28.7987162  88.7502325
 120.2640288  41.8241347  92.2632006 120.8158596  41.9872968  93.0281091
 120.6046481  42.4145785  91.5912031 115.2404781  24.1716497  92.8653890
 115.3046107  25.0331328  92.4531288 115.1771901  23.5590498  92.1326249
 111.4922596  28.0516058  82.4445280 111.7876037  27.1426737  82.3912333
 110.5910632  28.0303798  82.1226282 115.0216843  26.1272055  88.4272828
 114.3003429  26.7408023  88.2880301 115.8110099  26.6629820  88.3489474
 113.2210438  25.7330156  82.5684605 112.8923144  24.8527535  82.3859711
 113.5749809  25.6777825  83.4560994 116.3352261  26.0203126  82.9360082
 116.6748334  26.5489047  82.2138691 116.7824382  26.3583532  83.7118649
 118.3220408  24.5177747  81.1353375 119.0428771  24.8959000  80.6317092
 117.6985712  25.2366624  81.2388353 117.2050752  28.1808610  88.6482452
 117.0595333  28.4948913  89.5406734 116.7275956  28.7993510  88.0953351
 119.0647135  25.1711158  88.6963342 119.0508704  24.2752251  88.3595640
 119.7819563  25.1781821  89.3301628 120.9173266  25.6048498  90.7416469
 120.6591044  26.5265568  90.7400799 120.3858306  25.2078932  91.4316933
 111.6796415  30.7213954  91.5870113 111.1349883  31.4973762  91.7190388
 112.5575764  31.0684758  91.4289235 118.4684031  24.0525538  83.9650912
 118.5899942  23.1242184  84.1641799 118.1786074  24.0664224  83.0529227
 121.3375222  21.7380448  87.1017632 121.3596918  21.8019781  86.1469611
 121.7543281  20.8984957  87.2958138 112.4662436  29.8483850  94.4800270
 111.7244172  29.9966486  95.0664901 112.1455181  30.1092116  93.6167020
 120.4106099  39.3899829  94.2780660 120.7193226  39.1448975  95.1503360
 121.2081581  39.5946467  93.7899530 120.4326711  41.5437738  86.5086037
 119.9931701  41.0514117  87.2018893 121.1834828  41.0010706  86.2678112
 112.9119050  37.7349279  86.5110665 113.7377070  37.4353051  86.1309308
 112.5613102  36.9656901  86.9600453 117.8800583  37.0875747  88.5808338
 117.2580593  36.4246452  88.2810566 118.5505450  37.1136879  87.8981986
 111.1127655  35.6535605  87.4699598 110.2759563  35.2257780  87.2883600
 111.0851301  35.8468049  88.4070390 117.4414090  35.6379671  82.0566799
 117.5902211  36.3215135  81.4033472 118.2480534  35.6184761  82.5716255
 115.1966723  31.6644848  83.0627868 114.9512765  30.7607178  83.2608078
 115.3662638  31.6661999  82.1207346 114.4662371  27.3973206  80.5614029
 113.7731616  27.4717561  79.9054065 114.2214123  26.6333549  81.0835546
 120.9409496  38.1327801  79.5278546 120.3683463  38.7517988  79.0749018
 121.5142289  38.6827163  80.0618468 121.3256294  29.4688614  76.8694599
 122.2715399  29.3394822  76.9383017 120.9470539  28.7303276  77.3464027
 119.5099211  27.3938590  76.8049484 118.6030667  27.0971703  76.8812198
 119.7875192  27.0968408  75.9383770 110.4277152  28.7144954  87.2548530
 110.1079936  27.8610262  86.9622904 109.8810580  28.9293532  88.0106498
 114.2057059  31.4307395  90.9718037 114.4243069  32.3624502  90.9906071
 114.6182833  31.0715369  91.7572841 121.1261277  21.9375480  82.9593725
 120.3162005  21.5922565  83.3348971 121.8145694  21.6283024  83.5481337
 118.2797996  24.2525525  76.9461463 119.1417160  24.5780424  77.2057281
 118.4648340  23.4657021  76.4334529 110.2965412  32.3347865  89.2241652
 109.6028883  31.9201818  88.7111606 111.0438403  32.3768402  88.6275071
 112.2102154  32.2666119  87.1007667 112.1872842  32.3653806  86.1489550
 112.5202791  33.1131270  87.4224833 114.8689532  34.3242274  91.2154281
 115.8232786  34.2926216  91.1484213 114.6702056  33.8632898  92.0304507
 115.4588914  32.8943390  93.7825079 116.2781803  33.3887469  93.8059916
 115.7325722  31.9775358  93.7542646 113.2239761  39.8661893  88.2324479
 113.0894229  39.1062294  87.6662477 112.8071823  40.5902793  87.7653268
 116.3808887  40.7631210  88.4442922 116.2641271  41.7076643  88.3421612
 115.5601333  40.4604772  88.8328721 110.7123829  27.2281524  94.4817276
 111.3582692  26.7180478  94.9704501 110.5040980  27.9650205  95.0560701
 119.2327439  21.4921568  80.2341172 119.2206109  22.4363408  80.3909443
 120.1250861  21.3091714  79.9400633 117.4063401  41.4159472  91.6598850
 118.3090648  41.4483083  91.9765345 117.1800771  40.4859923  91.6745186
 119.1617003  40.1690459  88.3208929 118.2112634  40.1692320  88.2073301
 119.4649489  39.4223193  87.8044963 121.9104753  43.4011378  90.5677926
 122.1612791  44.2858388  90.8335502 122.4464301  43.2215980  89.7953018
 119.1239797  46.5743281  87.0973881 119.8110837  46.2605011  86.5094896
 118.9687926  47.4784645  86.8241132 118.7007773  44.6543874  89.3691348
 118.7391873  44.1207465  90.1628466 118.1948066  44.1279079  88.7502325
 121.9521410  50.9827523  87.4699598 121.1153318  50.5549697  87.2883600
 121.9245055  51.1759966  88.4070390 121.2670906  44.0436871  87.2548530
 120.9473691  43.1902179  86.9622904 120.7204334  44.2585449  88.0106498
 121.1359166  47.6639783  89.2241652 120.4422638  47.2493736  88.7111606
 121.8832157  47.7060319  88.6275071 121.5517583  42.5573441  94.4817276
 122.1976447  42.0472395  94.9704501 121.3434734  43.2942123  95.0560701
 118.0103359  18.0226330  70.9147673 117.9327388  18.9734155  70.9936154
 117.4065002  17.6772202  71.5722600 115.6490188  20.7711724  75.0595875
 115.8886786  21.4030248  75.7374894 114.8059385  20.4199764  75.3461235
 116.1235020  16.7959726  72.3894654 115.4545396  17.2805854  71.9058694
 115.9847890  17.0428946  73.3038033 120.2640289  18.8303470  78.9877312
 120.8158597  18.9935091  79.7526398 120.6046482  19.4207907  78.3157337
 120.4326712  18.5499861  73.2331343 119.9931703  18.0576239  73.9264200
 121.1834829  18.0072828  72.9923419 113.2239762  16.8724016  74.9569786
 113.0894230  16.1124417  74.3907784 112.8071824  17.5964916  74.4898575
 116.3808888  17.7693333  75.1688228 116.2641272  18.7138765  75.0666919
 115.5601334  17.4666895  75.5574028 117.4063402  18.4221595  78.3844157
 118.3090649  18.4545205  78.7010652 117.1800772  17.4922046  78.3990493
 121.9104754  20.4073501  77.2923232 122.1612793  21.2920511  77.5580808
 122.4464303  20.2278102  76.5198324 119.1239798  23.5805403  73.8219188
 119.8110838  23.2667133  73.2340203 118.9687927  24.4846768  73.5486439
 118.7007774  21.6605996  76.0936655 118.7391874  21.1269587  76.8873773
 118.1948067  21.1341202  75.4747632 121.9521411  27.9889646  74.1944905
 121.1153319  27.5611820  74.0128906 121.9245056  28.1822089  75.1315696
 121.2670908  21.0498994  73.9793837 120.9473692  20.1964302  73.6868211
 120.7204336  21.2647572  74.7351804 121.1359168  24.6701905  75.9486959
 120.4422639  24.2555858  75.4356913 121.8832159  24.7122442  75.3520378
 121.5517584  19.5635564  81.2062583 122.1976448  19.0534518  81.6949808
 121.3434735  20.3004246  81.7806008  47.0081600  71.1064405 132.4482400
  46.3343299  71.4096102 133.0567358  47.3947422  71.9093485 132.0987857
  49.0989070  62.8972618 130.9829840  48.4818241  62.1719446 130.8862893
  48.6305559  63.6581978 130.6396914  50.9738341  68.6849888 133.7222223
  51.6689245  69.3056581 133.9409538  51.3161491  67.8345239 133.9974601
  45.0653209  68.7911640 132.6297317  44.4927176  69.4101827 132.1767789
  45.6386003  69.3411002 133.1637239  48.2850469  69.0748790 133.7605899
  49.2181142  69.0094352 133.9638774  48.1973682  69.9105057 133.3020432
  50.9138486  68.3914660 130.7209847  50.8352117  68.0574524 131.6145604
  51.7348153  68.8836428 130.7201319  48.4842438  65.7082656 130.3419825
  49.1878288  65.9132658 130.9577480  47.7605086  66.2759418 130.6068908
  50.3929135  66.1465185 132.3918285  51.2274739  65.7146383 132.2095760
  50.2313478  65.9747199 133.3195179  51.8542990  72.6002732 132.9053237
  51.0180303  72.9377419 133.2262512  51.7147760  72.4651712 131.9680374
  51.7281370  72.4449960 130.1051144  50.8510837  72.3238761 129.7413391
  52.2039124  71.6536038 129.8530033  49.4299839  73.3848962 133.6632800
  48.7369084  73.4593317 133.0072836  49.1851591  72.6209306 134.1854317
  54.4736679  73.3814347 129.9068254  53.5668135  73.0847459 129.9830968
  54.7512660  73.0844165 129.0402541  53.2435464  70.2401282 130.0480234
  54.1054628  70.5656180 130.3076051  53.4285808  69.4532778 129.5353299
  54.1964907  67.4797325 133.3359943  54.1843577  68.4239165 133.4928213
  55.0888329  67.2967470 133.0419404  47.0081601  48.1126527 119.1727707
  46.3343300  48.4158224 119.7812664  47.3947423  48.9155608 118.8233164
  49.0989071  39.9034740 117.7075147  48.4818242  39.1781569 117.6108199
  48.6305560  40.6644101 117.3642221  50.9738342  45.6912011 120.4467530
  51.6689247  46.3118704 120.6654844  51.3161492  44.8407362 120.7219908
  45.0653211  45.7973763 119.3542623  44.4927178  46.4163950 118.9013095
  45.6386004  46.3473124 119.8882545  48.2850470  46.0810913 120.4851206
  49.2181143  46.0156474 120.6884081  48.1973683  46.9167180 120.0265738
  50.9138487  45.3976783 117.4455153  50.8352119  45.0636647 118.3390911
  51.7348154  45.8898551 117.4446625  48.4842439  42.7144778 117.0665131
  49.1878289  42.9194781 117.6822787  47.7605088  43.2821540 117.3314215
  50.3929136  43.1527308 119.1163592  51.2274740  42.7208506 118.9341066
  50.2313479  42.9809321 120.0440486  59.0213411  53.6696959 129.2118768
  59.6591821  53.5503706 128.5082108  58.9034254  54.6177803 129.2706720
  55.8303118  53.6224387 129.1480293  55.4921629  53.5065452 128.2600828
  56.6992886  53.2215552 129.1281299  51.6889933  55.4759863 125.1377184
  51.1254798  55.3849800 124.3693472  51.5742328  54.6559768 125.6179676
  57.2689492  59.1430831 120.4491649  56.6177472  59.7284911 120.0625663
  58.0633855  59.6737026 120.5086686  51.1945119  56.2319968 120.8478783
  51.9675995  55.6848955 120.7091659  51.5470518  57.0964217 121.0593245
  53.5311397  52.3912634 118.4797233  53.7836918  51.8694155 117.7180696
  52.5935956  52.2278780 118.5823917  58.5754680  51.3948413 126.2871976
  59.3617769  50.9767836 125.9362393  58.8393384  52.2994505 126.4553625
  58.7464757  56.8321263 120.9860633  58.1110590  56.9055889 121.6981538
  58.4162164  57.4214862 120.3079712  63.9763107  51.3323646 127.1904955
  64.7088279  50.7622863 127.4242784  63.2202463  50.9445246 127.6311460
  53.2507686  54.2940740 120.6821608  53.1343944  53.6185644 121.3502692
  53.3609946  53.8073114 119.8653761  55.5939227  53.7550887 124.3868297
  55.2297434  53.2281508 125.0981219  56.4506343  53.3649356 124.2134783
  55.2344714  48.7840787 119.3829646  55.4019116  49.6521023 119.7500117
  55.0441883  48.9468069 118.4590935  57.9920047  57.2457766 131.0495476
  57.6920770  58.1482805 130.9411283  57.6471106  56.9789949 131.9016629
  61.3917191  49.7640306 128.7292913  60.4834068  49.6955714 128.4351674
  61.3404786  50.2412251 129.5574739  55.2133934  51.2398444 120.3676313
  55.0933560  51.6855495 121.2061793  54.5186523  51.5883762 119.8089851
  52.9740827  64.0102086 124.0166444  52.8964856  64.9609911 124.0954924
  52.3702470  63.6647959 124.6741370  60.9119001  51.7119918 121.1956647
  61.8236857  51.9447304 121.0204344  60.4028648  52.2956962 120.6331725
  59.5188583  56.6945736 128.5870228  58.8897445  56.8591450 127.8846296
  59.1314245  57.1087346 129.3581192  63.3977815  57.6300174 125.9414592
  62.7128853  58.0099075 125.3911625  63.4821664  58.2395501 126.6746540
  55.0716545  56.4320144 125.8520313  55.5354890  56.7107847 125.0624936
  54.8073343  55.5303589 125.6693404  54.0085431  52.5543297 122.6609878
  54.7109474  53.0064340 123.1283805  53.6766059  51.9127115 123.2889771
  61.7674574  58.1532088 130.7132293  62.5892018  57.7512276 130.4314974
  61.7636977  58.0500323 131.6648409  69.8580567  54.4970837 127.0617264
  69.1044276  53.9278235 126.9061269  69.9928109  54.4633501 128.0087899
  55.2479195  59.3684239 122.7371984  55.1124870  60.2135775 123.1656831
  55.7889008  59.5703517 121.9737917  48.7008593  56.8859677 123.3099909
  49.2133113  57.6802927 123.4605473  49.3531306  56.1885968 123.2433510
  50.5103478  60.0025433 125.3922662  50.6870106  60.9243398 125.2043646
  51.3060311  59.6883853 125.8217042  51.6334793  61.5203607 131.3933004
  52.1842218  61.3920671 130.6209998  50.7946269  61.8198496 131.0427897
  46.6657510  55.2148332 124.0859479  47.5032732  55.6245340 123.8693187
  46.8435777  54.2747774 124.0559673  58.5621942  52.8823412 119.7743312
  58.0468565  53.6528017 120.0131700  58.2899250  52.2088548 120.3976374
  56.1469053  47.7273113 124.8328551  55.2910649  47.3379963 124.6534189
  56.5596005  47.8065074 123.9728336  63.5356216  55.6355767 121.7096486
  62.7585659  55.2966926 121.2651648  64.2147697  55.6408390 121.0351451
  58.3508245  50.7550504 121.6003093  58.0458381  51.0696653 122.4513237
  59.3038687  50.8331924 121.6430426  56.7954677  56.9140728 123.2496047
  56.2676038  56.1793487 122.9369285  56.2942180  57.6915404 123.0036016
  61.7747523  55.1089748 128.3663094  61.1171197  55.7989009 128.4543222
  62.5787922  55.4986180 128.7097080  60.5852982  53.4634121 126.4167035
  61.0984863  54.0964113 126.9188745  61.2354205  52.8635316 126.0510395
  51.8542992  49.6064855 119.6298544  51.0180304  49.9439541 119.9507819
  51.7147761  49.4713835 118.6925681  54.9407277  54.7320938 116.2531020
  54.0334339  54.5010191 116.4522169  55.4378309  53.9358557 116.4405002
  57.8475356  63.4418445 119.1727707  57.1737055  63.7450142 119.7812664
  58.2341178  64.2447525 118.8233164  57.8468860  52.3374992 123.7928056
  58.5940679  52.8496389 123.4835178  58.1160450  52.0159045 124.6532450
  56.1195510  54.8333533 120.7755010  55.2106730  54.5492566 120.8727480
  56.1490594  55.2532611 119.9158317  61.3514778  58.4440122 124.5446178
  60.8977105  57.6031032 124.6011368  60.7208745  59.0801521 124.8820958
  60.2947697  49.3732108 125.7746845  59.5570454  48.8609494 126.1057088
  60.5474471  48.9332490 124.9630122  59.7947717  60.2816619 125.4795996
  60.0870691  60.8421676 124.7608362  60.3046338  60.5745180 126.2349155
  54.6680404  52.4462153 126.8764806  54.7229014  51.4935990 126.8007282
  53.8571606  52.6021592 127.3606104  55.8171598  56.3742276 118.1143089
  55.3791028  55.6578135 117.6548726  56.5582039  56.6018391 117.5528180
  52.6072764  51.0639213 124.6355185  51.7940630  51.3633384 125.0420377
  53.1031759  50.6694902 125.3529667  54.7581342  61.0596970 126.5689449
  54.7157521  61.2857816 125.6397981  55.6744041  60.8260345 126.7175251
  63.9344713  54.6499473 124.1719408  63.7962612  54.8401069 123.2440597
  63.5780932  55.4118856 124.6287459  63.9614093  56.7176000 129.1830679
  64.3950599  56.6251290 130.0313733  64.6745673  56.6933501 128.5450695
  52.8747143  57.9359999 126.3651412  53.6687742  57.4410319 126.1633987
  52.1638835  57.4077862 126.0019118  57.6941988  60.3178095 130.7163780
  57.7479010  60.8869031 131.4841496  56.8256769  60.4879980 130.3517817
  49.1829906  52.0803081 122.4411165  48.2527495  52.0187536 122.6581127
  49.2787378  51.5579033 121.6447806  64.8229642  56.7599701 131.7163564
  65.0165532  57.6645512 131.9622839  64.7230260  56.3007120 132.5502150
  55.4518419  58.5089021 130.0449249  55.3129505  58.1407805 130.9175187
  54.6633015  59.0236660 129.8733207  56.0466571  63.6098117 121.3874786
  56.2218327  63.1386161 122.2020408  55.3599359  64.2363884 121.6156046
  57.0023634  57.8870624 127.4338087  56.6673467  57.8471394 128.3295737
  56.5027580  57.2215340 126.9608497  59.9382826  55.2326658 117.7075147
  59.3211996  54.5073486 117.6108199  59.4699314  55.9936018 117.3642221
  50.6127656  66.7587480 128.1614646  50.8524255  67.3906004 128.8393664
  49.7696853  66.4075520 128.4480005  51.7281372  49.4512082 116.8296451
  50.8510838  49.3300883 116.4658698  52.2039125  48.6598161 116.5775340
  55.1255518  62.5666603 130.5656150  55.0525690  63.3721574 131.0775454
  54.6832911  62.7658568 129.7404171  54.9145298  61.8038373 124.0758971
  54.1312820  62.3460053 124.1697196  55.6138043  62.3212352 124.4753213
  58.2241948  47.6133002 126.7193177  58.7210647  46.8602964 126.3994247
  57.4528929  47.6497319 126.1536386  66.0771705  53.3173368 128.3611468
  66.0661582  54.1998083 127.9905401  65.2089085  52.9644919 128.1666005
  57.5854202  62.4653437 132.7214309  58.2982174  63.1000902 132.6490210
  57.0944230  62.5617303 131.9054310  59.3071729  56.3704689 124.2931600
  58.3728007  56.4906152 124.1236304  59.4848397  55.4677156 124.0291610
  62.6944280  52.2122009 124.8281634  63.1604732  53.0450000 124.7541937
  63.1451780  51.7466990 125.5326893  60.7620511  58.5565830 121.8267786
  61.0380355  58.4422425 122.7361660  59.8925010  58.1583315 121.7879959
  57.3974575  62.8052181 125.4700600  57.5796970  61.9873837 125.9328352
  58.2207561  63.0219873 125.0325490  57.7316741  61.7320366 122.7315648
  58.2604507  61.2212820 122.1185811  57.9944960  61.4162896 123.5961181
  51.0872488  62.7835483 125.4913424  50.4182864  63.2681610 125.0077464
  50.9485358  63.0304703 126.4056803  55.2277757  64.8179226 132.0896083
  55.7796065  64.9810848 132.8545168  55.5683951  65.4083664 131.4176108
  46.4560066  51.0453938 122.2709357  46.7513507  50.1364616 122.2176410
  45.5548101  51.0241677 121.9490359  58.3646144  62.7661202 129.0759765
  58.2397284  61.9650941 128.5670710  59.0225235  63.2607395 128.5873735
  60.4281053  60.5670222 130.7039315  59.4811388  60.4475573 130.6317642
  60.7763826  59.6792720 130.7865576  48.1847907  48.7268035 122.3948682
  47.8560613  47.8465414 122.2123788  48.5387278  48.6715704 123.2825071
  57.4327486  60.3622938 126.9043667  57.2852448  59.4339645 127.0851237
  58.2580980  60.3843029 126.4200742  51.2989730  49.0141005 122.7624159
  51.6385803  49.5426926 122.0402768  51.7461851  49.3521411 123.5382726
  61.0361608  61.1851497 127.9908540  61.9608155  60.9794358 127.8532991
  60.8676911  60.9367898 128.8997881  53.2857877  47.5115627 120.9617452
  54.0066240  47.8896879 120.4581169  52.6623182  48.2304503 121.0652430
  57.4289000  48.2160776 121.8975784  57.6452615  49.0985413 121.5964613
  56.9483067  47.8246989 121.1681426  60.8256924  61.7037164 123.3470631
  60.9993802  61.1383587 122.5944484  61.3185815  62.5038059 123.1650121
  53.4321501  47.0463417 123.7914989  53.5537412  46.1180063 123.9905876
  53.1423543  47.0602103 122.8793304  66.6796315  54.4673587 124.9660931
  67.1227461  53.7180912 124.5680054  65.8022826  54.4583723 124.5834663
  61.8132097  61.0203929 120.4467530  62.5083001  61.6410621 120.6654844
  62.1555247  60.1699280 120.7219908  63.7123520  58.4703634 121.9754860
  64.2374844  58.8090907 121.2504181  63.6245872  57.5350649 121.7917995
  55.3964180  64.5375617 126.3350114  54.9569171  64.0451996 127.0282970
  56.1472297  63.9948585 126.0942189  47.8756519  60.7287158 126.3374742
  48.7014539  60.4290930 125.9573385  47.5250571  59.9594781 126.7864530
  52.8438053  60.0813626 128.4072415  52.2218062  59.4184331 128.1074643
  53.5142919  60.1074758 127.7246063  46.0765124  58.6473485 127.2963675
  45.2397033  58.2195659 127.1147677  46.0488770  58.8405928 128.2334467
  52.4051559  58.6317550 121.8830876  52.5539680  59.3153014 121.2297549
  53.2118003  58.6122640 122.3980332  65.0233498  58.3725946 134.8380809
  64.7318306  58.7355926 135.6744269  64.4105629  57.6592954 134.6594141
  66.2229180  55.9378825 127.3583379  67.0576071  56.3768629 127.5220939
  66.3588309  55.4617479 126.5391625  50.1604192  54.6582727 122.8891945
  49.9150234  53.7545057 123.0872155  50.3300107  54.6599878 121.9471423
  49.4299840  50.3911085 120.3878106  48.7369085  50.4655440 119.7318142
  49.1851592  49.6271429 120.9099623  55.9046965  61.1265680 119.3542623
  55.3320932  61.7455867 118.9013095  56.4779759  61.6765042 119.8882545
  59.1244225  61.4102830 120.4851206  60.0574898  61.3448392 120.6884081
  59.0367438  62.2459097 120.0265738  61.7532241  60.7268701 117.4455153
  61.6745873  60.3928564 118.3390911  62.5741908  61.2190469 117.4446625
  64.4510433  53.5930440 130.6531472  64.4186753  52.6546441 130.8391156
  65.0611056  53.6714477 129.9197297  56.2893764  52.4626493 116.6958676
  57.2352868  52.3332701 116.7647094  55.9108008  51.7241155 117.1728104
  70.2686983  54.6546447 129.7937509  70.9990371  54.3931735 130.3545212
  69.6593928  53.9175169 129.8339577  68.3502280  52.7954309 130.3911960
  67.6235443  52.6610274 129.7828451  67.9349567  53.1031138 131.1968678
  54.4736681  50.3876469 116.6313561  53.5668136  50.0909582 116.7076275
  54.7512662  50.0906287 115.7647847  56.0898746  44.9313359 122.7857802
  55.2799475  44.5860444 123.1613048  56.7783163  44.6220903 123.3745414
  53.2435465  47.2463405 116.7725540  54.1054629  47.5718303 117.0321358
  53.4285809  46.4594900 116.2598606  61.3968102  46.1191931 123.9160763
  60.8166771  46.7776735 123.5338816  61.1304034  45.2969276 123.5048181
  60.1792980  48.2792021 122.9717111  59.2918835  48.5641672 122.7537306
  60.5946969  48.1185785 122.1244388  63.5307516  48.3038542 126.6871451
  64.3067906  48.7934995 126.9596068  62.8055650  48.7296597 127.1443320
  65.9680075  49.0166162 127.7445391  66.5624565  48.7761898 127.0338700
  66.0406658  48.2973292 128.3718928  48.1877230  62.8599773 128.0588556
  48.0531698  62.1000173 127.4926554  47.7709293  63.5840672 127.5917345
  59.3236193  58.0436696 117.0665131  60.0272043  58.2486699 117.6822787
  58.5998842  58.6113458 117.3314215  60.1534004  53.7946557 123.1867402
  60.0969205  54.2515109 122.3475034  60.7062346  53.0337242 123.0090244
  63.9638809  49.5836289 124.0117521  63.7075744  49.1832925 124.8425729
  63.3391677  50.2980083 123.8867660  68.2751147  52.3232362 126.5188813
  67.7150705  52.3925552 127.2920375  67.6694651  52.1473347 125.7988309
  51.3446356  63.7569090 128.2706999  51.2278740  64.7014522 128.1685689
  50.5238802  63.4542651 128.6592798  61.2322891  58.4819225 119.1163592
  62.0668495  58.0500424 118.9341066  61.0707234  58.3101239 120.0440486
  60.8868783  54.9851339 120.4819931  60.8317587  54.8195610 119.5408375
  60.2614838  55.6927371 120.6382121  54.1964908  44.4859448 120.0605249
  54.1843578  45.4301288 120.2173520  55.0888330  44.3029593 119.7664710
  52.3700870  64.4097351 131.4862927  53.2728117  64.4420962 131.8029422
  52.1438240  63.4797802 131.5009263  54.1254472  63.1628338 128.1473006
  53.1750103  63.1630200 128.0337378  54.4286958  62.4161073 127.6309040
  66.6696872  68.9516304 129.1480293  66.3315384  68.8357369 128.2600828
  67.5386640  68.5507470 129.1281299  62.5283688  70.8051781 125.1377184
  61.9648553  70.7141718 124.3693472  62.4136083  69.9851685 125.6179676
  60.0748120  72.3002973 127.9761404  60.8669412  71.9593797 127.5607704
  60.3144770  72.4097948 128.8963558  68.1083246  74.4722749 120.4491649
  67.4571226  75.0576829 120.0625663  68.9027609  75.0028944 120.5086686
  62.0338874  71.5611886 120.8478783  62.8069750  71.0140873 120.7091659
  62.3864272  72.4256135 121.0593245  64.3705151  67.7204552 118.4797233
  64.6230672  67.1986073 117.7180696  63.4329711  67.5570697 118.5823917
  69.4148434  66.7240330 126.2871976  70.2011523  66.3059753 125.9362393
  69.6787139  67.6286422 126.4553625  69.5858512  72.1613181 120.9860633
  68.9504345  72.2347807 121.6981538  69.2555918  72.7506779 120.3079712
  74.8156861  66.6615563 127.1904955  75.5482033  66.0914780 127.4242784
  74.0596217  66.2737164 127.6311460  64.0901440  69.6232658 120.6821608
  63.9737698  68.9477561 121.3502692  64.2003700  69.1365032 119.8653761
  66.4332981  69.0842805 124.3868297  66.0691188  68.5573426 125.0981219
  67.2900097  68.6941274 124.2134783  72.3382282  60.3737138 131.6499563
  72.0065607  61.2432549 131.4260778  71.7427895  60.0573422 132.3293594
  66.0738468  64.1132705 119.3829646  66.2412870  64.9812941 119.7500117
  65.8835637  64.2759986 118.4590935  62.2826283  69.0263480 127.0832181
  61.3576779  68.8939694 127.2909872  62.5310696  69.8057700 127.5802123
  66.0527689  66.5690362 120.3676313  65.9327314  67.0147413 121.2061793
  65.3580277  66.9175680 119.8089851  59.6435094  68.6696754 127.9175970
  59.7727475  68.9231233 128.8315381  58.9632545  69.2624462 127.5980625
  63.8134581  79.3394004 124.0166444  63.7358611  80.2901829 124.0954924
  63.2096225  78.9939876 124.6741370  71.7512755  67.0411835 121.1956647
  72.6630611  67.2739222 121.0204344  71.2422402  67.6248880 120.6331725
  69.0948730  63.2169871 129.4446508  68.2333209  63.5151125 129.7363245
  69.1211165  63.4340270 128.5127540  65.9110299  71.7612062 125.8520313
  66.3748645  72.0399765 125.0624936  65.6467097  70.8595506 125.6693404
  62.8034380  71.3083543 128.7900076  63.3735737  71.7370812 128.1517561
  63.3942492  71.0266128 129.4884262  64.8479185  67.8835214 122.6609878
  65.5503229  68.3356258 123.1283805  64.5159814  67.2419033 123.2889771
  58.5904519  66.1418767 127.9627012  57.8003573  66.3976295 127.4867123
  59.0815767  66.9567105 128.0679052  60.5419265  66.5063346 124.9210489
  59.7450428  66.6182040 125.4393984  60.3144857  66.8449998 124.0551379
  56.8742222  66.3949257 130.3942003  57.1250261  67.2796267 130.6599579
  57.4101771  66.2153859 129.6217095  66.0872950  74.6976157 122.7371984
  65.9518625  75.5427693 123.1656831  66.6282762  74.8995434 121.9737917
  59.5402347  72.2151595 123.3099909  60.0526868  73.0094845 123.4605473
  60.1925060  71.5177885 123.2433510  61.3497232  75.3317351 125.3922662
  61.5263860  76.2535316 125.2043646  62.1454066  75.0175770 125.8217042
  69.4365414  58.2206719 131.2670877  69.0929683  59.1108360 131.1909988
  69.8044376  58.0308376 130.4040462  57.5051264  70.5440249 124.0859479
  58.3426486  70.9537258 123.8693187  57.6829532  69.6039691 124.0559673
  69.4015696  68.2115330 119.7743312  68.8862320  68.9819934 120.0131700
  69.1293005  67.5380466 120.3976374  66.9862807  63.0565031 124.8328551
  66.1304404  62.6671881 124.6534189  67.3989759  63.1356991 123.9728336
  68.5161954  60.5911374 129.2320110  68.0126750  60.5541509 128.4187916
  68.8092561  61.5004117 129.2916767  64.7604840  60.6750104 128.2386292
  65.6257837  60.4792912 127.8792181  64.8282349  60.4460455 129.1655649
  74.3749970  70.9647684 121.7096486  73.5979413  70.6258844 121.2651648
  75.0541451  70.9700308 121.0351451  69.1901999  66.0842422 121.6003093
  68.8852135  66.3988571 122.4513237  70.1432442  66.1623842 121.6430426
  67.6348431  72.2432645 123.2496047  67.1069793  71.5085405 122.9369285
  67.1335934  73.0207322 123.0036016  62.3667159  62.9052312 125.6102659
  62.9410911  62.6827493 124.8775852  62.9538141  62.9741006 126.3631260
  71.4246736  68.7926038 126.4167035  71.9378618  69.4256030 126.9188745
  72.0747960  68.1927234 126.0510395  62.6936746  64.9356773 119.6298544
  61.8574058  65.2731459 119.9507819  62.5541516  64.8005752 118.6925681
  64.6689827  59.7793560 124.3377728  64.0154239  59.4642578 123.7134343
  64.6270301  59.1569301 125.0637551  65.7801031  70.0612856 116.2531020
  64.8728093  69.8302109 116.4522169  66.2772063  69.2650475 116.4405002
  68.6869110  78.7710363 119.1727707  68.0130809  79.0742059 119.7812664
  69.0734932  79.5739443 118.8233164  67.9027567  66.2675494 128.6625376
  66.9850128  66.4890441 128.5047064  68.3187711  66.3421804 127.8037083
  68.6862615  67.6666910 123.7928056  69.4334434  68.1788307 123.4835178
  68.9554204  67.3450962 124.6532450  66.9589265  70.1625450 120.7755010
  66.0500484  69.8784483 120.8727480  66.9884349  70.5824529 119.9158317
  71.1341452  64.7024026 125.7746845  70.3964209  64.1901412 126.1057088
  71.3868225  64.2624408 124.9630122  71.2353079  57.4800278 126.3688615
  71.5411956  56.6197641 126.0814530  71.9605684  58.0717898 126.1687609
  57.5277435  67.8830965 124.7570213  57.3301835  67.2900325 124.0321279
  56.9724099  67.5783175 125.4746151  65.5074159  67.7754071 126.8764806
  65.5622769  66.8227907 126.8007282  64.6965361  67.9313510 127.3606104
  66.6565353  71.7034194 118.1143089  66.2184783  70.9870053 117.6548726
  67.3975794  71.9310309 117.5528180  63.4466519  66.3931131 124.6355185
  62.6334384  66.6925301 125.0420377  63.9425513  65.9986819 125.3529667
  74.7738467  69.9791391 124.1719408  74.6356366  70.1692987 123.2440597
  74.4174686  70.7410774 124.6287459  62.9380594  63.9649486 130.2516420
  63.5779973  63.8238245 129.5539383  62.1058124  63.6784000 129.8755022
  63.7140898  73.2651917 126.3651412  64.5081496  72.7702237 126.1633987
  63.0032590  72.7369780 126.0019118  60.0223661  67.4094998 122.4411165
  59.0921249  67.3479454 122.6581127  60.1181133  66.8870951 121.6447806
  59.9409210  63.9349811 125.0289406  60.2016027  64.8495144 124.9198567
  60.7626382  63.4674254 125.1786019  61.4134135  65.3487568 132.1988231
  62.0857189  65.1404931 131.5500880  60.5863922  65.1509654 131.7593463
  66.8860325  78.9390035 121.3874786  67.0612081  78.4678078 122.2020408
  66.1993114  79.5655801 121.6156046  70.7776580  70.5618576 117.7075147
  70.1605751  69.8365404 117.6108199  70.3093069  71.3227936 117.3642221
  62.5675126  64.7804000 116.8296451  61.6904593  64.6592801 116.4658698
  63.0432879  63.9890078 116.5775340  54.0877266  69.5681160 126.9237958
  54.7748306  69.2542890 126.3358973  53.9325395  70.4722524 126.6505209
  58.8911989  64.4571356 131.3522982  58.8070177  63.8497026 130.6173392
  58.0694695  64.9480375 131.3532478  65.7539052  77.1330290 124.0758971
  64.9706574  77.6751971 124.1697196  66.4531797  77.6504270 124.4753213
  69.0635702  62.9424920 126.7193177  69.5604402  62.1894882 126.3994247
  68.2922684  62.9789236 126.1536386  70.1465483  71.6996607 124.2931600
  69.2121762  71.8198070 124.1236304  70.3242152  70.7969074 124.0291610
  65.6470671  65.0842303 126.4464861  65.2768459  64.5313343 127.1345767
  66.1429764  64.4800436 125.8939861  73.5338034  67.5413926 124.8281634
  73.9998487  68.3741918 124.7541937  73.9845535  67.0758908 125.5326893
  71.6014266  73.8857748 121.8267786  71.8774109  73.7714342 122.7361660
  70.7318764  73.4875232 121.7879959  71.5054697  59.9094513 128.8672536
  70.5917777  60.1398740 129.0354743  71.9347799  59.9932957 129.7186568
  68.5710495  77.0612284 122.7315648  69.0998261  76.5504738 122.1185811
  68.8338715  76.7454814 123.5961181  53.6645242  67.6481753 129.1955425
  53.7029342  67.1145344 129.9892543  53.1585535  67.1216959 128.5766402
  61.0436005  62.4946294 132.6917967  61.1077331  63.3561124 132.2795365
  60.9803125  61.8820295 131.9590326  57.2953820  66.3745855 122.2709357
  57.5907261  65.4656534 122.2176410  56.3941856  66.3533595 121.9490359
  60.8248067  64.4501852 128.2536905  60.1034653  65.0637820 128.1144378
  61.6141323  64.9859617 128.1753551  59.0241662  64.0559953 122.3948682
  58.6954368  63.1757332 122.2123788  59.3781032  64.0007622 123.2825071
  62.1383485  64.3432923 122.7624159  62.4779557  64.8718844 122.0402768
  62.5855605  64.6813329 123.5382726  64.8326926  62.7269973 132.2127227
  64.4923746  61.9277786 132.6147907  64.1265932  63.0271684 131.6404061
  65.4843397  59.8119286 130.6654550  66.3069467  59.3379764 130.5433441
  65.7281461  60.5909770 131.1653237  64.1251632  62.8407544 120.9617452
  64.8459994  63.2188797 120.4581169  63.5016936  63.5596421 121.0652430
  68.2682755  63.5452693 121.8975784  68.4846369  64.4277331 121.5964613
  67.7876822  63.1538907 121.1681426  63.0081976  66.5038406 128.4746529
  62.8626557  66.8178710 129.3670811  62.5307180  67.1223307 127.9217428
  64.8678359  63.4940954 128.5227419  64.8539928  62.5982048 128.1859717
  65.5850787  63.5011618 129.1565705  66.7204490  63.9278295 130.5680546
  66.4622268  64.8495365 130.5664876  66.1889530  63.5308729 131.2581010
  57.4827638  69.0443751 131.4134190  56.9381106  69.8203559 131.5454465
  58.3606988  69.3914555 131.2553312  64.2715255  62.3755335 123.7914989
  64.3931166  61.4471981 123.9905876  63.9817297  62.3894021 122.8793304
  67.1406445  60.0610245 126.9281709  67.1628142  60.1249578 125.9733688
  67.5574504  59.2214754 127.1222215  72.6525851  76.3495846 120.4467530
  73.3476756  76.9702539 120.6654844  72.9949001  75.4991197 120.7219908
  74.5517274  73.7995552 121.9754860  75.0768598  74.1382824 121.2504181
  74.4639627  72.8642567 121.7917995  58.7150274  76.0579076 126.3374742
  59.5408294  75.7582848 125.9573385  58.3644326  75.2886698 126.7864530
  56.9158879  73.9765402 127.2963675  56.0790787  73.5487577 127.1147677
  56.8882524  74.1697846 128.2334467  63.2445314  73.9609467 121.8830876
  63.3933434  74.6444932 121.2297549  64.0511757  73.9414557 122.3980332
  60.9997947  69.9874645 122.8891945  60.7543989  69.0836975 123.0872155
  61.1693862  69.9891796 121.9471423  68.6894657  60.8598321 132.2716700
  69.2076601  61.5959348 131.9463189  68.3349790  61.1662315 133.1063460
  60.2693594  65.7203003 120.3878106  59.5762839  65.7947358 119.7318142
  60.0245346  64.9563346 120.9099623  68.9407251  57.2798604 127.7917597
  69.2209005  56.6121793 128.4178024  69.7257858  57.4727700 127.2792261
  66.7440720  76.4557598 119.3542623  66.1714687  77.0747785 118.9013095
  67.3173513  77.0056960 119.8882545  69.9637979  76.7394748 120.4851206
  70.8968652  76.6740310 120.6884081  69.8761192  77.5751015 120.0265738
  72.5925996  76.0560618 117.4455153  72.5139627  75.7220482 118.3390911
  73.4135663  76.5482386 117.4446625  67.1287518  67.7918411 116.6958676
  68.0746623  67.6624619 116.7647094  66.7501763  67.0533073 117.1728104
  73.1009403  59.4574417 126.6585568  72.9034224  59.1489505 127.5428900
  73.7109108  60.1836056 126.7883497  65.3130435  65.7168387 116.6313561
  64.4061891  65.4201500 116.7076275  65.5906416  65.4198205 115.7647847
  56.2308376  67.0374750 127.0812607  55.9111160  66.1840059 126.7886981
  55.6841804  67.2523329 127.8370575  60.0088283  69.7537191 130.7982114
  60.2274293  70.6854299 130.8170148  60.4214057  69.3945166 131.5836918
  66.9292501  60.2605277 122.7857802  66.1193229  59.9152362 123.1613048
  67.6176918  59.9512820 123.3745414  68.8583049  59.3383324 124.4082099
  69.4114088  59.7578777 125.0672122  69.0953136  58.4119072 124.4505055
  64.0829220  62.5755322 116.7725540  64.9448384  62.9010221 117.0321358
  64.2679564  61.7886818 116.2598606  56.0996636  70.6577662 129.0505729
  55.4060107  70.2431615 128.5375683  56.8469627  70.6998198 128.4539148
  72.2361856  61.4483849 123.9160763  71.6560525  62.1068653 123.5338816
  71.9697789  60.6261193 123.5048181  70.6865423  60.8488906 126.1182084
  71.1865201  60.9605441 125.3096402  71.3301031  60.5449959 126.7582892
  58.0133378  70.5895916 126.9271744  57.9904066  70.6883603 125.9753627
  58.3234015  71.4361067 127.2488910  71.0186734  63.6083939 122.9717111
  70.1312589  63.8933590 122.7537306  71.4340723  63.4477702 122.1244388
  74.3701270  63.6330460 126.6871451  75.1461661  64.1226913 126.9596068
  73.6449405  64.0588514 127.1443320  76.8073829  64.3458079 127.7445391
  77.4018320  64.1053815 127.0338700  76.8800413  63.6265210 128.3718928
  70.1629948  73.3728614 117.0665131  70.8665798  73.5778616 117.6822787
  69.4392597  73.9405376 117.3314215  70.9927758  69.1238475 123.1867402
  70.9362959  69.5807026 122.3475034  71.5456100  68.3629160 123.0090244
  74.8032564  64.9128207 124.0117521  74.5469498  64.5124843 124.8425729
  74.1785432  65.6272001 123.8867660  72.0716645  73.8111143 119.1163592
  72.9062249  73.3792341 118.9341066  71.9100988  73.6393157 120.0440486
  71.7262537  70.3143256 120.4819931  71.6711341  70.1487528 119.5408375
  71.1008593  71.0219289 120.6382121  56.5155052  65.5511321 134.3081353
  57.1613916  65.0410275 134.7968578  56.3072203  66.2880002 134.8824778
  65.0358663  59.8151365 120.0605249  65.0237333  60.7593205 120.2173520
  65.9282085  59.6321511 119.7664710  68.8510782  56.4094142 124.3151186
  68.0843178  55.8552629 124.4607868  69.2621487  56.4816011 125.1765338
  73.5330500  80.2648690 119.6298544  72.6967813  80.6023377 119.9507819
  73.3935270  80.1297670 118.6925681  73.4068881  80.1095918 116.8296451
  72.5298347  79.9884718 116.4658698  73.8826634  79.3181996 116.5775340
  71.1087349  81.0494920 120.3878106  70.4156594  81.1239275 119.7318142
  70.8639101  80.2855264 120.9099623  76.1524190  81.0460305 116.6313561
  75.2455645  80.7493417 116.7076275  76.4300171  80.7490123 115.7647847
  74.9222974  77.9047240 116.7725540  75.7842138  78.2302138 117.0321358
  75.1073318  77.1178736 116.2598606  75.8752417  75.1443283 120.0605249
  75.8631087  76.0885123 120.2173520  76.7675839  74.9613428 119.7664710
  47.0081603  25.1188650 105.8973013  46.3343301  25.4220347 106.5057971
  47.3947425  25.9217730 105.5478470  49.0989073  16.9096863 104.4320453
  48.4818243  16.1843691 104.3353506  48.6305561  17.6706223 104.0887528
  50.9738343  22.6974133 107.1712836  51.6689248  23.3180826 107.3900151
  51.3161493  21.8469485 107.4465214  45.0653212  22.8035885 106.0787930
  44.4927179  23.4226072 105.6258402  45.6386005  23.3535247 106.6127852
  48.2850472  23.0873035 107.2096512  49.2181145  23.0218597 107.4129388
  48.1973684  23.9229302 106.7511045  50.9138488  22.4038906 104.1700460
  50.8352120  22.0698769 105.0636218  51.7348155  22.8960674 104.1691932
  48.4842440  19.7206901 103.7910438  49.1878290  19.9256903 104.4068094
  47.7605089  20.2883663 104.0559522  50.3929137  20.1589430 105.8408898
  51.2274741  19.7270629 105.6586373  50.2313480  19.9871444 106.7685793
  59.0213413  30.6759081 115.9364075  59.6591822  30.5565829 115.2327415
  58.9034255  31.6239925 115.9952027  55.8303119  30.6286509 115.8725600
  55.4921630  30.5127574 114.9846134  56.6992887  30.2277675 115.8526606
  51.6889934  32.4821986 111.8622491  51.1254800  32.3911923 111.0938778
  51.5742330  31.6621890 112.3424983  57.2689493  36.1492954 107.1736955
  56.6177473  36.7347034 106.7870969  58.0633856  36.6799148 107.2331993
  51.1945120  33.2382091 107.5724090  51.9675996  32.6911078 107.4336966
  51.5470519  34.1026340 107.7838551  53.5311398  29.3974757 105.2042540
  53.7836919  28.8756278 104.4426003  52.5935957  29.2340902 105.3069223
  58.5754681  28.4010535 113.0117283  59.3617770  27.9829958 112.6607700
  58.8393385  29.3056627 113.1798931  58.7464758  33.8383385 107.7105940
  58.1110591  33.9118012 108.4226844  58.4162165  34.4276984 107.0325019
  63.9763108  28.3385768 113.9150261  64.7088280  27.7684985 114.1488091
  63.2202464  27.9507369 114.3556767  53.2507687  31.3002863 107.4066915
  53.1343945  30.6247766 108.0747999  53.3609947  30.8135237 106.5899068
  55.5939228  30.7613010 111.1113604  55.2297435  30.2343631 111.8226525
  56.4506344  30.3711479 110.9380089  55.2344715  25.7902910 106.1074952
  55.4019117  26.6583146 106.4745423  55.0441884  25.9530191 105.1836242
  57.9920048  34.2519888 117.7740783  57.6920771  35.1544927 117.6656590
  57.6471108  33.9852072 118.6261936  61.3917192  26.7702429 115.4538220
  60.4834069  26.7017837 115.1596981  61.3404788  27.2474374 116.2820046
  55.2133936  28.2460567 107.0921619  55.0933561  28.6917618 107.9307100
  54.5186524  28.5945885 106.5335157  52.9740828  41.0164209 110.7411750
  52.8964858  41.9672034 110.8200231  52.3702471  40.6710081 111.3986677
  60.9119002  28.7182040 107.9201953  61.8236858  28.9509427 107.7449651
  60.4028649  29.3019084 107.3577032  59.5188584  33.7007859 115.3115535
  58.8897447  33.8653573 114.6091603  59.1314246  34.1149468 116.0826499
  63.3977816  34.6362297 112.6659899  62.7128854  35.0161198 112.1156932
  63.4821665  35.2457623 113.3991846  55.0716546  33.4382267 112.5765620
  55.5354892  33.7169970 111.7870242  54.8073344  32.5365711 112.3938711
  54.0085432  29.5605419 109.3855185  54.7109475  30.0126463 109.8529111
  53.6766061  28.9189238 110.0135078  61.7674576  35.1594211 117.4377599
  62.5892019  34.7574398 117.1560281  61.7636979  35.0562445 118.3893715
  69.8580569  31.5032959 113.7862571  69.1044277  30.9340358 113.6306575
  69.9928110  31.4695624 114.7333206  55.2479197  36.3746362 109.4617290
  55.1124872  37.2197897 109.8902138  55.7889009  36.5765639 108.6983224
  48.7008594  33.8921800 110.0345215  49.2133115  34.6865050 110.1850780
  49.3531307  33.1948090 109.9678817  50.5103479  37.0087556 112.1167968
  50.6870107  37.9305521 111.9288952  51.3060312  36.6945975 112.5462348
  51.6334794  38.5265730 118.1178311  52.1842219  38.3982793 117.3455305
  50.7946270  38.8260619 117.7673204  46.6657511  32.2210454 110.8104786
  47.5032733  32.6307462 110.5938494  46.8435779  31.2809896 110.7804980
  58.5621943  29.8885535 106.4988619  58.0468566  30.6590139 106.7377006
  58.2899251  29.2150671 107.1221680  56.1469054  24.7335236 111.5573857
  55.2910650  24.3442086 111.3779496  56.5596006  24.8127196 110.6973643
  63.5356217  32.6417889 108.4341792  62.7585660  32.3029049 107.9896954
  64.2147698  32.6470513 107.7596757  58.3508246  27.7612627 108.3248400
  58.0458382  28.0758776 109.1758543  59.3038688  27.8394047 108.3675733
  56.7954678  33.9202850 109.9741354  56.2676040  33.1855610 109.6614591
  56.2942181  34.6977527 109.7281322  61.7747524  32.1151871 115.0908400
  61.1171198  32.8051132 115.1788529  62.5787923  32.5048303 115.4342387
  60.5852983  30.4696243 113.1412342  61.0984865  31.1026235 113.6434052
  61.2354207  29.8697439 112.7755702  51.8542993  26.6126977 106.3543851
  51.0180305  26.9501664 106.6753125  51.7147762  26.4775957 105.4170988
  54.9407278  31.7383060 102.9776327  54.0334340  31.5072314 103.1767476
  55.4378310  30.9420680 103.1650309  57.8475357  40.4480568 105.8973013
  57.1737056  40.7512264 106.5057971  58.2341179  41.2509648 105.5478470
  57.8468861  29.3437115 110.5173363  58.5940680  29.8558512 110.2080485
  58.1160451  29.0221167 111.3777756  56.1195512  31.8395655 107.5000317
  55.2106731  31.5554688 107.5972787  56.1490595  32.2594734 106.6403624
  61.3514779  35.4502245 111.2691485  60.8977106  34.6093155 111.3256675
  60.7208746  36.0863643 111.6066265  60.2947699  26.3794231 112.4992152
  59.5570455  25.8671617 112.8302395  60.5474472  25.9394612 111.6875429
  59.7947718  37.2878741 112.2041303  60.0870693  37.8483799 111.4853668
  60.3046339  37.5807302 112.9594462  54.6680406  29.4524276 113.6010112
  54.7229015  28.4998112 113.5252589  53.8571608  29.6083715 114.0851411
  55.8171599  33.3804399 104.8388396  55.3791029  32.6640258 104.3794033
  56.5582040  33.6080514 104.2773487  52.6072766  28.0701336 111.3600491
  51.7940631  28.3695506 111.7665683  53.1031760  27.6757024 112.0774974
  54.7581344  38.0659093 113.2934756  54.7157522  38.2919939 112.3643288
  55.6744042  37.8322467 113.4420557  63.9344714  31.6561596 110.8964714
  63.7962613  31.8463192 109.9685903  63.5780933  32.4180979 111.3532765
  63.9614094  33.7238123 115.9075986  64.3950601  33.6313412 116.7559040
  64.6745675  33.6995623 115.2696002  52.8747144  34.9422122 113.0896719
  53.6687743  34.4472442 112.8879294  52.1638837  34.4139985 112.7264424
  57.6941989  37.3240217 117.4409086  57.7479011  37.8931153 118.2086802
  56.8256770  37.4942102 117.0763123  49.1829908  29.0865203 109.1656471
  48.2527496  29.0249659 109.3826434  49.2787380  28.5641156 108.3693113
  64.8229643  33.7661824 118.4408871  65.0165533  34.6707634 118.6868146
  64.7230262  33.3069243 119.2747456  55.4518420  35.5151144 116.7694556
  55.3129506  35.1469928 117.6420494  54.6633017  36.0298783 116.5978514
  56.0466572  40.6160240 108.1120092  56.2218328  40.1448283 108.9265715
  55.3599360  41.2426006 108.3401353  57.0023635  34.8932746 114.1583394
  56.6673468  34.8533516 115.0541043  56.5027581  34.2277462 113.6853804
  59.9382827  32.2388781 104.4320453  59.3211998  31.5135609 104.3353506
  59.4699316  32.9998141 104.0887528  50.6127658  43.7649603 114.8859953
  50.8524256  44.3968127 115.5638971  49.7696854  43.4137643 115.1725312
  51.7281373  26.4574205 103.5541758  50.8510839  26.3363006 103.1904004
  52.2039126  25.6660283 103.3020646  55.1255519  39.5728725 117.2901456
  55.0525691  40.3783697 117.8020761  54.6832913  39.7720691 116.4649478
  54.9145299  38.8100495 110.8004278  54.1312821  39.3522175 110.8942503
  55.6138044  39.3274475 111.1998519  58.2241949  24.6195125 113.4438483
  58.7210649  23.8665087 113.1239554  57.4528931  24.6559441 112.8781693
  66.0771707  30.3235490 115.0856775  66.0661583  31.2060206 114.7150708
  65.2089086  29.9707041 114.8911312  57.5854203  39.4715559 119.4459615
  58.2982175  40.1063024 119.3735517  57.0944232  39.5679425 118.6299617
  59.3071730  33.3766812 111.0176907  58.3728009  33.4968274 110.8481611
  59.4848398  32.4739279 110.7536917  62.6944281  29.2184131 111.5526941
  63.1604733  30.0512123 111.4787244  63.1451782  28.7529113 112.2572199
  60.7620512  35.5627953 108.5513093  61.0380356  35.4484547 109.4606967
  59.8925011  35.1645437 108.5125266  57.3974576  39.8114303 112.1945907
  57.5796971  38.9935959 112.6573659  58.2207562  40.0281996 111.7570797
  57.7316742  38.7382489 109.4560955  58.2604508  38.2274943 108.8431117
  57.9944961  38.4225019 110.3206488  51.0872490  39.7897605 112.2158731
  50.4182865  40.2743733 111.7322771  50.9485359  40.0366826 113.1302110
  55.2277758  41.8241349 118.8141389  55.7796066  41.9872970 119.5790475
  55.5683952  42.4145787 118.1421414  46.4560067  28.0516060 108.9954663
  46.7513508  27.1426739 108.9421717  45.5548103  28.0303800 108.6735666
  58.3646146  39.7723324 115.8005072  58.2397285  38.9713064 115.2916017
  59.0225237  40.2669518 115.3119042  60.4281054  37.5732344 117.4284622
  59.4811390  37.4537696 117.3562948  60.7763827  36.6854842 117.5110883
  48.1847908  25.7330158 109.1193988  47.8560615  24.8527537 108.9369094
  48.5387279  25.6777827 110.0070378  57.4327487  37.3685061 113.6288974
  57.2852450  36.4401768 113.8096544  58.2580981  37.3905151 113.1446049
  51.2989732  26.0203128 109.4869466  51.6385804  26.5489049 108.7648074
  51.7461852  26.3583534 110.2628033  61.0361609  38.1913619 114.7153847
  61.9608157  37.9856481 114.5778298  60.8676913  37.9430020 115.6243188
  53.2857879  24.5177749 107.6862759  54.0066241  24.8959002 107.1826476
  52.6623183  25.2366626 107.7897737  57.4289002  25.2222898 108.6221091
  57.6452616  26.1047536 108.3209919  56.9483069  24.8309112 107.8926733
  60.8256925  38.7099287 110.0715938  60.9993803  38.1445709 109.3189791
  61.3185817  39.5100182 109.8895428  53.4321502  24.0525540 110.5160295
  53.5537413  23.1242186 110.7151183  53.1423544  24.0664226 109.6038611
  66.6796317  31.4735710 111.6906238  67.1227463  30.7243035 111.2925361
  65.8022827  31.4645846 111.3079970  61.8132098  38.0266051 107.1712836
  62.5083002  38.6472744 107.3900151  62.1555248  37.1761402 107.4465214
  63.7123521  35.4765757 108.7000167  64.2374845  35.8153029 107.9749487
  63.6245874  34.5412772 108.5163302  55.3964182  41.5437740 113.0595420
  54.9569172  41.0514119 113.7528277  56.1472299  41.0010708 112.8187496
  47.8756521  37.7349281 113.0620048  48.7014541  37.4353053 112.6818692
  47.5250573  36.9656903 113.5109837  52.8438054  37.0875749 115.1317722
  52.2218063  36.4246454 114.8319950  53.5142921  37.1136881 114.4491370
  46.0765126  35.6535607 114.0208982  45.2397034  35.2257782 113.8392983
  46.0488771  35.8468051 114.9579773  52.4051561  35.6379672 108.6076183
  52.5539681  36.3215137 107.9542855  53.2118004  35.6184762 109.1225638
  65.0233499  35.3788068 121.5626115  64.7318307  35.7418049 122.3989576
  64.4105630  34.6655076 121.3839447  66.2229181  32.9440948 114.0828685
  67.0576073  33.3830752 114.2466246  66.3588310  32.4679601 113.2636931
  50.1604194  31.6644850 109.6137251  49.9150236  30.7607180 109.8117462
  50.3300108  31.6662000 108.6716729  49.4299841  27.3973208 107.1123413
  48.7369086  27.4717563 106.4563449  49.1851593  26.6333551 107.6344930
  55.9046966  38.1327803 106.0787930  55.3320933  38.7517990 105.6258402
  56.4779760  38.6827164 106.6127852  59.1244226  38.4164953 107.2096512
  60.0574899  38.3510515 107.4129388  59.0367439  39.2521220 106.7511045
  61.7532243  37.7330823 104.1700460  61.6745874  37.3990687 105.0636218
  62.5741910  38.2252591 104.1691932  64.4510434  30.5992563 117.3776778
  64.4186754  29.6608563 117.5636462  65.0611058  30.6776599 116.6442603
  56.2893765  29.4688616 103.4203982  57.2352870  29.3394824 103.4892400
  55.9108010  28.7303277 103.8973411  70.2686984  31.6608569 116.5182815
  70.9990372  31.3993858 117.0790519  69.6593929  30.9237291 116.5584883
  68.3502281  29.8016432 117.1157266  67.6235444  29.6672397 116.5073758
  67.9349568  30.1093261 117.9213984  54.4736682  27.3938592 103.3558868
  53.5668137  27.0971705 103.4321581  54.7512663  27.0968410 102.4893154
  56.0898748  21.9375482 109.5103109  55.2799476  21.5922567 109.8858355
  56.7783165  21.6283025 110.0990721  53.2435467  24.2525527 103.4970847
  54.1054631  24.5780425 103.7566664  53.4285811  23.4657023 102.9843913
  61.3968103  23.1254054 110.6406070  60.8166772  23.7838858 110.2584122
  61.1304036  22.3031398 110.2293487  60.1792981  25.2854144 109.6962418
  59.2918836  25.5703795 109.4782613  60.5946970  25.1247907 108.8489695
  63.5307517  25.3100665 113.4116757  64.3067907  25.7997117 113.6841374
  62.8055651  25.7358719 113.8688627  65.9680076  26.0228284 114.4690698
  66.5624567  25.7824020 113.7584006  66.0406660  25.3035415 115.0964234
  48.1877232  39.8661895 114.7833863  48.0531699  39.1062296 114.2171861
  47.7709294  40.5902795 114.3162652  59.3236195  35.0498819 103.7910438
  60.0272045  35.2548821 104.4068094  58.5998843  35.6175581 104.0559522
  60.1534005  30.8008680 109.9112708  60.0969206  31.2577231 109.0720341
  60.7062347  30.0399365 109.7335551  63.9638811  26.5898412 110.7362828
  63.7075745  26.1895047 111.5671035  63.3391679  27.3042206 110.6112967
  68.2751149  29.3294485 113.2434119  67.7150707  29.3987674 114.0165681
  67.6694652  29.1535470 112.5233615  51.3446357  40.7631212 114.9952305
  51.2278742  41.7076645 114.8930996  50.5238804  40.4604774 115.3838105
  61.2322892  35.4881348 105.8408898  62.0668496  35.0562546 105.6586373
  61.0707235  35.3163362 106.7685793  60.8868784  31.9913461 107.2065237
  60.8317588  31.8257733 106.2653682  60.2614839  32.6989494 107.3627427
  54.1964910  21.4921570 106.7850556  54.1843579  22.4363410 106.9418827
  55.0888331  21.3091716 106.4910017  52.3700872  41.4159474 118.2108234
  53.2728118  41.4483084 118.5274729  52.1438242  40.4859925 118.2254570
  54.1254474  40.1690461 114.8718313  53.1750105  40.1692322 114.7582685
  54.4286960  39.4223195 114.3554347  69.8607167  46.0050999 115.9364075
  70.4985577  45.8857746 115.2327415  69.7428010  46.9531843 115.9952027
  66.6696873  45.9578427 115.8725600  66.3315385  45.8419492 114.9846134
  67.5386641  45.5569592 115.8526606  62.5283689  47.8113904 111.8622491
  61.9648554  47.7203840 111.0938778  62.4136084  46.9913808 112.3424983
  67.1516656  47.1113279 121.8311805  67.1405297  46.7166077 120.9592309
  67.3137296  46.3779351 122.4245577  60.0748121  49.3065095 114.7006711
  60.8669413  48.9655920 114.2853010  60.3144771  49.4160070 115.6208864
  68.1083248  51.4784871 107.1736955  67.4571227  52.0638952 106.7870969
  68.9027611  52.0091066 107.2331993  62.0338875  48.5674008 107.5724090
  62.8069751  48.0202995 107.4336966  62.3864274  49.4318258 107.7838551
  63.8723917  49.8950391 120.7790989  63.5813783  50.7996021 120.6637655
  64.5080902  49.9366918 121.4935059  64.7980124  47.2727239 117.3692349
  65.3943697  47.0483262 116.6549312  64.8555096  46.5311985 117.9717797
  64.3705153  44.7266674 105.2042540  64.6230673  44.2048196 104.4426003
  63.4329712  44.5632820 105.3069223  69.4148435  43.7302453 113.0117283
  70.2011525  43.3121876 112.6607700  69.6787140  44.6348545 113.1798931
  69.5858513  49.1675303 107.7105940  68.9504346  49.2409930 108.4226844
  69.2555919  49.7568902 107.0325019  74.8156863  43.6677686 113.9150261
  75.5482035  43.0976903 114.1488091  74.0596218  43.2799286 114.3556767
  64.0901441  46.6294780 107.4066915  63.9737700  45.9539684 108.0747999
  64.2003701  46.1427154 106.5899068  66.4332982  46.0904928 111.1113604
  66.0691190  45.5635549 111.8226525  67.2900098  45.7003397 110.9380089
  72.3382283  37.3799260 118.3744870  72.0065608  38.2494671 118.1506085
  71.7427896  37.0635544 119.0538900  66.0738469  41.1194827 106.1074952
  66.2412872  41.9875064 106.4745423  65.8835638  41.2822109 105.1836242
  68.8313803  49.5811806 117.7740783  68.5314526  50.4836845 117.6656590
  68.4864862  49.3143989 118.6261936  62.2826284  46.0325603 113.8077487
  61.3576780  45.9001817 114.0155179  62.5310697  46.8119822 114.3047430
  72.2310946  42.0994346 115.4538220  71.3227824  42.0309755 115.1596981
  72.1798542  42.5766291 116.2820046  66.0527690  43.5752485 107.0921619
  65.9327315  44.0209535 107.9307100  65.3580279  43.9237802 106.5335157
  59.6435095  45.6758877 114.6421276  59.7727476  45.9293355 115.5560688
  58.9632546  46.2686585 114.3225931  63.8134582  56.3456126 110.7411750
  63.7358612  57.2963952 110.8200231  63.2096226  56.0001999 111.3986677
  66.3051812  43.5183992 123.3973117  65.5285146  44.0777912 123.3875982
  66.9442375  44.0040775 123.9187988  74.0972593  40.3010785 117.2316094
  73.4546973  40.5943318 116.5855889  73.5927521  40.1863705 118.0369291
  71.7512756  44.0473958 107.9201953  72.6630612  44.2801345 107.7449651
  71.2422403  44.6311002 107.3577032  64.5598184  46.3269445 122.9591084
  65.3012869  46.8654489 122.6825908  63.8535170  46.9535734 123.1162636
  70.0353524  48.4698586 121.5563246  70.4436880  48.0280996 120.8117878
  69.3130786  47.8951213 121.8097439  66.3884594  43.4071193 118.9296803
  67.2345789  43.8310606 119.0731452  66.3283232  42.7504817 119.6235366
  70.3582339  49.0299776 115.3115535  69.7291201  49.1945490 114.6091603
  69.9708001  49.4441386 116.0826499  74.2371571  49.9654214 112.6659899
  73.5522609  50.3453116 112.1156932  74.3215420  50.5749541 113.3991846
  69.5384039  41.0675561 120.5877976  69.2944971  41.8217621 120.0512252
  69.8143970  41.4460908 121.4225224  71.4922502  47.6114173 119.2655242
  71.7039397  48.2545933 118.5889623  71.4452250  46.7776490 118.7977172
  69.0948731  40.2231994 116.1691814  68.2333210  40.5213247 116.4608552
  69.1211166  40.4402393 115.2372847  65.9110301  48.7674184 112.5765620
  66.3748646  49.0461887 111.7870242  65.6467099  47.8657629 112.3938711
  62.8034382  48.3145666 115.5145383  63.3735739  48.7432934 114.8762868
  63.3942493  48.0328251 116.2129569  64.8479187  44.8897337 109.3855185
  65.5503230  45.3418380 109.8529111  64.5159815  44.2481156 110.0135078
  63.2959548  43.4809093 123.7606394  62.6658209  44.1625374 123.9941791
  63.1895636  43.3692175 122.8159533  58.5904521  43.1480889 114.6872319
  57.8003575  43.4038418 114.2112429  59.0815768  43.9629227 114.7924359
  72.6068330  50.4886129 117.4377599  73.4285774  50.0866316 117.1560281
  72.6030733  50.3854363 118.3893715  60.5419266  43.5125469 111.6455795
  59.7450429  43.6244163 112.1639291  60.3144858  43.8512121 110.7796686
  66.3724934  50.0370172 119.5938310  66.4369366  50.4990579 120.4296482
  65.6635857  49.4067537 119.7220620  56.8742224  43.4011380 117.1187309
  57.1250262  44.2858390 117.3844885  57.4101772  43.2215981 116.3462401
  80.6974323  46.8324877 113.7862571  79.9438032  46.2632275 113.6306575
  80.8321864  46.7987542 114.7333206  66.0872951  51.7038279 109.4617290
  65.9518626  52.5489815 109.8902138  66.6282764  51.9057557 108.6983224
  59.5402349  49.2213717 110.0345215  60.0526869  50.0156968 110.1850780
  60.1925061  48.5240008 109.9678817  61.3497233  52.3379474 112.1167968
  61.5263862  53.2597438 111.9288952  62.1454067  52.0237893 112.5462348
  65.4908252  39.1987738 123.7151902  66.2317965  39.7994892 123.6356364
  65.7226175  38.4565376 123.1569945  60.6349590  44.3844106 121.9930132
  60.5203105  43.4829363 122.2937231  59.7794108  44.6307802 121.6414948
  67.7141428  52.3261846 123.5917632  67.2705282  51.5398225 123.2738537
  68.3758641  52.5140996 122.9261523  62.4728549  53.8557648 118.1178311
  63.0235974  53.7274711 117.3455305  61.6340025  54.1552537 117.7673204
  69.8122666  52.6064646 121.6199034  69.7941141  53.4273527 121.1279303
  70.7342586  52.4818721 121.8449175  66.2695720  50.1208775 122.4622542
  66.8024057  49.3597064 122.2321850  65.7409801  49.8282427 123.2046696
  69.4365415  35.2268841 117.9916184  69.0929684  36.1170483 117.9155294
  69.8044377  35.0370499 117.1285769  57.5051265  47.5502372 110.8104786
  58.3426487  47.9599380 110.5938494  57.6829533  46.6101814 110.7804980
  69.4015698  45.2177452 106.4988619  68.8862321  45.9882057 106.7377006
  69.1293006  44.5442589 107.1221680  66.9862809  40.0627153 111.5573857
  66.1304405  39.6734004 111.3779496  67.3989760  40.1419114 110.6973643
  68.5161955  37.5973496 115.9565417  68.0126751  37.5603632 115.1433222
  68.8092562  38.5066239 116.0162074  64.7604841  37.6812226 114.9631599
  65.6257838  37.4855035 114.6037488  64.8282350  37.4522578 115.8900955
  74.3749972  47.9709807 108.4341792  73.5979414  47.6320967 107.9896954
  75.0541453  47.9762430 107.7596757  69.1902001  43.0904545 108.3248400
  68.8852136  43.4050694 109.1758543  70.1432443  43.1685964 108.3675733
  67.6348433  49.2494768 109.9741354  67.1069794  48.5147527 109.6614591
  67.1335935  50.0269444 109.7281322  72.6141279  47.4443788 115.0908400
  71.9564953  48.1343050 115.1788529  73.4181678  47.8340220 115.4342387
  62.3667160  39.9114434 112.3347965  62.9410912  39.6889616 111.6021158
  62.9538143  39.9803129 113.0876567  71.4246737  45.7988161 113.1412342
  71.9378619  46.4318153 113.6434052  72.0747961  45.1989357 112.7755702
  62.6936747  41.9418895 106.3543851  61.8574060  42.2793582 106.6753125
  62.5541517  41.8067875 105.4170988  64.6689828  36.7855683 111.0623035
  64.0154240  36.4704700 110.4379650  64.6270302  36.1631423 111.7882858
  65.7801033  47.0674978 102.9776327  64.8728094  46.8364232 103.1767476
  66.2772065  46.2712597 103.1650309  68.6869112  55.7772485 105.8973013
  68.0130810  56.0804182 106.5057971  69.0734934  56.5801566 105.5478470
  67.9027568  43.2737617 115.3870683  66.9850130  43.4952564 115.2292371
  68.3187712  43.3483927 114.5282390  68.6862616  44.6729032 110.5173363
  69.4334435  45.1850429 110.2080485  68.9554206  44.3513085 111.3777756
  66.9589266  47.1687573 107.5000317  66.0500485  46.8846606 107.5972787
  66.9884350  47.5886652 106.6403624  72.1908534  50.7794162 111.2691485
  71.7370861  49.9385072 111.3256675  71.5602500  51.4155561 111.6066265
  71.1341453  41.7086149 112.4992152  70.3964210  41.1963535 112.8302395
  71.3868227  41.2686530 111.6875429  70.6341473  52.6170659 112.2041303
  70.9264447  53.1775716 111.4853668  71.1440093  52.9099220 112.9594462
  71.2353080  34.4862401 113.0933921  71.5411957  33.6259764 112.8059836
  71.9605685  35.0780021 112.8932915  57.5277437  44.8893087 111.4815519
  57.3301836  44.2962448 110.7566586  56.9724101  44.5845297 112.1991458
  65.5074160  44.7816194 113.6010112  65.5622770  43.8290030 113.5252589
  64.6965362  44.9375633 114.0851411  66.6565354  48.7096317 104.8388396
  66.2184784  47.9932176 104.3794033  67.3975795  48.9372431 104.2773487
  63.4466520  43.3993253 111.3600491  62.6334386  43.6987424 111.7665683
  63.9425514  43.0048942 112.0774974  65.5975098  53.3951010 113.2934756
  65.5551277  53.6211857 112.3643288  66.5137797  53.1614385 113.4420557
  69.0440732  43.8635078 120.1915385  69.3990120  44.0906551 121.0509851
  69.6912863  44.1953455 119.5692640  74.7738469  46.9853514 110.8964714
  74.6356367  47.1755110 109.9685903  74.4174688  47.7472897 111.3532765
  62.9380595  40.9711609 116.9761726  63.5779974  40.8300368 116.2784690
  62.1058125  40.6846122 116.6000328  74.8007848  49.0530041 115.9075986
  75.2344355  48.9605330 116.7559040  75.5139429  49.0287541 115.2696002
  63.7140899  50.2714039 113.0896719  64.5081497  49.7764359 112.8879294
  63.0032591  49.7431902 112.7264424  68.5335743  52.6532135 117.4409086
  68.5872766  53.2223071 118.2086802  67.6650525  52.8234020 117.0763123
  60.0223662  44.4157121 109.1656471  59.0921250  44.3541576 109.3826434
  60.1181134  43.8933074 108.3693113  59.9409211  40.9411934 111.7534713
  60.2016029  41.8557267 111.6443874  60.7626384  40.4736376 111.9031326
  61.4134137  42.3549691 118.9233538  62.0857190  42.1467053 118.2746186
  60.5863923  42.1571777 118.4838770  75.6623398  49.0953741 118.4408871
  75.8559288  49.9999552 118.6868146  75.5624016  48.6361160 119.2747456
  67.3159709  38.9811632 120.9399198  66.6687624  39.6801582 120.8463675
  68.0860724  39.4147776 121.3075447  70.7238507  49.2460484 124.0149752
  70.5724013  49.0171036 123.0979835  70.7143186  50.2031086 124.0281097
  67.4923843  46.8192397 118.9996018  68.4215903  46.9703556 118.8264985
  67.0714873  46.9076418 118.1444665  66.2912175  50.8443061 116.7694556
  66.1523260  50.4761846 117.6420494  65.5026771  51.3590701 116.5978514
  66.8860327  55.9452158 108.1120092  67.0612082  55.4740201 108.9265715
  66.1993115  56.5717924 108.3401353  67.8417390  50.2224664 114.1583394
  67.5067223  50.1825434 115.0541043  67.3421336  49.5569380 113.6853804
  61.8161634  45.6292294 119.6835975  61.6781432  44.8972533 120.2847514
  62.7266557  45.5401194 119.4020162  70.7776582  47.5680698 104.4320453
  70.1605752  46.8427526 104.3353506  70.3093070  48.3290059 104.0887528
  64.4443935  45.3412253 119.1719654  65.1543553  44.7005445 119.1306273
  64.4013243  45.5925148 120.0945835  72.4330713  52.2779607 122.0926234
  72.3743259  51.5938827 121.4256817  72.8350232  53.0198597 121.6406860
  63.1572869  42.3277471 120.9915294  62.6210226  41.8768210 121.6436890
  62.5689577  42.4623380 120.2485758  61.4521412  59.0941520 114.8859953
  61.6918010  59.7260045 115.5638971  60.6090609  58.7429561 115.1725312
  62.5675127  41.7866123 103.5541758  61.6904594  41.6654923 103.1904004
  63.0432881  40.9952201 103.3020646  72.4348121  50.2419191 120.3240213
  71.5474899  49.9045112 120.4466612  73.0046672  49.5102222 120.5608979
  54.0877268  46.5743282 113.6483265  54.7748307  46.2605012 113.0604280
  53.9325396  47.4784647 113.3750516  58.8911990  41.4633479 118.0768288
  58.8070178  40.8559148 117.3418698  58.0694696  41.9542497 118.0777785
  65.9649274  54.9020643 117.2901456  65.8919445  55.7075614 117.8020761
  65.5226667  55.1012609 116.4649478  65.7539054  54.1392413 110.8004278
  64.9706575  54.6814093 110.8942503  66.4531799  54.6566393 111.1998519
  69.0635704  39.9487042 113.4438483  69.5604403  39.1957005 113.1239554
  68.2922685  39.9851359 112.8781693  76.9165461  45.6527408 115.0856775
  76.9055337  46.5352123 114.7150708  76.0482840  45.2998959 114.8911312
  68.4247957  54.8007477 119.4459615  69.1375930  55.4354942 119.3735517
  67.9337986  54.8971343 118.6299617  70.1465484  48.7058730 111.0176907
  69.2121763  48.8260192 110.8481611  70.3242153  47.8031196 110.7536917
  65.6470672  42.0904425 113.1710168  65.2768460  41.5375466 113.8591074
  66.1429765  41.4862559 112.6185168  73.5338036  44.5476049 111.5526941
  73.9998488  45.3804041 111.4787244  73.9845536  44.0821030 112.2572199
  63.4759871  52.5501920 120.2665186  64.1769330  53.1838403 120.4194580
  63.0054986  52.8916652 119.5060825  71.6014267  50.8919870 108.5513093
  71.8774111  50.7776465 109.4606967  70.7318766  50.4937355 108.5125266
  71.5054698  36.9156636 115.5917842  70.5917778  37.1460863 115.7600049
  71.9347800  36.9995080 116.4431875  71.2761157  45.1046528 118.0917736
  70.6232607  45.3522435 117.4370189  71.6541537  44.2910666 117.7580214
  68.2368331  55.1406221 112.1945907  68.4190725  54.3227877 112.6573659
  69.0601317  55.3573913 111.7570797  68.5710496  54.0674406 109.4560955
  69.0998263  53.5566861 108.8431117  68.8338716  53.7516936 110.3206488
  67.3248730  45.8466339 124.5783773  66.6489367  45.7460468 125.2486149
  68.1476364  45.6905553 125.0419771  59.0727589  52.0838275 117.1996289
  59.6581026  51.3381963 117.3324193  58.8752427  52.3942232 118.0832953
  61.9266244  55.1189523 112.2158731  61.2576619  55.6035650 111.7322771
  61.7879114  55.3658743 113.1302110  53.6645244  44.6543876 115.9200732
  53.7029343  44.1207466 116.7137850  53.1585537  44.1279081 115.3011709
  66.0671513  57.1533266 118.8141389  66.6189821  57.3164888 119.5790475
  66.4077706  57.7437704 118.1421414  61.0436006  39.5008416 119.4163274
  61.1077333  40.3623247 119.0040672  60.9803126  38.8882418 118.6835633
  60.5188279  41.5731549 123.0636308  61.1460317  41.1908626 123.6773833
  59.6616197  41.3545751 123.4292001  70.9182387  51.9794524 124.6690044
  71.4622291  52.5924482 124.1744999  70.3369232  52.5374102 125.1857057
  57.2953821  43.3807978 108.9954663  57.5907262  42.4718656 108.9421717
  56.3941857  43.3595717 108.6735666  69.2039900  55.1015242 115.8005072
  69.0791040  54.3004982 115.2916017  69.8618991  55.5961435 115.3119042
  60.8248068  41.4563974 114.9782212  60.1034654  42.0699942 114.8389685
  61.6141324  41.9921739 114.8998858  71.2674808  52.9024262 117.4284622
  70.3205144  52.7829613 117.3562948  71.6157582  52.0146760 117.5110883
  63.6274382  38.7918401 121.2522864  64.1508784  39.0380697 122.0149173
  63.4086715  39.6238436 120.8326001  59.0241663  41.0622075 109.1193988
  58.6954369  40.1819454 108.9369094  59.3781034  41.0069744 110.0070378
  68.2721242  52.6976978 113.6288974  68.1246204  51.7693686 113.8096544
  69.0974735  52.7197069 113.1446049  62.1383486  41.3495045 109.4869466
  62.4779559  41.8780967 108.7648074  62.5855607  41.6875451 110.2628033
  71.8755364  53.5205537 114.7153847  72.8001911  53.3148398 114.5778298
  71.7070667  53.2721938 115.6243188  64.8326927  39.7332096 118.9372534
  64.4923747  38.9339909 119.3393214  64.1265933  40.0333807 118.3649367
  65.4843399  36.8181408 117.3899857  66.3069468  36.3441887 117.2678747
  65.7281462  37.5971892 117.8898543  64.1251633  39.8469667 107.6862759
  64.8459996  40.2250920 107.1826476  63.5016937  40.5658544 107.7897737
  68.2682756  40.5514816 108.6221091  68.4846370  41.4339454 108.3209919
  67.7876823  40.1601029 107.8926733  63.0081977  43.5100529 115.1991836
  62.8626558  43.8240832 116.0916117  62.5307181  44.1285429 114.6462734
  64.8678360  40.5003077 115.2472725  64.8539929  39.6044170 114.9105023
  65.5850788  40.5073741 115.8811011  66.7204491  40.9340417 117.2925853
  66.4622269  41.8557488 117.2910183  66.1889531  40.5370852 117.9826317
  71.6650680  54.0391204 110.0715938  71.8387557  53.4737627 109.3189791
  72.1579571  54.8392099 109.8895428  57.4827640  46.0505873 118.1379497
  56.9381108  46.8265681 118.2699771  58.3606989  46.3976678 117.9798618
  64.2715256  39.3817457 110.5160295  64.3931167  38.4534104 110.7151183
  63.9817299  39.3956143 109.6038611  67.1406447  37.0672368 113.6527015
  67.1628143  37.1311701 112.6978995  67.5574506  36.2276876 113.8467521
  77.5190071  46.8027627 111.6906238  77.9621217  46.0534953 111.2925361
  76.6416581  46.7937764 111.3079970  72.6525852  53.3557969 107.1712836
  73.3476757  53.9764661 107.3900151  72.9949002  52.5053320 107.4465214
  58.2693661  45.1775770 121.0309654  57.5275398  45.3258405 121.6174284
  57.9486406  45.4384035 120.1676403  74.5517275  50.8057674 108.7000167
  75.0768600  51.1444947 107.9749487  74.4639628  49.8704690 108.5163302
  66.2137324  54.7191748 120.8290044  66.5224451  54.4740895 121.7012743
  67.0112806  54.9238386 120.3408914  66.2357936  56.8729658 113.0595420
  65.7962926  56.3806036 113.7528277  66.9866053  56.3302625 112.8187496
  58.7150275  53.0641198 113.0620048  59.5408295  52.7644970 112.6818692
  58.3644327  52.2948821 113.5109837  63.6831808  52.4167667 115.1317722
  63.0611818  51.7538372 114.8319950  64.3536675  52.4428799 114.4491370
  56.9158880  50.9827525 114.0208982  56.0790789  50.5549699 113.8392983
  56.8882526  51.1759968 114.9579773  63.7556336  40.8949455 124.7250228
  63.8044491  41.7711578 124.3427998  64.2978850  40.3526848 124.1521871
  74.2411182  51.4390578 124.0051365  73.4506725  51.4214717 123.4655864
  74.0044536  51.9778872 124.7600402  74.3609057  48.2883044 121.3184094
  74.4107061  48.1233052 122.2599616  74.2522980  47.4210303 120.9281974
  63.2445315  50.9671590 108.6076183  63.3933436  51.6507054 107.9542855
  64.0511759  50.9476680 109.1225638  71.6512819  44.2713972 122.6343400
  72.5522682  44.1320437 122.3427398  71.7260793  44.4368427 123.5741578
  65.9855624  41.6480827 121.4796587  65.1158934  41.9414393 121.2079175
  66.2215105  42.2321272 122.2003850  75.8627253  50.7079986 121.5626115
  75.5712062  51.0709966 122.3989576  75.2499385  49.9946994 121.3839447
  77.0622936  48.2732866 114.0828685  77.8969827  48.7122670 114.2466246
  77.1982064  47.7971519 113.2636931  74.1114442  45.8312600 120.0306173
  74.5868563  46.0240247 119.2225025  73.1880007  45.8871786 119.7849557
  60.9997948  46.9936768 109.6137251  60.7543990  46.0899098 109.8117462
  61.1693863  46.9953918 108.6716729  68.6894658  37.8660444 118.9962007
  69.2076602  38.6021471 118.6708496  68.3349791  38.1724437 119.8308766
  60.2693596  42.7265125 107.1123413  59.5762841  42.8009480 106.4563449
  60.0245348  41.9625469 107.6344930  68.9407252  34.2860727 114.5162904
  69.2209006  33.6183916 115.1423330  69.7257859  34.4789822 114.0037567
  66.7440721  53.4619720 106.0787930  66.1714688  54.0809908 105.6258402
  67.3173514  54.0119082 106.6127852  72.8116111  42.7078361 118.2634479
  73.7633534  42.8076458 118.2846703  72.6419561  41.9156629 118.7732563
  70.8330490  39.7933944 118.4493880  70.2380422  40.0738957 117.7540368
  70.5480187  40.2827845 119.2210621  69.9637981  53.7456871 107.2096512
  70.8968654  53.6802432 107.4129388  69.8761193  54.5813137 106.7511045
  72.5925997  53.0622741 104.1700460  72.5139629  52.7282605 105.0636218
  73.4135664  53.5544509 104.1691932  75.2904188  45.9284480 117.3776778
  75.2580509  44.9900481 117.5636462  75.9004812  46.0068517 116.6442603
  67.1287519  44.7980533 103.4203982  68.0746624  44.6686741 103.4892400
  66.7501764  44.0595195 103.8973411  75.4398677  42.7195524 117.4235062
  74.9237726  41.9353980 117.2364990  76.3238625  42.3914240 117.5881581
  73.1009404  36.4636539 113.3830874  72.9034225  36.1551627 114.2674206
  73.7109109  37.1898178 113.5128804  81.1080738  46.9900487 116.5182815
  81.8384127  46.7285775 117.0790519  80.4987684  46.2529209 116.5584883
  79.1896035  45.1308350 117.1157266  78.4629199  44.9964315 116.5073758
  78.7743322  45.4385178 117.9213984  67.0126212  48.8498279 124.8804639
  67.9329221  49.0276878 125.0744686  66.9775795  47.9054325 124.7284339
  65.3130436  42.7230510 103.3558868  64.4061892  42.4263622 103.4321581
  65.5906417  42.4260328 102.4893154  56.2308377  44.0436873 113.8057914
  55.9111161  43.1902181 113.5132288  55.6841805  44.2585451 114.5615881
  60.0088284  46.7599314 117.5227421  60.2274294  47.6916422 117.5415454
  60.4214058  46.4007288 118.3082224  66.9292502  37.2667399 109.5103109
  66.1193230  36.9214484 109.8858355  67.6176919  36.9574943 110.0990721
  68.8583050  36.3445446 111.1327406  69.4114089  36.7640900 111.7917429
  69.0953137  35.4181194 111.1750362  64.0829221  39.5817445 103.4970847
  64.9448385  39.9072343 103.7566664  64.2679565  38.7948941 102.9843913
  56.0996637  47.6639785 115.7751036  55.4060108  47.2493737 115.2620990
  56.8469628  47.7060321 115.1784455  72.2361858  38.4545971 110.6406070
  71.6560527  39.1130775 110.2584122  71.9697790  37.6323316 110.2293487
  70.6865424  37.8551029 112.8427390  71.1865202  37.9667564 112.0341709
  71.3301032  37.5512082 113.4828199  64.7447420  45.7629659 125.7295231
  64.2614501  46.5630019 125.9359120  64.8308359  45.7737603 124.7762675
  58.0133379  47.5958038 113.6517051  57.9904067  47.6945726 112.6998934
  58.3234016  48.4423189 113.9734217  60.6720757  49.6534193 117.7663665
  61.6264011  49.6218136 117.6993597  60.4733281  49.1924817 118.5813891
  61.2620139  48.2235309 120.3334463  62.0813028  48.7179388 120.3569300
  61.5356947  47.3067278 120.3052030  71.0186736  40.6146062 109.6962418
  70.1312591  40.8995712 109.4782613  71.4340725  40.4539825 108.8489695
  74.3701272  40.6392583 113.4116757  75.1461662  41.1289035 113.6841374
  73.6449406  41.0650637 113.8688627  76.8073830  41.3520202 114.4690698
  77.4018321  41.1115938 113.7584006  76.8800414  40.6327332 115.0964234
  59.0270986  55.1953813 114.7833863  58.8925454  54.4354214 114.2171861
  58.6103048  55.9194713 114.3162652  70.1629949  50.3790736 103.7910438
  70.8665799  50.5840739 104.4068094  69.4392598  50.9467498 104.0559522
  70.9927759  46.1300598 109.9112708  70.9362961  46.5869149 109.0720341
  71.5456102  45.3691282 109.7335551  74.8032565  41.9190329 110.7362828
  74.5469499  41.5186965 111.5671035  74.1785433  42.6334123 110.6112967
  79.1144903  44.6586403 113.2434119  78.5544461  44.7279592 114.0165681
  78.5088406  44.4827387 112.5233615  62.1840112  56.0923130 114.9952305
  62.0672496  57.0368562 114.8930996  61.3632558  55.7896691 115.3838105
  72.0716646  50.8173266 105.8408898  72.9062250  50.3854464 105.6586373
  71.9100989  50.6455279 106.7685793  71.7262539  47.3205379 107.2065237
  71.6711342  47.1549650 106.2653682  71.1008594  48.0281412 107.3627427
  56.5155054  42.5573443 121.0326660  57.1613917  42.0472397 121.5213885
  56.3072205  43.2942125 121.6070085  69.0408446  49.6254291 126.5318800
  69.9099605  49.7994943 126.1705435  68.5615197  50.4448708 126.4094530
  65.0358664  36.8213488 106.7850556  65.0237334  37.7655328 106.9418827
  65.9282086  36.6383633 106.4910017  63.2094626  56.7451392 118.2108234
  64.1121873  56.7775002 118.5274729  62.9831996  55.8151843 118.2254570
  64.9648228  55.4982378 114.8718313  64.0143859  55.4984240 114.7582685
  65.2680714  54.7515113 114.3554347  68.8510784  33.4156265 111.0396493
  68.0843179  32.8614751 111.1853175  69.2621488  33.4878133 111.9010644
  80.7000922  61.3342917 115.9364075  81.3379331  61.2149664 115.2327415
  80.5821764  62.2823761 115.9952027  77.5090628  61.2870345 115.8725600
  77.1709139  61.1711409 114.9846134  78.3780396  60.8861510 115.8526606
  73.3677443  63.1405821 111.8622491  72.8042309  63.0495758 111.0938778
  73.2529839  62.3205726 112.3424983  77.9910411  62.4405196 121.8311805
  77.9799052  62.0457995 120.9592309  78.1531050  61.7071269 122.4245577
  70.9141875  64.6357013 114.7006711  71.7063167  64.2947837 114.2853010
  71.1538526  64.7451988 115.6208864  78.9477002  66.8076789 107.1736955
  78.2964982  67.3930869 106.7870969  79.7421365  67.3382984 107.2331993
  72.8732629  63.8965926 107.5724090  73.6463505  63.3494913 107.4336966
  73.2258028  64.7610175 107.7838551  74.7117672  65.2242308 120.7790989
  74.4207538  66.1287939 120.6637655  75.3474656  65.2658836 121.4935059
  75.6373879  62.6019157 117.3692349  76.2337451  62.3775179 116.6549312
  75.6948850  61.8603902 117.9717797  75.2098907  60.0558592 105.2042540
  75.4624428  59.5340113 104.4426003  74.2723466  59.8924738 105.3069223
  80.2542190  59.0594371 113.0117283  81.0405279  58.6413794 112.6607700
  80.5180894  59.9640463 113.1798931  80.4252267  64.4967221 107.7105940
  79.7898100  64.5701847 108.4226844  80.0949674  65.0860820 107.0325019
  85.6550617  58.9969604 113.9150261  86.3875789  58.4268821 114.1488091
  84.8989973  58.6091204 114.3556767  74.9295196  61.9586698 107.4066915
  74.8131454  61.2831601 108.0747999  75.0397456  61.4719072 106.5899068
  77.2726737  61.4196845 111.1113604  76.9084944  60.8927466 111.8226525
  78.1293853  61.0295314 110.9380089  83.1776037  52.7091178 118.3744870
  82.8459362  53.5786589 118.1506085  82.5821651  52.3927462 119.0538900
  76.9132224  56.4486745 106.1074952  77.0806626  57.3166981 106.4745423
  76.7229393  56.6114027 105.1836242  79.6707557  64.9103724 117.7740783
  79.3708280  65.8128763 117.6656590  79.3258617  64.6435907 118.6261936
  73.1220038  61.3617521 113.8077487  72.1970535  61.2293735 114.0155179
  73.3704452  62.1411740 114.3047430  83.0704701  57.4286264 115.4538220
  82.1621578  57.3601672 115.1596981  83.0192297  57.9058209 116.2820046
  76.8921445  58.9044402 107.0921619  76.7721070  59.3501453 107.9307100
  76.1974033  59.2529720 106.5335157  70.4828850  61.0050794 114.6421276
  70.6121231  61.2585273 115.5560688  69.8026301  61.5978502 114.3225931
  74.6528337  71.6748044 110.7411750  74.5752366  72.6255869 110.8200231
  74.0489980  71.3293917 111.3986677  77.1445567  58.8475910 123.3973117
  76.3678901  59.4069830 123.3875982  77.7836130  59.3332693 123.9187988
  84.9366347  55.6302702 117.2316094  84.2940727  55.9235236 116.5855889
  84.4321276  55.5155623 118.0369291  82.5906511  59.3765876 107.9201953
  83.5024367  59.6093262 107.7449651  82.0816158  59.9602920 107.3577032
  75.3991939  61.6561363 122.9591084  76.1406623  62.1946407 122.6825908
  74.6928924  62.2827652 123.1162636  80.8747279  63.7990503 121.5563246
  81.2830635  63.3572914 120.8117878  80.1524540  63.2243131 121.8097439
  77.2278349  58.7363110 118.9296803  78.0739544  59.1602524 119.0731452
  77.1676986  58.0796734 119.6235366  81.1976093  64.3591694 115.3115535
  80.5684956  64.5237408 114.6091603  80.8101755  64.7733304 116.0826499
  85.0765325  65.2946132 112.6659899  84.3916363  65.6745033 112.1156932
  85.1609174  65.9041459 113.3991846  80.3777794  56.3967479 120.5877976
  80.1338726  57.1509539 120.0512252  80.6537724  56.7752826 121.4225224
  82.3316257  62.9406091 119.2655242  82.5433152  63.5837851 118.5889623
  82.2846005  62.1068407 118.7977172  79.9342486  55.5523912 116.1691814
  79.0726965  55.8505165 116.4608552  79.9604920  55.7694310 115.2372847
  76.7504055  64.0966102 112.5765620  77.2142401  64.3753805 111.7870242
  76.4860853  63.1949547 112.3938711  73.6428136  63.6437584 115.5145383
  74.2129493  64.0724852 114.8762868  74.2336248  63.3620168 116.2129569
  75.6872941  60.2189254 109.3855185  76.3896984  60.6710298 109.8529111
  75.3553570  59.5773073 110.0135078  74.1353303  58.8101011 123.7606394
  73.5051963  59.4917292 123.9941791  74.0289391  58.6984093 122.8159533
  69.4298275  58.4772807 114.6872319  68.6397329  58.7330336 114.2112429
  69.9209522  59.2921145 114.7924359  83.4462085  65.8178046 117.4377599
  84.2679528  65.4158234 117.1560281  83.4424487  65.7146280 118.3893715
  71.3813020  58.8417386 111.6455795  70.5844184  58.9536081 112.1639291
  71.1538613  59.1804039 110.7796686  77.2118688  65.3662090 119.5938310
  77.2763121  65.8282497 120.4296482  76.5029612  64.7359455 119.7220620
  67.7135978  58.7303298 117.1187309  67.9644016  59.6150308 117.3844885
  68.2495526  58.5507899 116.3462401  91.5368078  62.1616795 113.7862571
  90.7831786  61.5924193 113.6306575  91.6715619  62.1279459 114.7333206
  76.9266706  67.0330197 109.4617290  76.7912381  67.8781733 109.8902138
  77.4676518  67.2349475 108.6983224  73.4134045  53.1121777 126.1231645
  73.0200991  52.5587976 126.7979290  74.2300186  53.4232355 126.5138163
  70.3796103  64.5505635 110.0345215  70.8920624  65.3448885 110.1850780
  71.0318816  63.8531926 109.9678817  72.1890988  67.6671391 112.1167968
  72.3657616  68.5889356 111.9288952  72.9847821  67.3529811 112.5462348
  76.3302006  54.5279656 123.7151902  77.0711720  55.1286809 123.6356364
  76.5619929  53.7857294 123.1569945  71.4743344  59.7136023 121.9930132
  71.3596859  58.8121281 122.2937231  70.6187862  59.9599720 121.6414948
  78.5535182  67.6553764 123.5917632  78.1099036  66.8690142 123.2738537
  79.2152396  67.8432914 122.9261523  73.3122303  69.1849565 118.1178311
  73.8629728  69.0566629 117.3455305  72.4733779  69.4844454 117.7673204
  80.6516420  67.9356564 121.6199034  80.6334896  68.7565445 121.1279303
  81.5736340  67.8110639 121.8449175  77.1089474  65.4500693 122.4622542
  77.6417811  64.6888981 122.2321850  76.5803555  65.1574345 123.2046696
  80.2759169  50.5560759 117.9916184  79.9323439  51.4462401 117.9155294
  80.6438132  50.3662417 117.1285769  68.3445020  62.8794289 110.8104786
  69.1820242  63.2891298 110.5938494  68.5223288  61.9393732 110.7804980
  80.2409452  60.5469370 106.4988619  79.7256075  61.3173975 106.7377006
  79.9686760  59.8734506 107.1221680  77.8256563  55.3919071 111.5573857
  76.9698159  55.0025921 111.3779496  78.2383515  55.4711032 110.6973643
  79.3555710  52.9265414 115.9565417  78.8520505  52.8895549 115.1433222
  79.6486317  53.8358157 116.0162074  75.5998596  53.0104144 114.9631599
  76.4651592  52.8146953 114.6037488  75.6676104  52.7814496 115.8900955
  85.2143726  63.3001725 108.4341792  84.4373169  62.9612884 107.9896954
  85.8935207  63.3054348 107.7596757  80.0295755  58.4196462 108.3248400
  79.7245891  58.7342611 109.1758543  80.9826197  58.4977882 108.3675733
  78.4742187  64.5786686 109.9741354  77.9463549  63.8439445 109.6614591
  77.9729690  65.3561362 109.7281322  83.4535033  62.7735706 115.0908400
  82.7958707  63.4634967 115.1788529  84.2575432  63.1632138 115.4342387
  73.2060915  55.2406352 112.3347965  73.7804667  55.0181533 111.6021158
  73.7931897  55.3095046 113.0876567  82.2640492  61.1280079 113.1412342
  82.7772374  61.7610071 113.6434052  82.9141716  60.5281274 112.7755702
  73.5330502  57.2710813 106.3543851  72.6967814  57.6085499 106.6753125
  73.3935271  57.1359793 105.4170988  75.5083582  52.1147601 111.0623035
  74.8547995  51.7996618 110.4379650  75.4664056  51.4923341 111.7882858
  76.6194787  62.3966896 102.9776327  75.7121849  62.1656149 103.1767476
  77.1165819  61.6004515 103.1650309  79.5262866  71.1064403 105.8973013
  78.8524565  71.4096100 106.5057971  79.9128688  71.9093483 105.5478470
  78.7421323  58.6029534 115.3870683  77.8243884  58.8244481 115.2292371
  79.1581466  58.6775845 114.5282390  79.5256370  60.0020950 110.5173363
  80.2728189  60.5142347 110.2080485  79.7947960  59.6805003 111.3777756
  77.7983021  62.4979491 107.5000317  76.8894240  62.2138523 107.5972787
  77.8278104  62.9178569 106.6403624  83.0302288  66.1086080 111.2691485
  82.5764615  65.2676990 111.3256675  82.3996255  66.7447479 111.6066265
  81.9735208  57.0378066 112.4992152  81.2357964  56.5255452 112.8302395
  82.2261981  56.5978448 111.6875429  81.4735227  67.9462577 112.2041303
  81.7658202  68.5067634 111.4853668  81.9833848  68.2391138 112.9594462
  82.0746835  49.8154318 113.0933921  82.3805712  48.9551682 112.8059836
  82.7999440  50.4071938 112.8932915  68.3671191  60.2185005 111.4815519
  68.1695591  59.6254365 110.7566586  67.8117855  59.9137215 112.1991458
  76.3467915  60.1108111 113.6010112  76.4016524  59.1581948 113.5252589
  75.5359117  60.2667550 114.0851411  77.4959108  64.0388234 104.8388396
  77.0578538  63.3224093 104.3794033  78.2369549  64.2664349 104.2773487
  74.2860275  58.7285171 111.3600491  73.4728140  59.0279342 111.7665683
  74.7819269  58.3340860 112.0774974  76.4368852  68.7242928 113.2934756
  76.3945031  68.9503774 112.3643288  77.3531551  68.4906303 113.4420557
  79.8834486  59.1926995 120.1915385  80.2383874  59.4198469 121.0509851
  80.5306618  59.5245372 119.5692640  85.6132223  62.3145431 110.8964714
  85.4750122  62.5047027 109.9685903  85.2568442  63.0764814 111.3532765
  73.7774349  56.3003527 116.9761726  74.4173729  56.1592286 116.2784690
  72.9451880  56.0138040 116.6000328  85.6401603  64.3821958 115.9075986
  86.0738109  64.2897247 116.7559040  86.3533184  64.3579459 115.2696002
  74.5534653  65.6005957 113.0896719  75.3475252  65.1056277 112.8879294
  73.8426346  65.0723820 112.7264424  79.3729498  67.9824052 117.4409086
  79.4266520  68.5514989 118.2086802  78.5044279  68.1525938 117.0763123
  70.8617417  59.7449039 109.1656471  69.9315005  59.6833494 109.3826434
  70.9574889  59.2224991 108.3693113  70.7802966  56.2703852 111.7534713
  71.0409783  57.1849185 111.6443874  71.6020138  55.8028294 111.9031326
  72.2527891  57.6841609 118.9233538  72.9250945  57.4758971 118.2746186
  71.4257678  57.4863695 118.4838770  86.5017152  64.4245659 118.4408871
  86.6953042  65.3291470 118.6868146  86.4017771  63.9653078 119.2747456
  78.1553463  54.3103550 120.9399198  77.5081378  55.0093499 120.8463675
  78.9254479  54.7439694 121.3075447  81.5632261  64.5752402 124.0149752
  81.4117767  64.3462953 123.0979835  81.5536941  65.5323003 124.0281097
  78.3317597  62.1484315 118.9996018  79.2609657  62.2995474 118.8264985
  77.9108627  62.2368335 118.1444665  77.1305929  66.1734979 116.7694556
  76.9917015  65.8053763 117.6420494  76.3420525  66.6882618 116.5978514
  77.7254081  71.2744075 108.1120092  77.9005837  70.8032119 108.9265715
  77.0386869  71.9009842 108.3401353  78.6811144  65.5516582 114.1583394
  78.3460977  65.5117352 115.0541043  78.1815090  64.8861298 113.6853804
  72.6555388  60.9584212 119.6835975  72.5175186  60.2264450 120.2847514
  73.5660312  60.8693112 119.4020162  81.6170336  62.8972616 104.4320453
  80.9999507  62.1719444 104.3353506  81.1486825  63.6581976 104.0887528
  75.2837689  60.6704171 119.1719654  75.9937308  60.0297363 119.1306273
  75.2406997  60.9217066 120.0945835  83.2724468  67.6071524 122.0926234
  83.2137014  66.9230744 121.4256817  83.6743986  68.3490514 121.6406860
  73.9966623  57.6569389 120.9915294  73.4603980  57.2060127 121.6436890
  73.4083331  57.7915298 120.2485758  72.2915167  74.4233438 114.8859953
  72.5311765  75.0551962 115.5638971  71.4484363  74.0721478 115.1725312
  73.4068882  57.1158040 103.5541758  72.5298348  56.9946841 103.1904004
  73.8826635  56.3244119 103.3020646  83.2741875  65.5711108 120.3240213
  82.3868654  65.2337030 120.4466612  83.8440426  64.8394139 120.5608979
  64.9271022  61.9035200 113.6483265  65.6142062  61.5896930 113.0604280
  64.7719151  62.8076565 113.3750516  69.7305744  56.7925397 118.0768288
  69.6463933  56.1851066 117.3418698  68.9088451  57.2834415 118.0777785
  76.8043028  70.2312561 117.2901456  76.7313200  71.0367532 117.8020761
  76.3620421  70.4304526 116.4649478  76.5932808  69.4684331 110.8004278
  75.8100330  70.0106011 110.8942503  77.2925553  69.9858310 111.1998519
  79.9029458  55.2778960 113.4438483  80.3998158  54.5248922 113.1239554
  79.1316440  55.3143277 112.8781693  87.7559216  60.9819326 115.0856775
  87.7449092  61.8644041 114.7150708  86.8876595  60.6290876 114.8911312
  79.2641712  70.1299395 119.4459615  79.9769684  70.7646859 119.3735517
  78.7731741  70.2263261 118.6299617  80.9859239  64.0350647 111.0176907
  80.0515518  64.1552110 110.8481611  81.1635907  63.1323114 110.7536917
  76.4864427  57.4196343 113.1710168  76.1162214  56.8667383 113.8591074
  76.9823519  56.8154477 112.6185168  84.3731790  59.8767967 111.5526941
  84.8392242  60.7095958 111.4787244  84.8239291  59.4112948 112.2572199
  74.3153625  67.8793838 120.2665186  75.0163085  68.5130321 120.4194580
  73.8448740  68.2208570 119.5060825  82.4408021  66.2211788 108.5513093
  82.7167865  66.1068382 109.4606967  81.5712520  65.8229273 108.5125266
  82.3448453  52.2448554 115.5917842  81.4311533  52.4752780 115.7600049
  82.7741554  52.3286998 116.4431875  82.1154911  60.4338446 118.0917736
  81.4626362  60.6814353 117.4370189  82.4935291  59.6202584 117.7580214
  79.0762085  70.4698139 112.1945907  79.2584480  69.6519795 112.6573659
  79.8995071  70.6865831 111.7570797  79.4104251  69.3966324 109.4560955
  79.9392017  68.8858778 108.8431117  79.6732470  69.0808854 110.3206488
  78.1642484  61.1758257 124.5783773  77.4883121  61.0752386 125.2486149
  78.9870118  61.0197470 125.0419771  69.9121343  67.4130193 117.1996289
  70.4974780  66.6673881 117.3324193  69.7146182  67.7234150 118.0832953
  72.7659999  70.4481441 112.2158731  72.0970374  70.9327568 111.7322771
  72.6272868  70.6950661 113.1302110  64.5038998  59.9835793 115.9200732
  64.5423098  59.4499384 116.7137850  63.9979291  59.4570999 115.3011709
  76.9065267  72.4825184 118.8141389  77.4583575  72.6456806 119.5790475
  77.2471461  73.0729622 118.1421414  71.8829761  54.8300334 119.4163274
  71.9471087  55.6915165 119.0040672  71.8196881  54.2174336 118.6835633
  71.3582033  56.9023466 123.0636308  71.9854072  56.5200544 123.6773833
  70.5009952  56.6837668 123.4292001  68.1347576  58.7099896 108.9954663
  68.4301017  57.8010574 108.9421717  67.2335612  58.6887635 108.6735666
  80.0433655  70.4307160 115.8005072  79.9184794  69.6296899 115.2916017
  80.7012746  70.9253353 115.3119042  71.6641823  56.7855892 114.9782212
  70.9428409  57.3991860 114.8389685  72.4535079  57.3213657 114.8998858
  82.1068563  68.2316180 117.4284622  81.1598898  68.1121531 117.3562948
  82.4551336  67.3438678 117.5110883  74.4668136  54.1210319 121.2522864
  74.9902538  54.3672615 122.0149173  74.2480470  54.9530353 120.8326001
  69.8635417  56.3913993 109.1193988  69.5348124  55.5111372 108.9369094
  70.2174788  56.3361662 110.0070378  79.1114996  68.0268896 113.6288974
  78.9639959  67.0985603 113.8096544  79.9368490  68.0488987 113.1446049
  72.9777241  56.6786963 109.4869466  73.3173313  57.2072884 108.7648074
  73.4249361  57.0167369 110.2628033  82.7149118  68.8497455 114.7153847
  83.6395666  68.6440316 114.5778298  82.5464421  68.6013856 115.6243188
  75.6720681  55.0624014 118.9372534  75.3317502  54.2631827 119.3393214
  74.9659688  55.3625725 118.3649367  76.3237153  52.1473326 117.3899857
  77.1463223  51.6733804 117.2678747  76.5675217  52.9263810 117.8898543
  74.9645388  55.1761585 107.6862759  75.6853750  55.5542837 107.1826476
  74.3410692  55.8950461 107.7897737  79.1076511  55.8806734 108.6221091
  79.3240125  56.7631371 108.3209919  78.6270578  55.4892947 107.8926733
  73.8475732  58.8392447 115.1991836  73.7020313  59.1532750 116.0916117
  73.3700936  59.4577347 114.6462734  75.7072115  55.8294995 115.2472725
  75.6933684  54.9336088 114.9105023  76.4244543  55.8365658 115.8811011
  77.5598246  56.2632335 117.2925853  77.3016023  57.1849406 117.2910183
  77.0283286  55.8662769 117.9826317  82.5044434  69.3683122 110.0715938
  82.6781312  68.8029545 109.3189791  82.9973326  70.1684017 109.8895428
  68.3221394  61.3797791 118.1379497  67.7774862  62.1557599 118.2699771
  69.2000744  61.7268596 117.9798618  75.1109011  54.7109375 110.5160295
  75.2324922  53.7826021 110.7151183  74.8211053  54.7248061 109.6038611
  77.9800201  52.3964285 113.6527015  78.0021898  52.4603619 112.6978995
  78.3968260  51.5568794 113.8467521  88.3583825  62.1319545 111.6906238
  88.8014972  61.3826870 111.2925361  87.4810336  62.1229681 111.3079970
  83.4919607  68.6849886 107.1712836  84.1870511  69.3056579 107.3900151
  83.8342757  67.8345238 107.4465214  69.1087416  60.5067687 121.0309654
  68.3669152  60.6550323 121.6174284  68.7880160  60.7675953 120.1676403
  85.3911030  66.1349592 108.7000167  85.9162354  66.4736865 107.9749487
  85.3033382  65.1996607 108.5163302  77.0531079  70.0483666 120.8290044
  77.3618205  69.8032812 121.7012743  77.8506561  70.2530304 120.3408914
  77.0751691  72.2021575 113.0595420  76.6356681  71.7097954 113.7528277
  77.8259808  71.6594543 112.8187496  69.5544030  68.3933116 113.0620048
  70.3802050  68.0936888 112.6818692  69.2038082  67.6240739 113.5109837
  74.5225563  67.7459584 115.1317722  73.9005572  67.0830289 114.8319950
  75.1930430  67.7720716 114.4491370  67.7552635  66.3119443 114.0208982
  66.9184543  65.8841617 113.8392983  67.7276280  66.5051886 114.9579773
  74.5950090  56.2241372 124.7250228  74.6438246  57.1003495 124.3427998
  75.1372605  55.6818765 124.1521871  85.2002811  63.6174962 121.3184094
  85.2500816  63.4524969 122.2599616  85.0916734  62.7502221 120.9281974
  74.0839070  66.2963508 108.6076183  74.2327190  66.9798972 107.9542855
  74.8905513  66.2768598 109.1225638  82.4906573  59.6005890 122.6343400
  83.3916436  59.4612355 122.3427398  82.5654548  59.7660345 123.5741578
  76.8249379  56.9772745 121.4796587  75.9552688  57.2706311 121.2079175
  77.0608859  57.5613190 122.2003850  86.7021008  66.0371904 121.5626115
  86.4105816  66.4001884 122.3989576  86.0893139  65.3238912 121.3839447
  87.9016690  63.6024783 114.0828685  88.7363582  64.0414587 114.2466246
  88.0375819  63.1263437 113.2636931  84.9508196  61.1604518 120.0306173
  85.4262318  61.3532164 119.2225025  84.0273761  61.2163704 119.7849557
  71.8391703  62.3228685 109.6137251  71.5937745  61.4191015 109.8117462
  72.0087617  62.3245836 108.6716729  79.5288413  53.1952362 118.9962007
  80.0470356  53.9313389 118.6708496  79.1743545  53.5016355 119.8308766
  71.1087350  58.0557043 107.1123413  70.4156595  58.1301398 106.4563449
  70.8639102  57.2917387 107.6344930  79.7801007  49.6152644 114.5162904
  80.0602761  48.9475833 115.1423330  80.5651614  49.8081740 114.0037567
  77.5834475  68.7911638 106.0787930  77.0108442  69.4101825 105.6258402
  78.1567269  69.3411000 106.6127852  83.6509865  58.0370278 118.2634479
  84.6027288  58.1368376 118.2846703  83.4813316  57.2448547 118.7732563
  81.6724245  55.1225861 118.4493880  81.0774177  55.4030874 117.7540368
  81.3873941  55.6119762 119.2210621  80.8031735  69.0748788 107.2096512
  81.7362408  69.0094350 107.4129388  80.7154948  69.9105055 106.7511045
  83.4319752  68.3914659 104.1700460  83.3533383  68.0574522 105.0636218
  84.2529419  68.8836427 104.1691932  86.1297943  61.2576398 117.3776778
  86.0974263  60.3192399 117.5636462  86.7398567  61.3360435 116.6442603
  77.9681274  60.1272451 103.4203982  78.9140378  59.9978659 103.4892400
  77.5895519  59.3887113 103.8973411  86.2792431  58.0487441 117.4235062
  85.7631480  57.2645898 117.2364990  87.1632380  57.7206158 117.5881581
  83.9403158  51.7928457 113.3830874  83.7427979  51.4843545 114.2674206
  84.5502864  52.5190096 113.5128804  91.9474493  62.3192405 116.5182815
  92.6777881  62.0577693 117.0790519  91.3381438  61.5821127 116.5584883
  90.0289790  60.4600267 117.1157266  89.3022953  60.3256232 116.5073758
  89.6137077  60.7677096 117.9213984  77.8519966  64.1790197 124.8804639
  78.7722976  64.3568796 125.0744686  77.8169549  63.2346242 124.7284339
  76.1524191  58.0522427 103.3558868  75.2455646  57.7555540 103.4321581
  76.4300172  57.7552245 102.4893154  67.0702131  59.3728791 113.8057914
  66.7504916  58.5194099 113.5132288  66.5235559  59.5877369 114.5615881
  70.8482039  62.0891232 117.5227421  71.0668049  63.0208340 117.5415454
  71.2607813  61.7299206 118.3082224  77.7686257  52.5959317 109.5103109
  76.9586985  52.2506402 109.8858355  78.4570674  52.2866861 110.0990721
  79.6976805  51.6737364 111.1327406  80.2507844  52.0932817 111.7917429
  79.9346891  50.7473112 111.1750362  75.7209904  57.6624437 126.9130170
  75.6206631  58.6118794 126.8442261  75.5031446  57.3342676 126.0406240
  74.9222976  54.9109363 103.4970847  75.7842140  55.2364261 103.7566664
  75.1073320  54.1240858 102.9843913  66.9390391  62.9931702 115.7751036
  66.2453863  62.5785655 115.2620990  67.6863382  63.0352239 115.1784455
  83.0755612  53.7837889 110.6406070  82.4954281  54.4422693 110.2584122
  82.8091545  52.9615234 110.2293487  81.5259178  53.1842947 112.8427390
  82.0258957  53.2959481 112.0341709  82.1694786  52.8804000 113.4828199
  75.5841174  61.0921576 125.7295231  75.1008256  61.8921936 125.9359120
  75.6702113  61.1029521 124.7762675  68.8527134  62.9249956 113.6517051
  68.8297822  63.0237643 112.6998934  69.1627770  63.7715107 113.9734217
  71.5114512  64.9826111 117.7663665  72.4657765  64.9510053 117.6993597
  71.3127035  64.5216735 118.5813891  72.1013894  63.5527227 120.3334463
  72.9206783  64.0471306 120.3569300  72.3750702  62.6359195 120.3052030
  81.8580490  55.9437979 109.6962418  80.9706345  56.2287630 109.4782613
  82.2734479  55.7831743 108.8489695  85.2095026  55.9684500 113.4116757
  85.9855416  56.4580953 113.6841374  84.4843160  56.3942555 113.8688627
  87.6467585  56.6812120 114.4690698  88.2412076  56.4407856 113.7584006
  87.7194168  55.9619250 115.0964234  69.8664740  70.5245730 114.7833863
  69.7319208  69.7646131 114.2171861  69.4496803  71.2486630 114.3162652
  81.0023703  65.7082654 103.7910438  81.7059554  65.9132657 104.4068094
  80.2786352  66.2759416 104.0559522  81.8321514  61.4592515 109.9112708
  81.7756715  61.9161067 109.0720341  82.3849856  60.6983200 109.7335551
  85.6426320  57.2482247 110.7362828  85.3863254  56.8478883 111.5671035
  85.0179188  57.9626041 110.6112967  89.9538658  59.9878320 113.2434119
  89.3938216  60.0571510 114.0165681  89.3482161  59.8119305 112.5233615
  73.0233866  71.4215048 114.9952305  72.9066251  72.3660480 114.8930996
  72.2026313  71.1188609 115.3838105  82.9110401  66.1465183 105.8408898
  83.7456005  65.7146382 105.6586373  82.7494744  65.9747197 106.7685793
  82.5656293  62.6497297 107.2065237  82.5105097  62.4841568 106.2653682
  81.9402348  63.3573329 107.3627427  67.3548808  57.8865361 121.0326660
  68.0007672  57.3764315 121.5213885  67.1465959  58.6234043 121.6070085
  75.8752419  52.1505406 106.7850556  75.8631088  53.0947245 106.9418827
  76.7675840  51.9675551 106.4910017  74.0488380  72.0743309 118.2108234
  74.9515627  72.1066920 118.5274729  73.8225751  71.1443760 118.2254570
  75.8041983  70.8274296 114.8718313  74.8537614  70.8276158 114.7582685
  76.1074469  70.0807031 114.3554347  79.6904538  48.7448182 111.0396493
  78.9236934  48.1906669 111.1853175  80.1015243  48.8170051 111.9010644
  71.6946299  55.0332978 125.1301674  72.5577761  54.6769783 125.3404998
  71.1211710  54.6946873 125.8177078  88.3484382  76.6162262 115.8725600
  88.0102894  76.5003327 114.9846134  89.2174150  76.2153428 115.8526606
  84.2071198  78.4697739 111.8622491  83.6436063  78.3787676 111.0938778
  84.0923593  77.6497643 112.3424983  81.7535630  79.9648930 114.7006711
  82.5456922  79.6239755 114.2853010  81.9932280  80.0743906 115.6208864
  89.7870757  82.1368707 107.1736955  89.1358736  82.7222787 106.7870969
  90.5815119  82.6674901 107.2331993  83.7126384  79.2257844 107.5724090
  84.4857260  78.6786831 107.4336966  84.0651783  80.0902093 107.7838551
  86.0492662  75.3850510 105.2042540  86.3018182  74.8632031 104.4426003
  85.1117221  75.2216655 105.3069223  91.0935944  74.3886288 113.0117283
  91.8799034  73.9705711 112.6607700  91.3574649  75.2932380 113.1798931
  91.2646022  79.8259138 107.7105940  90.6291855  79.8993765 108.4226844
  90.9343428  80.4152737 107.0325019  96.4944372  74.3261521 113.9150261
  97.2269544  73.7560738 114.1488091  95.7383727  73.9383122 114.3556767
  85.7688950  77.2878616 107.4066915  85.6525209  76.6123519 108.0747999
  85.8791210  76.8010990 106.5899068  88.1120491  76.7488763 111.1113604
  87.7478699  76.2219384 111.8226525  88.9687607  76.3587232 110.9380089
  94.0169792  68.0383095 118.3744870  93.6853117  68.9078506 118.1506085
  93.4215405  67.7219379 119.0538900  87.7525978  71.7778663 106.1074952
  87.9200381  72.6458899 106.4745423  87.5623147  71.9405944 105.1836242
  83.9613793  76.6909438 113.8077487  83.0364289  76.5585652 114.0155179
  84.2098206  77.4703658 114.3047430  87.7315199  74.2336320 107.0921619
  87.6114824  74.6793371 107.9307100  87.0367788  74.5821638 106.5335157
  81.3222604  76.3342712 114.6421276  81.4514985  76.5877191 115.5560688
  80.6420055  76.9270420 114.3225931  85.4922091  87.0039962 110.7411750
  85.4146121  87.9547787 110.8200231  84.8883735  86.6585834 111.3986677
  93.4300265  74.7057793 107.9201953  94.3418121  74.9385180 107.7449651
  92.9209912  75.2894837 107.3577032  90.7736240  70.8815829 116.1691814
  89.9120719  71.1797083 116.4608552  90.7998675  71.0986228 115.2372847
  87.5897810  79.4258020 112.5765620  88.0536155  79.7045723 111.7870242
  87.3254608  78.5241464 112.3938711  84.4821891  78.9729501 115.5145383
  85.0523248  79.4016770 114.8762868  85.0730002  78.6912086 116.2129569
  86.5266696  75.5481172 109.3855185  87.2290739  76.0002216 109.8529111
  86.1947324  74.9064991 110.0135078  80.2692030  73.8064725 114.6872319
  79.4791084  74.0622253 114.2112429  80.7603277  74.6213063 114.7924359
  82.2206775  74.1709304 111.6455795  81.4237938  74.2827998 112.1639291
  81.9932367  74.5095956 110.7796686  78.5529733  74.0595215 117.1187309
  78.8037771  74.9442225 117.3844885  79.0889281  73.8799817 116.3462401
  87.7660460  82.3622115 109.4617290  87.6306135  83.2073651 109.8902138
  88.3070273  82.5641392 108.6983224  81.2189858  79.8797553 110.0345215
  81.7314378  80.6740803 110.1850780  81.8712570  79.1823843 109.9678817
  83.0284742  82.9963309 112.1167968  83.2051371  83.9181274 111.9288952
  83.8241576  82.6821728 112.5462348  91.1152924  65.8852677 117.9916184
  90.7717193  66.7754318 117.9155294  91.4831886  65.6954334 117.1285769
  79.1838774  78.2086207 110.8104786  80.0213996  78.6183215 110.5938494
  79.3617042  77.2685649 110.7804980  91.0803206  75.8761288 106.4988619
  90.5649830  76.6465892 106.7377006  90.8080515  75.2026424 107.1221680
  88.6650318  70.7210989 111.5573857  87.8091914  70.3317839 111.3779496
  89.0777269  70.8002949 110.6973643  90.1949464  68.2557332 115.9565417
  89.6914260  68.2187467 115.1433222  90.4880071  69.1650075 116.0162074
  86.4392350  68.3396062 114.9631599  87.3045347  68.1438870 114.6037488
  86.5069859  68.1106413 115.8900955  96.0537481  78.6293642 108.4341792
  95.2766923  78.2904802 107.9896954  96.7328962  78.6346266 107.7596757
  90.8689510  73.7488380 108.3248400  90.5639645  74.0634529 109.1758543
  91.8219952  73.8269800 108.3675733  89.3135942  79.9078603 109.9741354
  88.7857303  79.1731363 109.6614591  88.8123444  80.6853280 109.7281322
  84.0454669  70.5698269 112.3347965  84.6198421  70.3473451 111.6021158
  84.6325652  70.6386964 113.0876567  93.1034246  76.4571996 113.1412342
  93.6166128  77.0901988 113.6434052  93.7535470  75.8573192 112.7755702
  84.3724256  72.6002731 106.3543851  83.5361568  72.9377417 106.6753125
  84.2329026  72.4651710 105.4170988  86.3477337  67.4439518 111.0623035
  85.6941749  67.1288536 110.4379650  86.3057811  66.8215259 111.7882858
  87.4588542  77.7258813 102.9776327  86.5515603  77.4948067 103.1767476
  87.9559574  76.9296433 103.1650309  90.3656621  86.4356321 105.8973013
  89.6918319  86.7388017 106.5057971  90.7522443  87.2385401 105.5478470
  89.5815077  73.9321452 115.3870683  88.6637639  74.1536399 115.2292371
  89.9975221  74.0067762 114.5282390  90.3650125  75.3312868 110.5173363
  91.1121944  75.8434265 110.2080485  90.6341715  75.0096920 111.3777756
  88.6376775  77.8271408 107.5000317  87.7287994  77.5430441 107.5972787
  88.6671859  78.2470487 106.6403624  92.8128962  72.3669984 112.4992152
  92.0751719  71.8547370 112.8302395  93.0655736  71.9270365 111.6875429
  92.9140589  65.1446236 113.0933921  93.2199466  64.2843599 112.8059836
  93.6393194  65.7363856 112.8932915  79.2064946  75.5476922 111.4815519
  79.0089345  74.9546283 110.7566586  78.6511610  75.2429133 112.1991458
  87.1861669  75.4400029 113.6010112  87.2410279  74.4873865 113.5252589
  86.3752871  75.5959468 114.0851411  88.3352863  79.3680152 104.8388396
  87.8972293  78.6516011 104.3794033  89.0763304  79.5956267 104.2773487
  85.1254029  74.0577089 111.3600491  84.3121895  74.3571259 111.7665683
  85.6213023  73.6632777 112.0774974  96.4525978  77.6437349 110.8964714
  96.3143876  77.8338945 109.9685903  96.0962197  78.4056732 111.3532765
  84.6168104  71.6295444 116.9761726  85.2567483  71.4884203 116.2784690
  83.7845634  71.3429958 116.6000328  85.3928408  80.9297875 113.0896719
  86.1869006  80.4348195 112.8879294  84.6820100  80.4015738 112.7264424
  81.7011171  75.0740956 109.1656471  80.7708759  75.0125412 109.3826434
  81.7968643  74.5516909 108.3693113  81.6196720  71.5995769 111.7534713
  81.8803538  72.5141102 111.6443874  82.4413893  71.1320212 111.9031326
  83.0921646  73.0133526 118.9233538  83.7644699  72.8050888 118.2746186
  82.2651432  72.8155612 118.4838770  88.5647836  86.6035993 108.1120092
  88.7399591  86.1324036 108.9265715  87.8780624  87.2301759 108.3401353
  92.4564091  78.2264534 104.4320453  91.8393261  77.5011362 104.3353506
  91.9880579  78.9873894 104.0887528  84.2462636  72.4449958 103.5541758
  83.3692103  72.3238759 103.1904004  84.7220390  71.6536036 103.3020646
  75.7664777  77.2327118 113.6483265  76.4535816  76.9188848 113.0604280
  75.6112905  78.1368482 113.3750516  80.5699499  72.1217314 118.0768288
  80.4857687  71.5142984 117.3418698  79.7482205  72.6126333 118.0777785
  87.4326562  84.7976248 110.8004278  86.6494084  85.3397928 110.8942503
  88.1319308  85.3150228 111.1998519  90.7423213  70.6070878 113.4438483
  91.2391912  69.8540840 113.1239554  89.9710194  70.6435194 112.8781693
  91.8252993  79.3642565 111.0176907  90.8909272  79.4844027 110.8481611
  92.0029662  78.4615032 110.7536917  87.3258181  72.7488261 113.1710168
  86.9555969  72.1959301 113.8591074  87.8217274  72.1446394 112.6185168
  95.2125545  75.2059884 111.5526941  95.6785997  76.0387876 111.4787244
  95.6633045  74.7404866 112.2572199  93.2801776  81.5503706 108.5513093
  93.5561620  81.4360300 109.4606967  92.4106274  81.1521190 108.5125266
  93.1842207  67.5740471 115.5917842  92.2705287  67.8044698 115.7600049
  93.6135309  67.6578915 116.4431875  90.2498005  84.7258242 109.4560955
  90.7785772  84.2150696 108.8431117  90.5126225  84.4100772 110.3206488
  75.3432753  75.3127711 115.9200732  75.3816852  74.7791302 116.7137850
  74.8373046  74.7862917 115.3011709  82.7223515  70.1592252 119.4163274
  82.7864842  71.0207082 119.0040672  82.6590635  69.5466253 118.6835633
  78.9741330  74.0391813 108.9954663  79.2694771  73.1302492 108.9421717
  78.0729366  74.0179553 108.6735666  82.5035577  72.1147810 114.9782212
  81.7822163  72.7283777 114.8389685  83.2928833  72.6505575 114.8998858
  80.7029172  71.7205911 109.1193988  80.3741878  70.8403290 108.9369094
  81.0568543  71.6653580 110.0070378  83.8170995  72.0078881 109.4869466
  84.1567068  72.5364802 108.7648074  84.2643116  72.3459287 110.2628033
  86.5114436  70.3915931 118.9372534  86.1711256  69.5923744 119.3393214
  85.8053442  70.6917642 118.3649367  87.1630908  67.4765244 117.3899857
  87.9856977  67.0025722 117.2678747  87.4068971  68.2555728 117.8898543
  85.8039142  70.5053502 107.6862759  86.5247505  70.8834755 107.1826476
  85.1804446  71.2242379 107.7897737  89.9470265  71.2098651 108.6221091
  90.1633879  72.0923289 108.3209919  89.4664332  70.8184865 107.8926733
  84.6869486  74.1684364 115.1991836  84.5414067  74.4824667 116.0916117
  84.2094690  74.7869265 114.6462734  86.5465869  71.1586912 115.2472725
  86.5327438  70.2628006 114.9105023  87.2638297  71.1657576 115.8811011
  88.3992000  71.5924253 117.2925853  88.1409778  72.5141323 117.2910183
  87.8677040  71.1954687 117.9826317  79.1615149  76.7089709 118.1379497
  78.6168617  77.4849517 118.2699771  80.0394498  77.0560513 117.9798618
  85.9502765  70.0401293 110.5160295  86.0718676  69.1117939 110.7151183
  85.6604808  70.0539979 109.6038611  88.8193956  67.7256203 113.6527015
  88.8415652  67.7895536 112.6978995  89.2362015  66.8860712 113.8467521
  94.3313361  84.0141804 107.1712836  95.0264266  84.6348497 107.3900151
  94.6736511  83.1637155 107.4465214  96.2304784  81.4641510 108.7000167
  96.7556109  81.8028782 107.9749487  96.1427137  80.5288525 108.5163302
  80.3937784  83.7225034 113.0620048  81.2195804  83.4228806 112.6818692
  80.0431836  82.9532656 113.5109837  78.5946389  81.6411360 114.0208982
  77.7578298  81.2133535 113.8392983  78.5670035  81.8343804 114.9579773
  84.9232824  81.6255425 108.6076183  85.0720945  82.3090890 107.9542855
  85.7299268  81.6060515 109.1225638  82.6785457  77.6520603 109.6137251
  82.4331499  76.7482933 109.8117462  82.8481372  77.6537753 108.6716729
  90.3682167  68.5244279 118.9962007  90.8864111  69.2605306 118.6708496
  90.0137300  68.8308273 119.8308766  81.9481105  73.3848961 107.1123413
  81.2550350  73.4593316 106.4563449  81.7032857  72.6209304 107.6344930
  90.6194761  64.9444562 114.5162904  90.8996515  64.2767751 115.1423330
  91.4045368  65.1373658 114.0037567  88.4228230  84.1203556 106.0787930
  87.8502197  84.7393743 105.6258402  88.9961023  84.6702918 106.6127852
  91.6425490  84.4040706 107.2096512  92.5756163  84.3386268 107.4129388
  91.5548702  85.2396973 106.7511045  94.2713506  83.7206576 104.1700460
  94.1927138  83.3866440 105.0636218  95.0923173  84.2128344 104.1691932
  88.8075028  75.4564369 103.4203982  89.7534133  75.3270577 103.4892400
  88.4289273  74.7179030 103.8973411  94.7796913  67.1220375 113.3830874
  94.5821734  66.8135463 114.2674206  95.3896618  67.8482014 113.5128804
  86.9917945  73.3814345 103.3558868  86.0849401  73.0847458 103.4321581
  87.2693926  73.0844163 102.4893154  77.9095886  74.7020708 113.8057914
  77.5898670  73.8486017 113.5132288  77.3629314  74.9169287 114.5615881
  81.6875793  77.4183149 117.5227421  81.9061803  78.3500257 117.5415454
  82.1001567  77.0591124 118.3082224  88.6080011  67.9251235 109.5103109
  87.7980739  67.5798320 109.8858355  89.2964428  67.6158778 110.0990721
  90.5370559  67.0029281 111.1327406  91.0901598  67.4224735 111.7917429
  90.7740646  66.0765030 111.1750362  85.7616730  70.2401280 103.4970847
  86.6235894  70.5656179 103.7566664  85.9467074  69.4532776 102.9843913
  77.7784146  78.3223620 115.7751036  77.0847617  77.9077573 115.2620990
  78.5257137  78.3644156 115.1784455  93.9149366  69.1129807 110.6406070
  93.3348036  69.7714611 110.2584122  93.6485299  68.2907151 110.2293487
  92.3652933  68.5134864 112.8427390  92.8652711  68.6251399 112.0341709
  93.0088541  68.2095917 113.4828199  79.6920888  78.2541874 113.6517051
  79.6691576  78.3529561 112.6998934  80.0021525  79.1007024 113.9734217
  92.6974245  71.2729897 109.6962418  91.8100100  71.5579548 109.4782613
  93.1128234  71.1123660 108.8489695  96.0488781  71.2976418 113.4116757
  96.8249171  71.7872870 113.6841374  95.3236915  71.7234472 113.8688627
  98.4861339  72.0104037 114.4690698  99.0805830  71.7699773 113.7584006
  98.5587923  71.2911168 115.0964234  91.8417458  81.0374572 103.7910438
  92.5453308  81.2424574 104.4068094  91.1180107  81.6051334 104.0559522
  92.6715268  76.7884433 109.9112708  92.6150470  77.2452984 109.0720341
  93.2243611  76.0275118 109.7335551  96.4820074  72.5774165 110.7362828
  96.2257008  72.1770801 111.5671035  95.8572942  73.2917959 110.6112967
  93.7504155  81.4757101 105.8408898  94.5849759  81.0438299 105.6586373
  93.5888498  81.3039115 106.7685793  93.4050048  77.9789214 107.2065237
  93.3498851  77.8133486 106.2653682  92.7796103  78.6865247 107.3627427
  78.1942563  73.2157279 121.0326660  78.8401426  72.7056233 121.5213885
  77.9859714  73.9525960 121.6070085  86.7146173  67.4797323 106.7850556
  86.7024843  68.4239163 106.9418827  87.6069595  67.2967469 106.4910017
  90.5298292  64.0740100 111.0396493  89.7630688  63.5198587 111.1853175
  90.9408997  64.1461969 111.9010644  95.2118011  87.9294648 106.3543851
  94.3755323  88.2669335 106.6753125  95.0722780  87.7943628 105.4170988
  95.0856391  87.7741876 103.5541758  94.2085857  87.6530676 103.1904004
  95.5614144  86.9827954 103.3020646  92.7874859  88.7140878 107.1123413
  92.0944104  88.7885233 106.4563449  92.5426611  87.9501222 107.6344930
  97.8311700  88.7106263 103.3558868  96.9243155  88.4139375 103.4321581
  98.1087681  88.4136081 102.4893154  96.6010485  85.5693198 103.4970847
  97.4629649  85.8948096 103.7566664  96.7860829  84.7824694 102.9843913
  97.5539928  82.8089241 106.7850556  97.5418597  83.7531081 106.9418827
  98.4463349  82.6259386 106.4910017  47.0081604   2.1250773  92.6218320
  46.3343303   2.4282469  93.2303278  47.3947426   2.9279853  92.2723777
  49.0989074  -6.0841014  91.1565760  48.4818244  -6.8094186  91.0598813
  48.6305562  -5.3231654  90.8132834  50.9738345  -0.2963744  93.8958143
  51.6689249   0.3242949  94.1145458  51.3161495  -1.1468393  94.1710521
  45.0653213  -0.1901992  92.8033237  44.4927180   0.4288195  92.3503708
  45.6386007   0.3597369  93.3373159  48.2850473   0.0935158  93.9341819
  49.2181146   0.0280720  94.1374694  48.1973686   0.9291425  93.4756352
  50.9138490  -0.5898972  90.8945766  50.8352121  -0.9239108  91.7881524
  51.7348156  -0.0977204  90.8937239  48.4842441  -3.2730976  90.5155745
  49.1878291  -3.0680974  91.1313400  47.7605090  -2.7054215  90.7804828
  50.3929139  -2.8348447  92.5654205  51.2274743  -3.2667249  92.3831680
  50.2313482  -3.0066434  93.4931099  59.0213414   7.6821204 102.6609382
  59.6591824   7.5627951 101.9572722  58.9034257   8.6302048 102.7197334
  55.8303120   7.6348632 102.5970906  55.4921632   7.5189697 101.7091441
  56.6992888   7.2339797 102.5771912  51.6889936   9.4884108  98.5867797
  51.1254801   9.3974045  97.8184085  51.5742331   8.6684013  99.0670290
  57.2689494  13.1555076  93.8982262  56.6177474  13.7409157  93.5116276
  58.0633857  13.6861271  93.9577300  51.1945122  10.2444213  94.2969396
  51.9675998   9.6973200  94.1582272  51.5470521  11.1088463  94.5083858
  53.5311399   6.4036879  91.9287846  53.7836920   5.8818401  91.1671309
  52.5935959   6.2403025  92.0314530  58.5754682   5.4072658  99.7362590
  59.3617772   4.9892081  99.3853007  58.8393387   6.3118750  99.9044238
  58.7464760  10.8445508  94.4351246  58.1110593  10.9180135  95.1472151
  58.4162166  11.4339107  93.7570326  63.9763109   5.3447891 100.6395568
  64.7088281   4.7747108 100.8733398  63.2202465   4.9569491 101.0802074
  53.2507688   8.3064985  94.1312221  53.1343946   7.6309889  94.7993306
  53.3609948   7.8197359  93.3144374  55.5939229   7.7675132  97.8358911
  55.2297436   7.2405753  98.5471832  56.4506345   7.3773602  97.6625396
  55.2344716   2.7965032  92.8320259  55.4019118   3.6645269  93.1990730
  55.0441885   2.9592314  91.9081548  57.9920049  11.2582011 104.4986089
  57.6920772  12.1607050 104.3901897  57.6471109  10.9914194 105.3507242
  61.3917193   3.7764551 102.1783527  60.4834070   3.7079960 101.8842288
  61.3404789   4.2536496 103.0065352  55.2133937   5.2522690  93.8166926
  55.0933562   5.6979740  94.6552406  54.5186525   5.6008007  93.2580464
  52.9740829  18.0226331  97.4657057  52.8964859  18.9734156  97.5445538
  52.3702473  17.6772204  98.1231983  60.9119003   5.7244163  94.6447260
  61.8236859   5.9571550  94.4694957  60.4028650   6.3081207  94.0822339
  59.5188585  10.7069981 102.0360841  58.8897448  10.8715695 101.3336909
  59.1314248  11.1211591 102.8071805  63.3977817  11.6424419  99.3905205
  62.7128855  12.0223320  98.8402238  63.4821667  12.2519746 100.1237153
  55.0716547  10.4444389  99.3010927  55.5354893  10.7232092  98.5115549
  54.8073345   9.5427834  99.1184017  54.0085433   6.5667542  96.1100492
  54.7109477   7.0188585  96.5774418  53.6766062   5.9251361  96.7380385
  61.7674577  12.1656334 104.1622906  62.5892021  11.7636521 103.8805588
  61.7636980  12.0624568 105.1139022  69.8580570   8.5095082 100.5107878
  69.1044278   7.9402480 100.3551882  69.9928111   8.4757747 101.4578512
  55.2479198  13.3808484  96.1862597  55.1124873  14.2260020  96.6147445
  55.7889010  13.5827762  95.4228531  48.7008595  10.8983922  96.7590522
  49.2133116  11.6927173  96.9096087  49.3531308  10.2010213  96.6924123
  50.5103480  14.0149679  98.8413275  50.6870108  14.9367643  98.6534259
  51.3060314  13.7008098  99.2707655  51.6334796  15.5327852 104.8423617
  52.1842221  15.4044916 104.0700611  50.7946271  15.8322741 104.4918510
  46.6657512   9.2272577  97.5350092  47.5032734   9.6369585  97.3183800
  46.8435780   8.2872019  97.5050286  58.5621944   6.8947657  93.2233925
  58.0468568   7.6652262  93.4622313  58.2899253   6.2212794  93.8466987
  56.1469055   1.7397358  98.2819164  55.2910652   1.3504209  98.1024803
  56.5596007   1.8189319  97.4218949  63.5356218   9.6480012  95.1587099
  62.7585661   9.3091171  94.7142261  64.2147699   9.6532635  94.4842064
  58.3508247   4.7674749  95.0493707  58.0458383   5.0820899  95.9003850
  59.3038690   4.8456169  95.0921040  56.7954679  10.9264973  96.6986661
  56.2676041  10.1917732  96.3859898  56.2942182  11.7039649  96.4526629
  61.7747525   9.1213993 101.8153707  61.1171200   9.8113255 101.9033836
  62.5787925   9.5110425 102.1587693  60.5852984   7.4758366  99.8657649
  61.0984866   8.1088358 100.3679358  61.2354208   6.8759561  99.5001009
  51.8542994   3.6189100  93.0789157  51.0180306   3.9563787  93.3998432
  51.7147764   3.4838080  92.1416294  54.9407279   8.7445183  89.7021634
  54.0334341   8.5134436  89.9012783  55.4378311   7.9482802  89.8895615
  57.8475358  17.4542690  92.6218320  57.1737057  17.7574387  93.2303278
  58.2341180  18.2571771  92.2723777  57.8468863   6.3499237  97.2418669
  58.5940682   6.8620634  96.9325791  58.1160452   6.0283290  98.1023063
  56.1195513   8.8457778  94.2245624  55.2106732   8.5616811  94.3218093
  56.1490597   9.2656856  93.3648931  61.3514780  12.4564367  97.9936791
  60.8977107  11.6155277  98.0501982  60.7208747  13.0925766  98.3311571
  60.2947700   3.3856353  99.2237459  59.5570457   2.8733740  99.5547701
  60.5474473   2.9456735  98.4120736  59.7947720  14.2940864  98.9286609
  60.0870694  14.8545921  98.2098975  60.3046340  14.5869425  99.6839769
  54.6680407   6.4586398 100.3255419  54.7229017   5.5060235 100.2497896
  53.8571609   6.6145838 100.8096717  55.8171601  10.3866522  91.5633702
  55.3791031   9.6702380  91.1039340  56.5582042  10.6142636  91.0018794
  52.6072767   5.0763458  98.0845798  51.7940632   5.3757629  98.4910990
  53.1031761   4.6819147  98.8020280  54.7581345  15.0721215 100.0180063
  54.7157524  15.2982061  99.0888595  55.6744044  14.8384590 100.1665864
  63.9344716   8.6623719  97.6210021  63.7962614   8.8525315  96.6931210
  63.5780934   9.4243101  98.0778072  63.9614095  10.7300246 102.6321292
  64.3950602  10.6375535 103.4804346  64.6745676  10.7057746 101.9941308
  52.8747146  11.9484244  99.8142025  53.6687744  11.4534564  99.6124600
  52.1638838  11.4202107  99.4509731  57.6941990  14.3302340 104.1654393
  57.7479012  14.8993276 104.9332109  56.8256771  14.5004225 103.8008430
  49.1829909   6.0927326  95.8901778  48.2527497   6.0311781  96.1071740
  49.2787381   5.5703279  95.0938419  64.8229645  10.7723946 105.1654178
  65.0165535  11.6769757 105.4113453  64.7230263  10.3131365 105.9992763
  55.4518422  12.5213266 103.4939862  55.3129507  12.1532051 104.3665801
  54.6633018  13.0360906 103.3223820  56.0466574  17.6222363  94.8365399
  56.2218329  17.1510406  95.6511022  55.3599362  18.2488129  95.0646660
  57.0023637  11.8994869 100.8828700  56.6673469  11.8595639 101.7786350
  56.5027582  11.2339585 100.4099110  59.9382828   9.2450903  91.1565760
  59.3211999   8.5197731  91.0598813  59.4699317  10.0060263  90.8132834
  50.6127659  20.7711725 101.6105259  50.8524257  21.4030250 102.2884278
  49.7696855  20.4199765 101.8970618  51.7281374   3.4636328  90.2787064
  50.8510841   3.3425128  89.9149311  52.2039127   2.6722406  90.0265953
  55.1255521  16.5790848 104.0146763  55.0525692  17.3845819 104.5266068
  54.6832914  16.7782814 103.1894785  54.9145300  15.8162618  97.5249585
  54.1312822  16.3584298  97.6187809  55.6138045  16.3336598  97.9243826
  58.2241950   1.6257247 100.1683790  58.7210650   0.8727210  99.8484860
  57.4528932   1.6621564  99.6026999  66.0771708   7.3297613 101.8102082
  66.0661584   8.2122328 101.4396015  65.2089087   6.9769164 101.6156619
  57.5854204  16.4777682 106.1704922  58.2982176  17.1125147 106.0980823
  57.0944233  16.5741548 105.3544924  59.3071731  10.3828935  97.7422213
  58.3728010  10.5030397  97.5726918  59.4848400   9.4801401  97.4782223
  62.6944282   6.2246254  98.2772248  63.1604735   7.0574245  98.2032550
  63.1451783   5.7591235  98.9817506  60.7620514  12.5690075  95.2758400
  61.0380357  12.4546670  96.1852274  59.8925012  12.1707560  95.2370573
  57.3974578  16.8176426  98.9191213  57.5796972  15.9998082  99.3818966
  58.2207564  17.0344118  98.4816103  57.7316743  15.7444611  96.1806262
  58.2604509  15.2337066  95.5676424  57.9944963  15.4287141  97.0451795
  51.0872491  16.7959728  98.9404038  50.4182866  17.2805855  98.4568078
  50.9485361  17.0428948  99.8547416  55.2277760  18.8303471 105.5386696
  55.7796068  18.9935093 106.3035781  55.5683953  19.4207909 104.8666721
  46.4560068   5.0578183  95.7199970  46.7513509   4.1488861  95.6667024
  45.5548104   5.0365922  95.3980972  58.3646147  16.7785447 102.5250378
  58.2397286  15.9775187 102.0161324  59.0225238  17.2731640 102.0364348
  60.4281055  14.5794467 104.1529928  59.4811391  14.4599818 104.0808255
  60.7763828  13.6916965 104.2356190  48.1847910   2.7392280  95.8439295
  47.8560616   1.8589659  95.6614401  48.5387280   2.6839949  96.7315684
  57.4327489  14.3747183 100.3534281  57.2852451  13.4463891 100.5341851
  58.2580982  14.3967274  99.8691356  51.2989733   3.0265250  96.2114773
  51.6385805   3.5551171  95.4893381  51.7461853   3.3645656  96.9873339
  61.0361610  15.1975742 101.4399153  61.9608158  14.9918603 101.3023604
  60.8676914  14.9492143 102.3488495  53.2857880   1.5239872  94.4108065
  54.0066242   1.9021125  93.9071782  52.6623184   2.2428749  94.5143043
  57.4289003   2.2285021  95.3466398  57.6452617   3.1109659  95.0455226
  56.9483070   1.8371234  94.6172040  60.8256927  15.7161409  96.7961245
  60.9993804  15.1507832  96.0435097  61.3185818  16.5162304  96.6140735
  53.4321503   1.0587662  97.2405602  53.5537414   0.1304308  97.4396490
  53.1423545   1.0726348  96.3283917  66.6796318   8.4797832  98.4151544
  67.1227464   7.7305157  98.0170668  65.8022828   8.4707969  98.0325276
  61.8132099  15.0328174  93.8958143  62.5083004  15.6534866  94.1145458
  62.1555249  14.1823525  94.1710521  63.7123522  12.4827879  95.4245474
  64.2374846  12.8215152  94.6994794  63.6245875  11.5474895  95.2408608
  55.3964183  18.5499863  99.7840727  54.9569173  18.0576241 100.4773584
  56.1472300  18.0072830  99.5432802  47.8756522  14.7411403  99.7865355
  48.7014542  14.4415175  99.4063999  47.5250574  13.9719026 100.2355144
  52.8438055  14.0937872 101.8563029  52.2218064  13.4308577 101.5565256
  53.5142922  14.1199003 101.1736676  46.0765127  12.6597730 100.7454289
  45.2397035  12.2319904 100.5638290  46.0488772  12.8530173 101.6825080
  52.4051562  12.6441795  95.3321489  52.5539682  13.3277259  94.6788162
  53.2118005  12.6246885  95.8470945  65.0233500  12.3850191 108.2871422
  64.7318308  12.7480171 109.1234883  64.4105631  11.6717199 108.1084754
  66.2229182   9.9503071 100.8073992  67.0576074  10.3892875 100.9711552
  66.3588311   9.4741724  99.9882238  50.1604195   8.6706973  96.3382558
  49.9150237   7.7669303  96.5362768  50.3300110   8.6724123  95.3962036
  49.4299843   4.4035330  93.8368720  48.7369087   4.4779685  93.1808756
  49.1851594   3.6395674  94.3590236  55.9046968  15.1389925  92.8033237
  55.3320935  15.7580113  92.3503708  56.4779761  15.6889287  93.3373159
  59.1244227  15.4227076  93.9341819  60.0574900  15.3572637  94.1374694
  59.0367440  16.2583342  93.4756352  61.7532244  14.7392946  90.8945766
  61.6745876  14.4052809  91.7881524  62.5741911  15.2314714  90.8937239
  64.4510435   7.6054685 104.1022085  64.4186755   6.6670686 104.2881769
  65.0611059   7.6838722 103.3687910  56.2893766   6.4750738  90.1449289
  57.2352871   6.3456946  90.2137707  55.9108011   5.7365400  90.6218717
  70.2686985   8.6670692 103.2428122  70.9990374   8.4055980 103.8035825
  69.6593931   7.9299414 103.2830190  68.3502282   6.8078555 103.8402573
  67.6235446   6.6734520 103.2319065  67.9349569   7.1155383 104.6459291
  54.4736683   4.4000715  90.0804174  53.5668139   4.1033827  90.1566888
  54.7512664   4.1030533  89.2138461  56.0898749  -1.0562396  96.2348416
  55.2799477  -1.4015311  96.6103662  56.7783166  -1.3654852  96.8236027
  53.2435468   1.2587650  90.2216154  54.1054632   1.5842548  90.4811971
  53.4285812   0.4719146  89.7089219  61.3968104   0.1316176  97.3651377
  60.8166773   0.7900980  96.9829429  61.1304037  -0.6906479  96.9538794
  60.1792982   2.2916267  96.4207725  59.2918837   2.5765917  96.2027920
  60.5946971   2.1310030  95.5735002  63.5307518   2.3162788 100.1362064
  64.3067909   2.8059240 100.4086681  62.8055653   2.7420842 100.5933934
  65.9680077   3.0290407 101.1936005  66.5624568   2.7886143 100.4829313
  66.0406661   2.3097537 101.8209541  48.1877233  16.8724018 101.5079169
  48.0531701  16.1124419 100.9417168  47.7709295  17.5964918 101.0407958
  59.3236196  12.0560941  90.5155745  60.0272046  12.2610944  91.1313400
  58.5998845  12.6237703  90.7804828  60.1534006   7.8070803  96.6358015
  60.0969207   8.2639354  95.7965647  60.7062349   7.0461487  96.4580858
  63.9638812   3.5960534  97.4608134  63.7075746   3.1957170  98.2916342
  63.3391680   4.3104328  97.3358274  68.2751150   6.3356608  99.9679426
  67.7150708   6.4049797 100.7410988  67.6694653   6.1597592  99.2478922
  51.3446359  17.7693335 101.7197612  51.2278743  18.7138767 101.6176302
  50.5238805  17.4666896 102.1083411  61.2322893  12.4943470  92.5654205
  62.0668497  12.0624669  92.3831680  61.0707236  12.3225484  93.4931099
  60.8868785   8.9975584  93.9310544  60.8317589   8.8319855  92.9898988
  60.2614841   9.7051617  94.0872734  54.1964911  -1.5016307  93.5095863
  54.1843581  -0.5574467  93.6664133  55.0888333  -1.6846162  93.2155324
  52.3700873  18.4221597 104.9353541  53.2728119  18.4545207 105.2520035
  52.1438243  17.4922048 104.9499876  54.1254475  17.1752583 101.5963619
  53.1750106  17.1754445 101.4827991  54.4286961  16.4285318 101.0799654
  69.8607168  23.0113122 102.6609382  70.4985578  22.8919869 101.9572722
  69.7428011  23.9593966 102.7197334  66.6696875  22.9640550 102.5970906
  66.3315386  22.8481614 101.7091441  67.5386643  22.5631715 102.5771912
  62.5283690  24.8176026  98.5867797  61.9648555  24.7265963  97.8184085
  62.4136085  23.9975931  99.0670290  67.1516658  24.1175401 108.5557112
  67.1405298  23.7228200 107.6837615  67.3137297  23.3841474 109.1490883
  60.0748122  26.3127218 101.4252018  60.8669414  25.9718042 101.0098317
  60.3144772  26.4222193 102.3454171  68.1083249  28.4846994  93.8982262
  67.4571229  29.0701074  93.5116276  68.9027612  29.0153189  93.9577300
  62.0338876  25.5736131  94.2969396  62.8069752  25.0265118  94.1582272
  62.3864275  26.4380380  94.5083858  63.8723919  26.9012513 107.5036296
  63.5813785  27.8058144 107.3882962  64.5080903  26.9429041 108.2180365
  64.7980126  24.2789362 104.0937655  65.3943698  24.0545384 103.3794618
  64.8555097  23.5374107 104.6963103  64.3705154  21.7328797  91.9287846
  64.6230675  21.2110318  91.1671309  63.4329713  21.5694943  92.0314530
  69.4148437  20.7364575  99.7362590  70.2011526  20.3183999  99.3853007
  69.6787141  21.6410668  99.9044238  69.5858514  26.1737426  94.4351246
  68.9504347  26.2472052  95.1472151  69.2555921  26.7631025  93.7570326
  74.8156864  20.6739809 100.6395568  75.5482036  20.1039025 100.8733398
  74.0596220  20.2861409 101.0802074  64.0901443  23.6356903  94.1312221
  63.9737701  22.9601806  94.7993306  64.2003703  23.1489277  93.3144374
  66.4332984  23.0967050  97.8358911  66.0691191  22.5697671  98.5471832
  67.2900100  22.7065519  97.6625396  72.3382284  14.3861383 105.0990177
  72.0065609  15.2556794 104.8751392  71.7427898  14.0697667 105.7784207
  66.0738471  18.1256950  92.8320259  66.2412873  18.9937186  93.1990730
  65.8835640  18.2884232  91.9081548  68.8313804  26.5873929 104.4986089
  68.5314527  27.4898968 104.3901897  68.4864863  26.3206112 105.3507242
  62.2826285  23.0387726 100.5322794  61.3576782  22.9063940 100.7400486
  62.5310698  23.8181945 101.0292736  72.2310948  19.1056469 102.1783527
  71.3227825  19.0371877 101.8842288  72.1798543  19.5828414 103.0065352
  66.0527691  20.5814607  93.8166926  65.9327317  21.0271658  94.6552406
  65.3580280  20.9299925  93.2580464  59.6435096  22.6820999 101.3666583
  59.7727477  22.9355478 102.2805995  58.9632548  23.2748707 101.0471238
  63.8134584  33.3518249  97.4657057  63.7358613  34.3026074  97.5445538
  63.2096227  33.0064122  98.1231983  66.3051813  20.5246115 110.1218424
  65.5285147  21.0840035 110.1121289  66.9442376  21.0102897 110.6433294
  74.0972594  17.3072907 103.9561401  73.4546974  17.6005440 103.3101195
  73.5927522  17.1925828 104.7614597  71.7512758  21.0536081  94.6447260
  72.6630614  21.2863467  94.4694957  71.2422405  21.6373125  94.0822339
  64.5598186  23.3331568 109.6836391  65.3012870  23.8716612 109.4071215
  63.8535171  23.9597857 109.8407943  70.0353525  25.4760708 108.2808553
  70.4436881  25.0343119 107.5363185  69.3130787  24.9013336 108.5342745
  66.3884595  20.4133315 105.6542109  67.2345791  20.8372729 105.7976758
  66.3283233  19.7566939 106.3480673  70.3582340  26.0361899 102.0360841
  69.7291202  26.2007613 101.3336909  69.9708002  26.4503509 102.8071805
  74.2371572  26.9716337  99.3905205  73.5522610  27.3515238  98.8402238
  74.3215421  27.5811663 100.1237153  69.5384041  18.0737683 107.3123283
  69.2944973  18.8279744 106.7757559  69.8143971  18.4523031 108.1470530
  71.4922503  24.6176296 105.9900549  71.7039399  25.2608056 105.3134930
  71.4452252  23.7838612 105.5222479  69.0948732  17.2294116 102.8937121
  68.2333211  17.5275370 103.1853858  69.1211167  17.4464515 101.9618153
  65.9110302  25.7736307  99.3010927  66.3748647  26.0524010  98.5115549
  65.6467100  24.8719752  99.1184017  62.8034383  25.3207789 102.2390690
  63.3735740  25.7495057 101.6008174  63.3942495  25.0390373 102.9374875
  64.8479188  21.8959459  96.1100492  65.5503231  22.3480503  96.5774418
  64.5159816  21.2543278  96.7380385  63.2959549  20.4871216 110.4851701
  62.6658210  21.1687497 110.7187098  63.1895637  20.3754298 109.5404839
  58.5904522  20.1543012 101.4117625  57.8003576  20.4100541 100.9357736
  59.0815769  20.9691350 101.5169666  72.6068331  27.4948251 104.1622906
  73.4285775  27.0928439 103.8805588  72.6030734  27.3916485 105.1139022
  60.5419267  20.5187591  98.3701102  59.7450430  20.6306286  98.8884598
  60.3144859  20.8574244  97.5041992  66.3724935  27.0432295 106.3183617
  66.4369367  27.5052702 107.1541788  65.6635859  26.4129659 106.4465926
  56.8742225  20.4073503 103.8432616  57.1250263  21.2920512 104.1090192
  57.4101773  20.2278104 103.0707708  80.6974324  23.8387000 100.5107878
  79.9438033  23.2694398 100.3551882  80.8321866  23.8049664 101.4578512
  66.0872952  28.7100402  96.1862597  65.9518627  29.5551938  96.6147445
  66.6282765  28.9119680  95.4228531  59.5402350  26.2275840  96.7590522
  60.0526870  27.0219090  96.9096087  60.1925063  25.5302131  96.6924123
  61.3497235  29.3441596  98.8413275  61.5263863  30.2659561  98.6534259
  62.1454068  29.0300016  99.2707655  65.4908253  16.2049861 110.4397209
  66.2317966  16.8057014 110.3601671  65.7226176  15.4627499 109.8815251
  60.6349591  21.3906228 108.7175438  60.5203106  20.4891485 109.0182537
  59.7794109  21.6369925 108.3660255  67.7141429  29.3323969 110.3162939
  67.2705283  28.5460347 109.9983843  68.3758642  29.5203119 109.6506830
  62.4728550  30.8619770 104.8423617  63.0235975  30.7336834 104.0700611
  61.6340026  31.1614659 104.4918510  69.8122667  29.6126768 108.3444340
  69.7941142  30.4335650 107.8524609  70.7342587  29.4880844 108.5694481
  66.2695721  27.1270898 109.1867849  66.8024058  26.3659186 108.9567157
  65.7409802  26.8344550 109.9292003  69.4365416  12.2330964 104.7161490
  69.0929685  13.1232606 104.6400601  69.8044379  12.0432622 103.8531075
  57.5051267  24.5564494  97.5350092  58.3426489  24.9661503  97.3183800
  57.6829534  23.6163937  97.5050286  69.4015699  22.2239575  93.2233925
  68.8862322  22.9944180  93.4622313  69.1293007  21.5504711  93.8466987
  66.9862810  17.0689276  98.2819164  66.1304406  16.6796126  98.1024803
  67.3989762  17.1481237  97.4218949  68.5161956  14.6035619 102.6810724
  68.0126752  14.5665754 101.8678529  68.8092563  15.5128362 102.7407380
  64.7604842  14.6874349 101.6876905  65.6257839  14.4917157 101.3282795
  64.8282351  14.4584701 102.6146262  74.3749973  24.9771930  95.1587099
  73.5979416  24.6383089  94.7142261  75.0541454  24.9824553  94.4842064
  69.1902002  20.0966667  95.0493707  68.8852138  20.4112816  95.9003850
  70.1432444  20.1748087  95.0921040  67.6348434  26.2556890  96.6986661
  67.1069795  25.5209650  96.3859898  67.1335937  27.0331567  96.4526629
  72.6141280  24.4505911 101.8153707  71.9564954  25.1405172 101.9033836
  73.4181679  24.8402343 102.1587693  62.3667161  16.9176557  99.0593272
  62.9410913  16.6951738  98.3266465  62.9538144  16.9865251  99.8121873
  71.4246739  22.8050284  99.8657649  71.9378620  23.4380275 100.3679358
  72.0747962  22.2051479  99.5001009  62.6936749  18.9481018  93.0789157
  61.8574061  19.2855704  93.3998432  62.5541518  18.8129998  92.1416294
  64.6689829  13.7917806  97.7868342  64.0154241  13.4766823  97.1624956
  64.6270303  13.1693546  98.5128164  65.7801034  24.0737101  89.7021634
  64.8728096  23.8426354  89.9012783  66.2772066  23.2774720  89.8895615
  68.6869113  32.7834608  92.6218320  68.0130812  33.0866305  93.2303278
  69.0734935  33.5863688  92.2723777  67.9027569  20.2799739 102.1115989
  66.9850131  20.5014686 101.9537677  68.3187713  20.3546050 101.2527697
  68.6862617  21.6791155  97.2418669  69.4334436  22.1912552  96.9325791
  68.9554207  21.3575208  98.1023063  66.9589267  24.1749696  94.2245624
  66.0500487  23.8908728  94.3218093  66.9884351  24.5948774  93.3648931
  72.1908535  27.7856285  97.9936791  71.7370862  26.9447195  98.0501982
  71.5602502  28.4217683  98.3311571  71.1341454  18.7148271  99.2237459
  70.3964211  18.2025657  99.5547701  71.3868228  18.2748653  98.4120736
  70.6341474  29.6232782  98.9286609  70.9264448  30.1837839  98.2098975
  71.1440095  29.9161343  99.6839769  71.2353082  11.4924523  99.8179228
  71.5411959  10.6321887  99.5305143  71.9605687  12.0842143  99.6178222
  57.5277438  21.8955210  98.2060826  57.3301838  21.3024570  97.4811892
  56.9724102  21.5907420  98.9236765  65.5074161  21.7878316 100.3255419
  65.5622771  20.8352153 100.2497896  64.6965363  21.9437755 100.8096717
  66.6565355  25.7158439  91.5633702  66.2184785  24.9994298  91.1039340
  67.3975796  25.9434554  91.0018794  63.4466521  20.4055376  98.0845798
  62.6334387  20.7049546  98.4910990  63.9425516  20.0111065  98.8020280
  65.5975099  30.4013133 100.0180063  65.5551278  30.6273979  99.0888595
  66.5137798  30.1676507 100.1665864  69.0440733  20.8697200 106.9160692
  69.3990121  21.0968674 107.7755158  69.6912864  21.2015577 106.2937947
  74.7738470  23.9915636  97.6210021  74.6356369  24.1817232  96.6931210
  74.4174689  24.7535019  98.0778072  62.9380596  17.9773731 103.7007033
  63.5779975  17.8362491 103.0029996  62.1058127  17.6908245 103.3245635
  74.8007850  26.0592163 102.6321292  75.2344356  25.9667452 103.4804346
  75.5139430  26.0349664 101.9941308  63.7140900  27.2776162  99.8142025
  64.5081499  26.7826482  99.6124600  63.0032592  26.7494025  99.4509731
  68.5335745  29.6594257 104.1654393  68.5872767  30.2285194 104.9332109
  67.6650526  29.8296142 103.8008430  60.0223664  21.4219244  95.8901778
  59.0921252  21.3603699  96.1071740  60.1181135  20.8995196  95.0938419
  59.9409213  17.9474056  98.4780020  60.2016030  18.8619390  98.3689180
  60.7626385  17.4798499  98.6276633  61.4134138  19.3611814 105.6478844
  62.0857191  19.1529176 104.9991493  60.5863924  19.1633900 105.2084077
  75.6623399  26.1015864 105.1654178  75.8559289  27.0061674 105.4113453
  75.5624017  25.6423283 105.9992763  67.3159710  15.9873755 107.6644505
  66.6687625  16.6863704 107.5708982  68.0860725  16.4209898 108.0320753
  70.7238508  26.2522607 110.7395058  70.5724014  26.0233158 109.8225142
  70.7143187  27.2093208 110.7526403  67.4923844  23.8254519 105.7241325
  68.4215904  23.9765679 105.5510292  67.0714874  23.9138540 104.8689971
  66.2912176  27.8505184 103.4939862  66.1523262  27.4823968 104.3665801
  65.5026772  28.3652823 103.3223820  66.8860328  32.9514280  94.8365399
  67.0612084  32.4802324  95.6511022  66.1993116  33.5780047  95.0646660
  67.8417391  27.2286787 100.8828700  67.5067224  27.1887557 101.7786350
  67.3421337  26.5631502 100.4099110  61.8161635  22.6354417 106.4081281
  61.6781433  21.9034655 107.0092820  62.7266559  22.5463317 106.1265469
  70.7776583  24.5742821  91.1565760  70.1605753  23.8489649  91.0598813
  70.3093071  25.3352181  90.8132834  64.4443936  22.3474376 105.8964961
  65.1543554  21.7067568 105.8551579  64.4013244  22.5987271 106.8191142
  72.4330714  29.2841729 108.8171540  72.3743261  28.6000949 108.1502123
  72.8350233  30.0260719 108.3652166  63.1572870  19.3339594 107.7160601
  62.6210227  18.8830332 108.3682197  62.5689578  19.4685503 106.9731065
  61.4521413  36.1003643 101.6105259  61.6918012  36.7322167 102.2884278
  60.6090610  35.7491683 101.8970618  62.5675129  18.7928245  90.2787064
  61.6904595  18.6717046  89.9149311  63.0432882  18.0014323  90.0265953
  72.4348122  27.2481313 107.0485520  71.5474901  26.9107235 107.1711919
  73.0046673  26.5164344 107.2854285  54.0877269  23.5805405 100.3728571
  54.7748309  23.2667135  99.7849587  53.9325398  24.4846770 100.0995823
  58.8911991  18.4695601 104.8013595  58.8070180  17.8621271 104.0664005
  58.0694697  18.9604620 104.8023091  65.9649275  31.9082766 104.0146763
  65.8919447  32.7137737 104.5266068  65.5226668  32.1074731 103.1894785
  65.7539055  31.1454536  97.5249585  64.9706577  31.6876216  97.6187809
  66.4531800  31.6628515  97.9243826  69.0635705  16.9549165 100.1683790
  69.5604404  16.2019127  99.8484860  68.2922686  16.9913482  99.6026999
  76.9165462  22.6589531 101.8102082  76.9055339  23.5414246 101.4396015
  76.0482842  22.3061081 101.6156619  68.4247959  31.8069600 106.1704922
  69.1375931  32.4417064 106.0980823  67.9337987  31.9033466 105.3544924
  70.1465486  25.7120852  97.7422213  69.2121764  25.8322315  97.5726918
  70.3242154  24.8093319  97.4782223  65.6470674  19.0966548  99.8955475
  65.2768461  18.5437588 100.5836380  66.1429766  18.4924681  99.3430475
  73.5338037  21.5538172  98.2772248  73.9998489  22.3866163  98.2032550
  73.9845537  21.0883153  98.9817506  63.4759872  29.5564043 106.9910493
  64.1769332  30.1900526 107.1439887  63.0054987  29.8978775 106.2306132
  71.6014268  27.8981993  95.2758400  71.8774112  27.7838587  96.1852274
  70.7318767  27.4999478  95.2370573  71.5054700  13.9218759 102.3163149
  70.5917779  14.1522985 102.4845356  71.9347801  14.0057203 103.1677181
  71.2761158  22.1108650 104.8163043  70.6232608  22.3584558 104.1615496
  71.6541538  21.2972789 104.4825520  68.2368332  32.1468344  98.9191213
  68.4190727  31.3290000  99.3818966  69.0601318  32.3636036  98.4816103
  68.5710498  31.0736529  96.1806262  69.0998264  30.5628983  95.5676424
  68.8338717  30.7579059  97.0451795  67.3248731  22.8528462 111.3029080
  66.6489368  22.7522591 111.9731455  68.1476365  22.6967675 111.7665077
  59.0727590  29.0900398 103.9241595  59.6581027  28.3444086 104.0569499
  58.8752429  29.4004355 104.8078259  61.9266245  32.1251645  98.9404038
  61.2576621  32.6097773  98.4568078  61.7879115  32.3720866  99.8547416
  53.6645245  21.6605998 102.6446038  53.7029345  21.1269589 103.4383157
  53.1585538  21.1341204 102.0257016  66.0671514  34.1595389 105.5386696
  66.6189822  34.3227010 106.3035781  66.4077708  34.7499827 104.8666721
  61.0436007  16.5070539 106.1408581  61.1077334  17.3685370 105.7285978
  60.9803128  15.8944540 105.4080939  60.5188280  18.5793671 109.7881615
  61.1460319  18.1970749 110.4019139  59.6616199  18.3607873 110.1537307
  70.9182388  28.9856646 111.3935350  71.4622292  29.5986605 110.8990305
  70.3369233  29.5436225 111.9102363  57.2953823  20.3870100  95.7199970
  57.5907264  19.4780779  95.6667024  56.3941858  20.3657840  95.3980972
  69.2039901  32.1077365 102.5250378  69.0791041  31.3067104 102.0161324
  69.8618992  32.6023558 102.0364348  60.8248070  18.4626097 101.7027518
  60.1034655  19.0762065 101.5634992  61.6141325  18.9983862 101.6244164
  71.2674810  29.9086385 104.1529928  70.3205145  29.7891736 104.0808255
  71.6157583  29.0208883 104.2356190  63.6274383  15.7980524 107.9768170
  64.1508785  16.0442820 108.7394479  63.4086716  16.6300558 107.5571308
  59.0241664  18.0684198  95.8439295  58.6954370  17.1881577  95.6614401
  59.3781035  18.0131867  96.7315684  68.2721243  29.7039101 100.3534281
  68.1246205  28.7755808 100.5341851  69.0974737  29.7259192  99.8691356
  62.1383487  18.3557168  96.2114773  62.4779560  18.8843089  95.4893381
  62.5855608  18.6937574  96.9873339  71.8755365  30.5267660 101.4399153
  72.8001912  30.3210521 101.3023604  71.7070668  30.2784061 102.3488495
  64.8326928  16.7394219 105.6617841  64.4923749  15.9402032 106.0638521
  64.1265934  17.0395929 105.0894674  65.4843400  13.8243531 104.1145164
  66.3069469  13.3504009 103.9924054  65.7281464  14.6034015 104.6143850
  64.1251634  16.8531789  94.4108065  64.8459997  17.2313042  93.9071782
  63.5016939  17.5720666  94.5143043  68.2682757  17.5576938  95.3466398
  68.4846372  18.4401576  95.0455226  67.7876824  17.1663152  94.6172040
  63.0081979  20.5162652 101.9237142  62.8626559  20.8302955 102.8161424
  62.5307182  21.1347552 101.3708041  64.8678362  17.5065200 101.9718032
  64.8539930  16.6106293 101.6350330  65.5850790  17.5135863 102.6056318
  66.7204492  17.9402540 104.0171159  66.4622270  18.8619611 104.0155490
  66.1889533  17.5432974 104.7071623  71.6650681  31.0453327  96.7961245
  71.8387559  30.4799749  96.0435097  72.1579572  31.8454222  96.6140735
  57.4827641  23.0567996 104.8624804  56.9381109  23.8327804 104.9945078
  58.3606991  23.4038801 104.7043925  64.2715258  16.3879580  97.2405602
  64.3931169  15.4596226  97.4396490  63.9817300  16.4018266  96.3283917
  67.1406448  14.0734490 100.3772322  67.1628145  14.1373823  99.4224301
  67.5574507  13.2338999 100.5712828  77.5190072  23.8089750  98.4151544
  77.9621218  23.0597075  98.0170668  76.6416583  23.7999886  98.0325276
  72.6525854  30.3620091  93.8958143  73.3476758  30.9826784  94.1145458
  72.9949004  29.5115443  94.1710521  58.2693663  22.1837892 107.7554960
  57.5275399  22.3320528 108.3419591  57.9486407  22.4446158 106.8921710
  74.5517277  27.8119797  95.4245474  75.0768601  28.1507070  94.6994794
  74.4639629  26.8766812  95.2408608  66.2137325  31.7253871 107.5535350
  66.5224452  31.4803017 108.4258050  67.0112807  31.9300509 107.0654221
  66.2357937  33.8791780  99.7840727  65.7962928  33.3868159 100.4773584
  66.9866054  33.3364748  99.5432802  58.7150276  30.0703321  99.7865355
  59.5408296  29.7707093  99.4063999  58.3644328  29.3010943 100.2355144
  63.6831810  29.4229789 101.8563029  63.0611819  28.7600494 101.5565256
  64.3536676  29.4490921 101.1736676  56.9158881  27.9889648 100.7454289
  56.0790790  27.5611822 100.5638290  56.8882527  28.1822091 101.6825080
  63.7556337  17.9011577 111.4495535  63.8044493  18.7773700 111.0673304
  64.2978851  17.3588970 110.8767178  74.2411183  28.4452701 110.7296672
  73.4506726  28.4276839 110.1901171  74.0044537  28.9840994 111.4845708
  74.3609058  25.2945167 108.0429400  74.4107063  25.1295174 108.9844923
  74.2522981  24.4272426 107.6527281  63.2445316  27.9733713  95.3321489
  63.3933437  28.6569177  94.6788162  64.0511760  27.9538803  95.8470945
  71.6512820  21.2776095 109.3588707  72.5522683  21.1382560 109.0672705
  71.7260795  21.4430550 110.2986884  65.9855626  18.6542950 108.2041893
  65.1158935  18.9476516 107.9324482  66.2215106  19.2383395 108.9249157
  75.8627255  27.7142108 108.2871422  75.5712063  28.0772089 109.1234883
  75.2499386  27.0009117 108.1084754  77.0622937  25.2794988 100.8073992
  77.8969828  25.7184792 100.9711552  77.1982066  24.8033641  99.9882238
  74.1114443  22.8374723 106.7551480  74.5868564  23.0302369 105.9470331
  73.1880008  22.8933909 106.5094863  60.9997949  23.9998890  96.3382558
  60.7543991  23.0961220  96.5362768  61.1693864  24.0016041  95.3962036
  68.6894659  14.8722567 105.7207314  69.2076603  15.6083594 105.3953802
  68.3349792  15.1786560 106.5554073  60.2693597  19.7327248  93.8368720
  59.5762842  19.8071603  93.1808756  60.0245349  18.9687591  94.3590236
  68.9407254  11.2922849 101.2408210  69.2209007  10.6246038 101.8668637
  69.7257860  11.4851945 100.7282874  66.7440722  30.4681843  92.8033237
  66.1714689  31.0872030  92.3503708  67.3173516  31.0181205  93.3373159
  72.8116112  19.7140483 104.9879785  73.7633535  19.8138581 105.0092009
  72.6419562  18.9218752 105.4977870  70.8330491  16.7996066 105.1739186
  70.2380423  17.0801079 104.4785675  70.5480188  17.2889967 105.9455927
  69.9637982  30.7518993  93.9341819  70.8968655  30.6864555  94.1374694
  69.8761195  31.5875260  93.4756352  72.5925998  30.0684864  90.8945766
  72.5139630  29.7344727  91.7881524  73.4135665  30.5606631  90.8937239
  75.2904190  22.9346603 104.1022085  75.2580510  21.9962604 104.2881769
  75.9004813  23.0130640 103.3687910  67.1287521  21.8042656  90.1449289
  68.0746625  21.6748864  90.2137707  66.7501765  21.0657318  90.6218717
  75.4398678  19.7257646 104.1480368  74.9237727  18.9416103 103.9610297
  76.3238627  19.3976363 104.3126888  73.1009405  13.4698662 100.1076181
  72.9034226  13.1613750 100.9919513  73.7109111  14.1960301 100.2374111
  81.1080740  23.9962610 103.2428122  81.8384128  23.7347898 103.8035825
  80.4987685  23.2591332 103.2830190  79.1896037  22.1370472 103.8402573
  78.4629200  22.0026437 103.2319065  78.7743324  22.4447301 104.6459291
  67.0126213  25.8560402 111.6049946  67.9329223  26.0339001 111.7989993
  66.9775796  24.9116447 111.4529645  65.3130438  19.7292632  90.0804174
  64.4061893  19.4325745  90.1566888  65.5906419  19.4322450  89.2138461
  56.2308378  21.0498996 100.5303221  55.9111162  20.1964304 100.2377595
  55.6841806  21.2647574 101.2861188  60.0088286  23.7661437 104.2472727
  60.2274295  24.6978544 104.2660761  60.4214059  23.4069411 105.0327531
  66.9292503  14.2729522  96.2348416  66.1193232  13.9276607  96.6103662
  67.6176920  13.9637066  96.8236027  68.8583052  13.3507569  97.8572712
  69.4114090  13.7703022  98.5162735  69.0953138  12.4243317  97.8995668
  64.0829222  16.5879567  90.2216154  64.9448386  16.9134466  90.4811971
  64.2679566  15.8011063  89.7089219  56.0996638  24.6701907 102.4996342
  55.4060109  24.2555860 101.9866297  56.8469629  24.7122444 101.9029761
  72.2361859  15.4608094  97.3651377  71.6560528  16.1192898  96.9829429
  71.9697791  14.6385438  96.9538794  70.6865425  14.8613152  99.5672697
  71.1865204  14.9729686  98.7587016  71.3301033  14.5574204 100.2073505
  64.7447421  22.7691781 112.4540538  64.2614503  23.5692141 112.6604427
  64.8308360  22.7799726 111.5007982  58.0133381  24.6020161 100.3762357
  57.9904069  24.7007848  99.4244240  58.3234017  25.4485312 100.6979523
  60.6720758  26.6596316 104.4908972  61.6264012  26.6280258 104.4238903
  60.4733282  26.1986940 105.3059197  61.2620141  25.2297432 107.0579769
  62.0813030  25.7241511 107.0814607  61.5356948  24.3129400 107.0297337
  71.0186737  17.6208184  96.4207725  70.1312592  17.9057835  96.2027920
  71.4340726  17.4601948  95.5735002  74.3701273  17.6454705 100.1362064
  75.1461663  18.1351158 100.4086681  73.6449407  18.0712759 100.5933934
  76.8073832  18.3582324 101.1936005  77.4018322  18.1178060 100.4829313
  76.8800415  17.6389455 101.8209541  59.0270987  32.2015935 101.5079169
  58.8925455  31.4416336 100.9417168  58.6103050  32.9256835 101.0407958
  70.1629950  27.3852859  90.5155745  70.8665800  27.5902861  91.1313400
  69.4392599  27.9529621  90.7804828  70.9927761  23.1362720  96.6358015
  70.9362962  23.5931272  95.7965647  71.5456103  22.3753405  96.4580858
  74.8032566  18.9252452  97.4608134  74.5469501  18.5249088  98.2916342
  74.1785434  19.6396246  97.3358274  79.1144904  21.6648525  99.9679426
  78.5544462  21.7341715 100.7410988  78.5088408  21.4889510  99.2478922
  62.1840113  33.0985252 101.7197612  62.0672497  34.0430685 101.6176302
  61.3632559  32.7958814 102.1083411  72.0716648  27.8235388  92.5654205
  72.9062252  27.3916587  92.3831680  71.9100991  27.6517402  93.4931099
  71.7262540  24.3267501  93.9310544  71.6711344  24.1611773  92.9898988
  71.1008595  25.0343534  94.0872734  56.5155055  19.5635566 107.7571966
  57.1613918  19.0534520 108.2459191  56.3072206  20.3004247 108.3315392
  69.0408447  26.6316413 113.2564107  69.9099607  26.8057066 112.8950742
  68.5615199  27.4510830 113.1339836  65.0358665  13.8275610  93.5095863
  65.0237335  14.7717450  93.6664133  65.9282087  13.6445756  93.2155324
  63.2094627  33.7513514 104.9353541  64.1121874  33.7837125 105.2520035
  62.9831997  32.8213965 104.9499876  64.9648229  32.5044501 101.5963619
  64.0143860  32.5046362 101.4827991  65.2680715  31.7577235 101.0799654
  68.8510785  10.4218387  97.7641799  68.0843181   9.8676874  97.9098482
  69.2621490  10.4940256  98.6255951  80.7000923  38.3405039 102.6609382
  81.3379333  38.2211787 101.9572722  80.5821766  39.2885883 102.7197334
  77.5090629  38.2932467 102.5970906  77.1709141  38.1773532 101.7091441
  78.3780397  37.8923632 102.5771912  73.3677445  40.1467944  98.5867797
  72.8042310  40.0557881  97.8184085  73.2529840  39.3267848  99.0670290
  77.9910412  39.4467319 108.5557112  77.9799053  39.0520117 107.6837615
  78.1531052  38.7133392 109.1490883  70.9141877  41.6419135 101.4252018
  71.7063169  41.3009960 101.0098317  71.1538527  41.7514110 102.3454171
  78.9477003  43.8138911  93.8982262  78.2964983  44.3992992  93.5116276
  79.7421366  44.3445106  93.9577300  72.8732631  40.9028049  94.2969396
  73.6463507  40.3557036  94.1582272  73.2258029  41.7672298  94.5083858
  74.7117673  42.2304431 107.5036296  74.4207539  43.1350062 107.3882962
  75.3474658  42.2720959 108.2180365  75.6373880  39.6081279 104.0937655
  76.2337452  39.3837302 103.3794618  75.6948852  38.8666025 104.6963103
  75.2098908  37.0620715  91.9287846  75.4624429  36.5402236  91.1671309
  74.2723468  36.8986860  92.0314530  80.2542191  36.0656493  99.7362590
  81.0405280  35.6475916  99.3853007  80.5180896  36.9702585  99.9044238
  80.4252269  41.5029343  94.4351246  79.7898102  41.5763970  95.1472151
  80.0949675  42.0922942  93.7570326  85.6550618  36.0031726 100.6395568
  86.3875790  35.4330943 100.8733398  84.8989974  35.6153327 101.0802074
  74.9295197  38.9648821  94.1312221  74.8131455  38.2893724  94.7993306
  75.0397457  38.4781195  93.3144374  77.2726738  38.4258968  97.8358911
  76.9084945  37.8989589  98.5471832  78.1293854  38.0357437  97.6625396
  83.1776039  29.7153300 105.0990177  82.8459364  30.5848711 104.8751392
  82.5821652  29.3989584 105.7784207  76.9132225  33.4548867  92.8320259
  77.0806627  34.3229104  93.1990730  76.7229394  33.6176149  91.9081548
  79.6707558  41.9165846 104.4986089  79.3708281  42.8190885 104.3901897
  79.3258618  41.6498030 105.3507242  73.1220040  38.3679643 100.5322794
  72.1970536  38.2355857 100.7400486  73.3704453  39.1473862 101.0292736
  83.0704702  34.4348387 102.1783527  82.1621579  34.3663795 101.8842288
  83.0192298  34.9120332 103.0065352  76.8921446  35.9106525  93.8166926
  76.7721071  36.3563576  94.6552406  76.1974034  36.2591843  93.2580464
  70.4828851  38.0112917 101.3666583  70.6121232  38.2647396 102.2805995
  69.8026302  38.6040625 101.0471238  74.6528338  48.6810167  97.4657057
  74.5752368  49.6317992  97.5445538  74.0489982  48.3356039  98.1231983
  77.1445568  35.8538032 110.1218424  76.3678902  36.4131952 110.1121289
  77.7836131  36.3394815 110.6433294  84.9366348  32.6364825 103.9561401
  84.2940729  32.9297358 103.3101195  84.4321277  32.5217745 104.7614597
  82.5906512  36.3827998  94.6447260  83.5024368  36.6155385  94.4694957
  82.0816159  36.9665042  94.0822339  75.3991940  38.6623486 109.6836391
  76.1406625  39.2008530 109.4071215  74.6928926  39.2889774 109.8407943
  80.8747280  40.8052626 108.2808553  81.2830636  40.3635037 107.5363185
  80.1524541  40.2305254 108.5342745  77.2278350  35.7425233 105.6542109
  78.0739545  36.1664646 105.7976758  77.1676987  35.0858857 106.3480673
  81.1976094  41.3653817 102.0360841  80.5684957  41.5299531 101.3336909
  80.8101757  41.7795426 102.8071805  85.0765326  42.3008254  99.3905205
  84.3916364  42.6807156  98.8402238  85.1609176  42.9103581 100.1237153
  80.3777795  33.4029601 107.3123283  80.1338727  34.1571662 106.7757559
  80.6537726  33.7814949 108.1470530  82.3316258  39.9468214 105.9900549
  82.5433153  40.5899973 105.3134930  82.2846006  39.1130530 105.5222479
  79.9342487  32.5586034 102.8937121  79.0726966  32.8567288 103.1853858
  79.9604922  32.7756433 101.9618153  76.7504056  41.1028225  99.3010927
  77.2142402  41.3815928  98.5115549  76.4860854  40.2011669  99.1184017
  73.6428137  40.6499706 102.2390690  74.2129494  41.0786975 101.6008174
  74.2336249  40.3682291 102.9374875  75.6872942  37.2251377  96.1100492
  76.3896986  37.6772421  96.5774418  75.3553571  36.5835196  96.7380385
  74.1353304  35.8163134 110.4851701  73.5051964  36.4979415 110.7187098
  74.0289392  35.7046215 109.5404839  69.4298276  35.4834930 101.4117625
  68.6397330  35.7392458 100.9357736  69.9209524  36.2983268 101.5169666
  83.4462086  42.8240169 104.1622906  84.2679530  42.4220356 103.8805588
  83.4424489  42.7208403 105.1139022  71.3813022  35.8479509  98.3701102
  70.5844185  35.9598203  98.8884598  71.1538614  36.1866161  97.5041992
  77.2118689  42.3724212 106.3183617  77.2763122  42.8344619 107.1541788
  76.5029613  41.7421577 106.4465926  67.7135979  35.7365420 103.8432616
  67.9644018  36.6212430 104.1090192  68.2495528  35.5570022 103.0707708
  91.5368079  39.1678917 100.5107878  90.7831787  38.5986315 100.3551882
  91.6715620  39.1341582 101.4578512  76.9266707  44.0392320  96.1862597
  76.7912382  44.8843855  96.6147445  77.4676519  44.2411597  95.4228531
  73.4134047  30.1183900 112.8476952  73.0200992  29.5650098 113.5224596
  74.2300187  30.4294478 113.2383470  70.3796104  41.5567758  96.7590522
  70.8920625  42.3511008  96.9096087  71.0318817  40.8594048  96.6924123
  72.1890989  44.6733514  98.8413275  72.3657617  45.5951479  98.6534259
  72.9847823  44.3591933  99.2707655  76.3302008  31.5341779 110.4397209
  77.0711721  32.1348932 110.3601671  76.5619930  30.7919416 109.8815251
  71.4743346  36.7198146 108.7175438  71.3596861  35.8183403 109.0182537
  70.6187863  36.9661843 108.3660255  78.5535183  44.6615886 110.3162939
  78.1099038  43.8752265 109.9983843  79.2152397  44.8495037 109.6506830
  73.3122305  46.1911688 104.8423617  73.8629730  46.0628751 104.0700611
  72.4733780  46.4906577 104.4918510  80.6516421  44.9418686 108.3444340
  80.6334897  45.7627567 107.8524609  81.5736341  44.8172761 108.5694481
  77.1089476  42.4562816 109.1867849  77.6417812  41.6951104 108.9567157
  76.5803557  42.1636467 109.9292003  80.2759171  27.5622882 104.7161490
  79.9323440  28.4524523 104.6400601  80.6438133  27.3724539 103.8531075
  68.3445021  39.8856412  97.5350092  69.1820243  40.2953420  97.3183800
  68.5223289  38.9455854  97.5050286  80.2409453  37.5531493  93.2233925
  79.7256077  38.3236097  93.4622313  79.9686762  36.8796629  93.8466987
  77.8256564  32.3981193  98.2819164  76.9698161  32.0088044  98.1024803
  78.2383516  32.4773154  97.4218949  79.3555711  29.9327537 102.6810724
  78.8520507  29.8957672 101.8678529  79.6486318  30.8420279 102.7407380
  75.5998597  30.0166266 101.6876905  76.4651594  29.8209075 101.3282795
  75.6676106  29.7876618 102.6146262  85.2143727  40.3063847  95.1587099
  84.4373170  39.9675007  94.7142261  85.8935208  40.3116471  94.4842064
  80.0295756  35.4258585  95.0493707  79.7245892  35.7404734  95.9003850
  80.9826199  35.5040005  95.0921040  78.4742188  41.5848808  96.6986661
  77.9463550  40.8501568  96.3859898  77.9729691  42.3623484  96.4526629
  83.4535034  39.7797829 101.8153707  82.7958709  40.4697090 101.9033836
  84.2575434  40.1694261 102.1587693  73.2060916  32.2468474  99.0593272
  73.7804668  32.0243656  98.3266465  73.7931898  32.3157169  99.8121873
  82.2640493  38.1342201  99.8657649  82.7772375  38.7672193 100.3679358
  82.9141717  37.5343397  99.5001009  73.5330503  34.2772935  93.0789157
  72.6967815  34.6147622  93.3998432  73.3935273  34.1421915  92.1416294
  75.5083584  29.1209723  97.7868342  74.8547996  28.8058740  97.1624956
  75.4664058  28.4985464  98.5128164  76.6194788  39.4029018  89.7021634
  75.7121850  39.1718272  89.9012783  77.1165820  38.6066638  89.8895615
  79.5262867  48.1126526  92.6218320  78.8524566  48.4158222  93.2303278
  79.9128689  48.9155606  92.2723777  78.7421324  35.6091657 102.1115989
  77.8243885  35.8306604 101.9537677  79.1581468  35.6837967 101.2527697
  79.5256372  37.0083073  97.2418669  80.2728191  37.5204470  96.9325791
  79.7947961  36.6867125  98.1023063  77.7983022  39.5041613  94.2245624
  76.8894241  39.2200646  94.3218093  77.8278106  39.9240692  93.3648931
  83.0302289  43.1148203  97.9936791  82.5764616  42.2739113  98.0501982
  82.3996256  43.7509601  98.3311571  81.9735209  34.0440189  99.2237459
  81.2357966  33.5317575  99.5547701  82.2261982  33.6040570  98.4120736
  81.4735229  44.9524699  98.9286609  81.7658203  45.5129757  98.2098975
  81.9833849  45.2453260  99.6839769  82.0746836  26.8216441  99.8179228
  82.3805713  25.9613804  99.5305143  82.7999441  27.4134061  99.6178222
  68.3671192  37.2247127  98.2060826  68.1695592  36.6316488  97.4811892
  67.8117856  36.9199338  98.9236765  76.3467916  37.1170234 100.3255419
  76.4016526  36.1644070 100.2497896  75.5359118  37.2729673 100.8096717
  77.4959110  41.0450357  91.5633702  77.0578540  40.3286216  91.1039340
  78.2369551  41.2726472  91.0018794  74.2860276  35.7347294  98.0845798
  73.4728141  36.0341464  98.4910990  74.7819270  35.3402982  98.8020280
  76.4368854  45.7305051 100.0180063  76.3945033  45.9565897  99.0888595
  77.3531553  45.4968425 100.1665864  79.8834488  36.1989118 106.9160692
  80.2383875  36.4260591 107.7755158  80.5306619  36.5307495 106.2937947
  85.6132224  39.3207554  97.6210021  85.4750123  39.5109150  96.6931210
  85.2568443  40.0826937  98.0778072  73.7774351  33.3065649 103.7007033
  74.4173730  33.1654408 103.0029996  72.9451881  33.0200163 103.3245635
  85.6401604  41.3884081 102.6321292  86.0738111  41.2959370 103.4804346
  86.3533185  41.3641581 101.9941308  74.5534655  42.6068080  99.8142025
  75.3475253  42.1118400  99.6124600  73.8426347  42.0785943  99.4509731
  79.3729499  44.9886175 104.1654393  79.4266521  45.5577111 104.9332109
  78.5044280  45.1588060 103.8008430  70.8617418  36.7511161  95.8901778
  69.9315006  36.6895617  96.1071740  70.9574890  36.2287114  95.0938419
  70.7802967  33.2765974  98.4780020  71.0409784  34.1911307  98.3689180
  71.6020139  32.8090417  98.6276633  72.2527892  34.6903731 105.6478844
  72.9250946  34.4821093 104.9991493  71.4257679  34.4925817 105.2084077
  86.5017154  41.4307782 105.1654178  86.6953044  42.3353592 105.4113453
  86.4017772  40.9715201 105.9992763  78.1553464  31.3165672 107.6644505
  77.5081379  32.0155622 107.5708982  78.9254480  31.7501816 108.0320753
  81.5632262  41.5814524 110.7395058  81.4117769  41.3525076 109.8225142
  81.5536942  42.5385126 110.7526403  78.3317599  39.1546437 105.7241325
  79.2609659  39.3057597 105.5510292  77.9108629  39.2430458 104.8689971
  77.1305931  43.1797102 103.4939862  76.9917016  42.8115886 104.3665801
  76.3420527  43.6944741 103.3223820  77.7254082  48.2806198  94.8365399
  77.9005838  47.8094241  95.6511022  77.0386871  48.9071964  95.0646660
  78.6811146  42.5578704 100.8828700  78.3460978  42.5179474 101.7786350
  78.1815091  41.8923420 100.4099110  72.6555390  37.9646334 106.4081281
  72.5175188  37.2326573 107.0092820  73.5660313  37.8755234 106.1265469
  81.6170337  39.9034739  91.1565760  80.9999508  39.1781567  91.0598813
  81.1486826  40.6644099  90.8132834  75.2837690  37.6766294 105.8964961
  75.9937309  37.0359486 105.8551579  75.2406998  37.9279188 106.8191142
  83.2724469  44.6133647 108.8171540  83.2137015  43.9292867 108.1502123
  83.6743987  45.3552637 108.3652166  73.9966624  34.6631511 107.7160601
  73.4603981  34.2122250 108.3682197  73.4083333  34.7977420 106.9731065
  72.2915168  51.4295561 101.6105259  72.5311766  52.0614085 102.2884278
  71.4484364  51.0783601 101.8970618  73.4068883  34.1220163  90.2787064
  72.5298350  34.0008964  89.9149311  73.8826636  33.3306241  90.0265953
  83.2741876  42.5773231 107.0485520  82.3868655  42.2399153 107.1711919
  83.8440427  41.8456262 107.2854285  64.9271023  38.9097323 100.3728571
  65.6142063  38.5959053  99.7849587  64.7719152  39.8138687 100.0995823
  69.7305746  33.7987519 104.8013595  69.6463934  33.1913189 104.0664005
  68.9088452  34.2896537 104.8023091  76.8043030  47.2374683 104.0146763
  76.7313201  48.0429655 104.5266068  76.3620423  47.4366649 103.1894785
  76.5932809  46.4746453  97.5249585  75.8100331  47.0168133  97.6187809
  77.2925554  46.9920433  97.9243826  79.9029459  32.2841083 100.1683790
  80.3998159  31.5311045  99.8484860  79.1316441  32.3205399  99.6026999
  87.7559217  37.9881448 101.8102082  87.7449093  38.8706164 101.4396015
  86.8876596  37.6352999 101.6156619  79.2641713  47.1361517 106.1704922
  79.9769685  47.7708982 106.0980823  78.7731742  47.2325383 105.3544924
  80.9859240  41.0412770  97.7422213  80.0515519  41.1614232  97.5726918
  81.1635909  40.1385237  97.4782223  76.4864428  34.4258466  99.8955475
  76.1162216  33.8729506 100.5836380  76.9823521  33.8216599  99.3430475
  84.3731791  36.8830089  98.2772248  84.8392244  37.7158081  98.2032550
  84.8239292  36.4175071  98.9817506  74.3153627  44.8855961 106.9910493
  75.0163086  45.5192444 107.1439887  73.8448742  45.2270692 106.2306132
  82.4408023  43.2273910  95.2758400  82.7167866  43.1130505  96.1852274
  81.5712521  42.8291395  95.2370573  82.3448454  29.2510676 102.3163149
  81.4311534  29.4814903 102.4845356  82.7741556  29.3349120 103.1677181
  82.1154913  37.4400568 104.8163043  81.4626363  37.6876476 104.1615496
  82.4935293  36.6264706 104.4825520  79.0762087  47.4760261  98.9191213
  79.2584481  46.6581917  99.3818966  79.8995073  47.6927954  98.4816103
  79.4104252  46.4028446  96.1806262  79.9392018  45.8920901  95.5676424
  79.6732472  46.0870977  97.0451795  78.1642486  38.1820379 111.3029080
  77.4883123  38.0814509 111.9731455  78.9870120  38.0259593 111.7665077
  69.9121345  44.4192316 103.9241595  70.4974782  43.6736004 104.0569499
  69.7146183  44.7296272 104.8078259  72.7660000  47.4543563  98.9404038
  72.0970375  47.9389691  98.4568078  72.6272870  47.7012784  99.8547416
  64.5038999  36.9897916 102.6446038  64.5423099  36.4561507 103.4383157
  63.9979292  36.4633121 102.0257016  76.9065269  49.4887307 105.5386696
  77.4583577  49.6518928 106.3035781  77.2471462  50.0791744 104.8666721
  71.8829762  31.8362456 106.1408581  71.9471088  32.6977287 105.7285978
  71.8196882  31.2236458 105.4080939  71.3582034  33.9085589 109.7881615
  71.9854073  33.5262666 110.4019139  70.5009953  33.6899791 110.1537307
  81.7576143  44.3148564 111.3935350  82.3016047  44.9278522 110.8990305
  81.1762988  44.8728143 111.9102363  68.1347577  35.7162018  95.7199970
  68.4301018  34.8072697  95.6667024  67.2335613  35.6949758  95.3980972
  80.0433656  47.4369282 102.5250378  79.9184795  46.6359022 102.0161324
  80.7012747  47.9315476 102.0364348  71.6641824  33.7918015 101.7027518
  70.9428410  34.4053982 101.5634992  72.4535080  34.3275780 101.6244164
  82.1068564  45.2378302 104.1529928  81.1598900  45.1183653 104.0808255
  82.4551337  44.3500800 104.2356190  74.4668138  31.1272441 107.9768170
  74.9902539  31.3734738 108.7394479  74.2480471  31.9592476 107.5571308
  69.8635419  33.3976116  95.8439295  69.5348125  32.5173495  95.6614401
  70.2174789  33.3423784  96.7315684  79.1114998  45.0331018 100.3534281
  78.9639960  44.1047726 100.5341851  79.9368491  45.0551109  99.8691356
  72.9777242  33.6849086  96.2114773  73.3173314  34.2135007  95.4893381
  73.4249362  34.0229492  96.9873339  82.7149119  45.8559577 101.4399153
  83.6395667  45.6502439 101.3023604  82.5464423  45.6075978 102.3488495
  75.6720683  32.0686136 105.6617841  75.3317503  31.2693949 106.0638521
  74.9659689  32.3687847 105.0894674  76.3237154  29.1535449 104.1145164
  77.1463224  28.6795927 103.9924054  76.5675218  29.9325932 104.6143850
  74.9645389  32.1823707  94.4108065  75.6853751  32.5604960  93.9071782
  74.3410693  32.9012584  94.5143043  79.1076512  32.8868856  95.3466398
  79.3240126  33.7693494  95.0455226  78.6270579  32.4955070  94.6172040
  73.8475733  35.8454569 101.9237142  73.7020314  36.1594872 102.8161424
  73.3700937  36.4639470 101.3708041  75.7072116  32.8357117 101.9718032
  75.6933685  31.9398211 101.6350330  76.4244544  32.8427781 102.6056318
  77.5598247  33.2694458 104.0171159  77.3016025  34.1911528 104.0155490
  77.0283287  32.8724892 104.7071623  82.5044436  46.3745245  96.7961245
  82.6781313  45.8091667  96.0435097  82.9973327  47.1746140  96.6140735
  68.3221395  38.3859914 104.8624804  67.7774863  39.1619722 104.9945078
  69.2000745  38.7330718 104.7043925  75.1109012  31.7171498  97.2405602
  75.2324923  30.7888144  97.4396490  74.8211054  31.7310184  96.3283917
  77.9800202  29.4026408 100.3772322  78.0021899  29.4665741  99.4224301
  78.3968261  28.5630917 100.5712828  88.3583827  39.1381668  98.4151544
  88.8014973  38.3888993  98.0170668  87.4810337  39.1291804  98.0325276
  83.4919608  45.6912009  93.8958143  84.1870513  46.3118702  94.1145458
  83.8342758  44.8407360  94.1710521  69.1087417  37.5129810 107.7554960
  68.3669153  37.6612445 108.3419591  68.7880162  37.7738076 106.8921710
  85.3911031  43.1411715  95.4245474  85.9162355  43.4798987  94.6994794
  85.3033384  42.2058730  95.2408608  77.0531080  47.0545788 107.5535350
  77.3618206  46.8094935 108.4258050  77.8506562  47.2592427 107.0654221
  77.0751692  49.2083698  99.7840727  76.6356682  48.7160077 100.4773584
  77.8259809  48.6656666  99.5432802  69.5544031  45.3995239  99.7865355
  70.3802051  45.0999011  99.4063999  69.2038083  44.6302861 100.2355144
  74.5225564  44.7521707 101.8563029  73.9005573  44.0892412 101.5565256
  75.1930431  44.7782839 101.1736676  67.7552636  43.3181565 100.7454289
  66.9184544  42.8903740 100.5638290  67.7276281  43.5114009 101.6825080
  74.5950092  33.2303495 111.4495535  74.6438247  34.1065618 111.0673304
  75.1372606  32.6880888 110.8767178  85.0804937  43.7744618 110.7296672
  84.2900481  43.7568757 110.1901171  84.8438292  44.3132912 111.4845708
  85.2002812  40.6237085 108.0429400  85.2500817  40.4587092 108.9844923
  85.0916736  39.7564344 107.6527281  74.0839071  43.3025630  95.3321489
  74.2327191  43.9861095  94.6788162  74.8905514  43.2830720  95.8470945
  82.4906575  36.6068013 109.3588707  83.3916437  36.4674477 109.0672705
  82.5654549  36.7722467 110.2986884  76.8249380  33.9834867 108.2041893
  75.9552689  34.2768433 107.9324482  77.0608860  34.5675312 108.9249157
  86.7021009  43.0434026 108.2871422  86.4105817  43.4064007 109.1234883
  86.0893140  42.3301034 108.1084754  87.9016691  40.6086906 100.8073992
  88.7363583  41.0476710 100.9711552  88.0375820  40.1325559  99.9882238
  84.9508197  38.1666641 106.7551480  85.4262319  38.3594287 105.9470331
  84.0273763  38.2225827 106.5094863  71.8391704  39.3290808  96.3382558
  71.5937746  38.4253138  96.5362768  72.0087619  39.3307958  95.3962036
  79.5288414  30.2014484 105.7207314  80.0470358  30.9375511 105.3953802
  79.1743547  30.5078478 106.5554073  71.1087352  35.0619166  93.8368720
  70.4156596  35.1363520  93.1808756  70.8639103  34.2979509  94.3590236
  79.7801008  26.6214767 101.2408210  80.0602762  25.9537956 101.8668637
  80.5651615  26.8143862 100.7282874  77.5834477  45.7973761  92.8033237
  77.0108444  46.4163948  92.3503708  78.1567270  46.3473122  93.3373159
  83.6509866  35.0432401 104.9879785  84.6027289  35.1430499 105.0092009
  83.4813317  34.2510669 105.4977870  81.6724246  32.1287984 105.1739186
  81.0774178  32.4092997 104.4785675  81.3873943  32.6181885 105.9455927
  80.8031736  46.0810911  93.9341819  81.7362409  46.0156473  94.1374694
  80.7154949  46.9167178  93.4756352  83.4319753  45.3976781  90.8945766
  83.3533385  45.0636645  91.7881524  84.2529420  45.8898549  90.8937239
  86.1297944  38.2638521 104.1022085  86.0974264  37.3254521 104.2881769
  86.7398568  38.3422557 103.3687910  77.9681275  37.1334574  90.1449289
  78.9140380  37.0040782  90.2137707  77.5895520  36.3949235  90.6218717
  86.2792433  35.0549564 104.1480368  85.7631481  34.2708021 103.9610297
  87.1632381  34.7268281 104.3126888  83.9403160  28.7990580 100.1076181
  83.7427981  28.4905668 100.9919513  84.5502865  29.5252218 100.2374111
  91.9474494  39.3254527 103.2428122  92.6777882  39.0639816 103.8035825
  91.3381439  38.5883249 103.2830190  90.0289791  37.4662390 103.8402573
  89.3022955  37.3318355 103.2319065  89.6137078  37.7739219 104.6459291
  77.8519968  41.1852320 111.6049946  78.7722977  41.3630919 111.7989993
  77.8169551  40.2408365 111.4529645  76.1524192  35.0584550  90.0804174
  75.2455648  34.7617663  90.1566888  76.4300173  34.7614368  89.2138461
  67.0702133  36.3790913 100.5303221  66.7504917  35.5256221 100.2377595
  66.5235561  36.5939491 101.2861188  70.8482040  39.0953354 104.2472727
  71.0668050  40.0270462 104.2660761  71.2607814  38.7361329 105.0327531
  77.7686258  29.6021440  96.2348416  76.9586986  29.2568525  96.6103662
  78.4570675  29.2928983  96.8236027  79.6976806  28.6799486  97.8572712
  80.2507845  29.0994940  98.5162735  79.9346893  27.7535235  97.8995668
  75.7209905  34.6686560 113.6375476  75.6206632  35.6180917 113.5687567
  75.5031447  34.3404799 112.7651546  74.9222977  31.9171485  90.2216154
  75.7842141  32.2426383  90.4811971  75.1073321  31.1302981  89.7089219
  66.9390393  39.9993825 102.4996342  66.2453864  39.5847778 101.9866297
  67.6863384  40.0414361 101.9029761  83.0755613  30.7900012  97.3651377
  82.4954282  31.4484816  96.9829429  82.8091546  29.9677356  96.9538794
  81.5259180  30.1905069  99.5672697  82.0258958  30.3021604  98.7587016
  82.1694788  29.8866122 100.2073505  75.5841175  38.0983699 112.4540538
  75.1008257  38.8984059 112.6604427  75.6702115  38.1091644 111.5007982
  68.8527135  39.9312079 100.3762357  68.8297823  40.0299766  99.4244240
  69.1627772  40.7777229 100.6979523  71.5114513  41.9888234 104.4908972
  72.4657767  41.9572176 104.4238903  71.3127037  41.5278857 105.3059197
  72.1013895  40.5589350 107.0579769  72.9206784  41.0533428 107.0814607
  72.3750703  39.6421318 107.0297337  81.8580491  32.9500102  96.4207725
  80.9706346  33.2349753  96.2027920  82.2734480  32.7893865  95.5735002
  85.2095027  32.9746623 100.1362064  85.9855418  33.4643075 100.4086681
  84.4843162  33.4004677 100.5933934  87.6467586  33.6874242 101.1936005
  88.2412077  33.4469978 100.4829313  87.7194170  32.9681373 101.8209541
  69.8664742  47.5307853 101.5079169  69.7319210  46.7708254 100.9417168
  69.4496804  48.2548753 101.0407958  81.0023705  42.7144777  90.5155745
  81.7059555  42.9194779  91.1313400  80.2786354  43.2821539  90.7804828
  81.8321515  38.4654638  96.6358015  81.7756716  38.9223189  95.7965647
  82.3849857  37.7045322  96.4580858  85.6426321  34.2544370  97.4608134
  85.3863255  33.8541005  98.2916342  85.0179189  34.9688164  97.3358274
  89.9538659  36.9940443  99.9679426  89.3938217  37.0633632 100.7410988
  89.3482162  36.8181428  99.2478922  73.0233868  48.4277170 101.7197612
  72.9066252  49.3722603 101.6176302  72.2026314  48.1250732 102.1083411
  82.9110402  43.1527306  92.5654205  83.7456006  42.7208504  92.3831680
  82.7494745  42.9809320  93.4931099  82.5656294  39.6559419  93.9310544
  82.5105098  39.4903691  92.9898988  81.9402350  40.3635452  94.0872734
  67.3548809  34.8927484 107.7571966  68.0007673  34.3826437 108.2459191
  67.1465960  35.6296165 108.3315392  79.8802202  41.9608331 113.2564107
  80.7493361  42.1348983 112.8950742  79.4008953  42.7802748 113.1339836
  75.8752420  29.1567528  93.5095863  75.8631090  30.1009368  93.6664133
  76.7675842  28.9737674  93.2155324  74.0488382  49.0805432 104.9353541
  74.9515628  49.1129042 105.2520035  73.8225752  48.1505883 104.9499876
  75.8041984  47.8336419 101.5963619  74.8537615  47.8338280 101.4827991
  76.1074470  47.0869153 101.0799654  79.6904539  25.7510305  97.7641799
  78.9236935  25.1968791  97.9098482  80.1015244  25.8232174  98.6255951
  71.6946300  32.0395101 111.8546981  72.5577762  31.6831905 112.0650305
  71.1211711  31.7008995 112.5422385  91.5394677  53.6696957 102.6609382
  92.1773087  53.5503704 101.9572722  91.4215520  54.6177801 102.7197334
  88.3484384  53.6224385 102.5970906  88.0102895  53.5065450 101.7091441
  89.2174152  53.2215550 102.5771912  84.2071199  55.4759861  98.5867797
  83.6436064  55.3849798  97.8184085  84.0923594  54.6559766  99.0670290
  88.8304167  54.7759237 108.5557112  88.8192807  54.3812035 107.6837615
  88.9924806  54.0425309 109.1490883  81.7535631  56.9711053 101.4252018
  82.5456923  56.6301878 101.0098317  81.9932281  57.0806028 102.3454171
  89.7870758  59.1430829  93.8982262  89.1358738  59.7284910  93.5116276
  90.5815121  59.6737024  93.9577300  83.7126385  56.2319966  94.2969396
  84.4857261  55.6848953  94.1582272  84.0651784  57.0964216  94.5083858
  85.5511428  57.5596349 107.5036296  85.2601294  58.4641979 107.3882962
  86.1868412  57.6012876 108.2180365  86.4767635  54.9373197 104.0937655
  87.0731207  54.7129219 103.3794618  86.5342606  54.1957943 104.6963103
  86.0492663  52.3912632  91.9287846  86.3018184  51.8694154  91.1671309
  85.1117222  52.2278778  92.0314530  91.0935946  51.3948411  99.7362590
  91.8799035  50.9767834  99.3853007  91.3574650  52.2994503  99.9044238
  91.2646023  56.8321261  94.4351246  90.6291856  56.9055888  95.1472151
  90.9343430  57.4214860  93.7570326  96.4944373  51.3323644 100.6395568
  97.2269545  50.7622861 100.8733398  95.7383729  50.9445244 101.0802074
  85.7688952  54.2940738  94.1312221  85.6525210  53.6185642  94.7993306
  85.8791212  53.8073112  93.3144374  88.1120493  53.7550885  97.8358911
  87.7478700  53.2281506  98.5471832  88.9687609  53.3649355  97.6625396
  94.0169793  45.0445218 105.0990177  93.6853118  45.9140629 104.8751392
  93.4215407  44.7281502 105.7784207  87.7525980  48.7840785  92.8320259
  87.9200382  49.6521022  93.1990730  87.5623149  48.9468067  91.9081548
  90.5101313  57.2457764 104.4986089  90.2102036  58.1482803 104.3901897
  90.1652372  56.9789947 105.3507242  83.9613794  53.6971561 100.5322794
  83.0364291  53.5647775 100.7400486  84.2098207  54.4765780 101.0292736
  93.9098457  49.7640304 102.1783527  93.0015334  49.6955713 101.8842288
  93.8586052  50.2412249 103.0065352  87.7315200  51.2398443  93.8166926
  87.6114826  51.6855493  94.6552406  87.0367789  51.5883760  93.2580464
  81.3222605  53.3404834 101.3666583  81.4514986  53.5939313 102.2805995
  80.6420057  53.9332542 101.0471238  85.4922093  64.0102084  97.4657057
  85.4146122  64.9609910  97.5445538  84.8883736  63.6647957  98.1231983
  87.9839322  51.1829950 110.1218424  87.2072656  51.7423870 110.1121289
  88.6229885  51.6686733 110.6433294  95.7760103  47.9656743 103.9561401
  95.1334483  48.2589276 103.3101195  95.2715031  47.8509663 104.7614597
  93.4300267  51.7119916  94.6447260  94.3418123  51.9447303  94.4694957
  92.9209914  52.2956960  94.0822339  86.2385695  53.9915403 109.6836391
  86.9800379  54.5300447 109.4071215  85.5322680  54.6181692 109.8407943
  91.7141034  56.1344544 108.2808553  92.1224390  55.6926954 107.5363185
  90.9918296  55.5597171 108.5342745  88.0672104  51.0717150 105.6542109
  88.9133300  51.4956564 105.7976758  88.0070742  50.4150775 106.3480673
  92.0369849  56.6945734 102.0360841  91.4078711  56.8591448 101.3336909
  91.6495511  57.1087344 102.8071805  95.9159081  57.6300172  99.3905205
  95.2310119  58.0099074  98.8402238  96.0002930  58.2395499 100.1237153
  91.2171550  48.7321519 107.3123283  90.9732482  49.4863579 106.7757559
  91.4931480  49.1106866 108.1470530  93.1710012  55.2760131 105.9900549
  93.3826908  55.9191891 105.3134930  93.1239761  54.4422448 105.5222479
  90.7736241  47.8877952 102.8937121  89.9120720  48.1859205 103.1853858
  90.7998676  48.1048351 101.9618153  87.5897811  56.4320142  99.3010927
  88.0536156  56.7107845  98.5115549  87.3254609  55.5303587  99.1184017
  84.4821892  55.9791624 102.2390690  85.0523249  56.4078892 101.6008174
  85.0730004  55.6974209 102.9374875  86.5266697  52.5543295  96.1100492
  87.2290740  53.0064338  96.5774418  86.1947325  51.9127114  96.7380385
  84.9747058  51.1455051 110.4851701  84.3445719  51.8271332 110.7187098
  84.8683146  51.0338133 109.5404839  80.2692031  50.8126847 101.4117625
  79.4791085  51.0684376 100.9357736  80.7603278  51.6275185 101.5169666
  94.2855840  58.1532087 104.1622906  95.1073284  57.7512274 103.8805588
  94.2818243  58.0500321 105.1139022  82.2206776  51.1771427  98.3701102
  81.4237939  51.2890121  98.8884598  81.9932368  51.5158079  97.5041992
  88.0512444  57.7016130 106.3183617  88.1156876  58.1636537 107.1541788
  87.3423368  57.0713495 106.4465926  78.5529734  51.0657338 103.8432616
  78.8037772  51.9504348 104.1090192  79.0889282  50.8861939 103.0707708
 102.3761833  54.4970835 100.5107878 101.6225542  53.9278233 100.3551882
 102.5109375  54.4633500 101.4578512  87.7660461  59.3684237  96.1862597
  87.6306136  60.2135773  96.6147445  88.3070274  59.5703515  95.4228531
  84.2527801  45.4475817 112.8476952  83.8594747  44.8942016 113.5224596
  85.0693941  45.7586396 113.2383470  81.2189859  56.8859675  96.7590522
  81.7314379  57.6802926  96.9096087  81.8712572  56.1885966  96.6924123
  83.0284744  60.0025432  98.8413275  83.2051372  60.9243396  98.6534259
  83.8241577  59.6883851  99.2707655  87.1695762  46.8633696 110.4397209
  87.9105475  47.4640849 110.3601671  87.4013685  46.1211334 109.8815251
  82.3137100  52.0490064 108.7175438  82.1990615  51.1475321 109.0182537
  81.4581618  52.2953760 108.3660255  89.3928938  59.9907804 110.3162939
  88.9492792  59.2044182 109.9983843  90.0546151  60.1786954 109.6506830
  84.1516059  61.5203605 104.8423617  84.7023484  61.3920669 104.0700611
  83.3127535  61.8198495 104.4918510  91.4910176  60.2710604 108.3444340
  91.4728651  61.0919485 107.8524609  92.4130096  60.1464679 108.5694481
  87.9483230  57.7854733 109.1867849  88.4811567  57.0243021 108.9567157
  87.4197311  57.4928385 109.9292003  91.1152925  42.8914799 104.7161490
  90.7717194  43.7816441 104.6400601  91.4831888  42.7016457 103.8531075
  79.1838776  55.2148330  97.5350092  80.0213998  55.6245338  97.3183800
  79.3617043  54.2747772  97.5050286  91.0803208  52.8823410  93.2233925
  90.5649831  53.6528015  93.4622313  90.8080516  52.2088547  93.8466987
  88.6650319  47.7273111  98.2819164  87.8091915  47.3379962  98.1024803
  89.0777271  47.8065072  97.4218949  90.1949465  45.2619454 102.6810724
  89.6914261  45.2249590 101.8678529  90.4880072  46.1712197 102.7407380
  86.4392351  45.3458184 101.6876905  87.3045348  45.1500993 101.3282795
  86.5069860  45.1168536 102.6146262  96.0537482  55.6355765  95.1587099
  95.2766925  55.2966925  94.7142261  96.7328963  55.6408388  94.4842064
  90.8689511  50.7550502  95.0493707  90.5639646  51.0696652  95.9003850
  91.8219953  50.8331922  95.0921040  89.3135943  56.9140726  96.6986661
  88.7857304  56.1793485  96.3859898  88.8123445  57.6915402  96.4526629
  94.2928789  55.1089746 101.8153707  93.6352463  55.7989008 101.9033836
  95.0969188  55.4986178 102.1587693  84.0454670  47.5760392  99.0593272
  84.6198422  47.3535574  98.3266465  84.6325653  47.6449087  99.8121873
  93.1034248  53.4634119  99.8657649  93.6166129  54.0964111 100.3679358
  93.7535471  52.8635314  99.5001009  84.3724257  49.6064853  93.0789157
  83.5361570  49.9439540  93.3998432  84.2329027  49.4713833  92.1416294
  86.3477338  44.4501641  97.7868342  85.6941750  44.1350658  97.1624956
  86.3057812  43.8277381  98.5128164  87.4588543  54.7320936  89.7021634
  86.5515605  54.5010190  89.9012783  87.9559575  53.9358555  89.8895615
  90.3656622  63.4418443  92.6218320  89.6918321  63.7450140  93.2303278
  90.7522444  64.2447524  92.2723777  89.5815078  50.9383575 102.1115989
  88.6637640  51.1598522 101.9537677  89.9975222  51.0129885 101.2527697
  90.3650126  52.3374990  97.2418669  91.1121945  52.8496387  96.9325791
  90.6341716  52.0159043  98.1023063  88.6376776  54.8333531  94.2245624
  87.7287996  54.5492564  94.3218093  88.6671860  55.2532609  93.3648931
  93.8696044  58.4440120  97.9936791  93.4158371  57.6031030  98.0501982
  93.2390011  59.0801519  98.3311571  92.8128963  49.3732106  99.2237459
  92.0751720  48.8609493  99.5547701  93.0655737  48.9332488  98.4120736
  92.3128983  60.2816617  98.9286609  92.6051957  60.8421674  98.2098975
  92.8227604  60.5745178  99.6839769  92.9140591  42.1508358  99.8179228
  93.2199467  41.2905722  99.5305143  93.6393196  42.7425979  99.6178222
  79.2064947  52.5539045  98.2060826  79.0089347  51.9608406  97.4811892
  78.6511611  52.2491255  98.9236765  87.1861670  52.4462152 100.3255419
  87.2410280  51.4935988 100.2497896  86.3752872  52.6021591 100.8096717
  88.3352864  56.3742275  91.5633702  87.8972294  55.6578134  91.1039340
  89.0763305  56.6018389  91.0018794  85.1254030  51.0639211  98.0845798
  84.3121896  51.3633382  98.4910990  85.6213025  50.6694900  98.8020280
  87.2762608  61.0596968 100.0180063  87.2338787  61.2857815  99.0888595
  88.1925307  60.8260343 100.1665864  90.7228242  51.5281036 106.9160692
  91.0777630  51.7552509 107.7755158  91.3700373  51.8599413 106.2937947
  96.4525979  54.6499472  97.6210021  96.3143878  54.8401068  96.6931210
  96.0962198  55.4118854  98.0778072  84.6168105  48.6357567 103.7007033
  85.2567484  48.4946326 103.0029996  83.7845636  48.3492080 103.3245635
  96.4795359  56.7175999 102.6321292  96.9131865  56.6251288 103.4804346
  97.1926939  56.6933499 101.9941308  85.3928409  57.9359997  99.8142025
  86.1869008  57.4410317  99.6124600  84.6820101  57.4077860  99.4509731
  90.2123253  60.3178093 104.1654393  90.2660276  60.8869029 104.9332109
  89.3438035  60.4879978 103.8008430  81.7011172  52.0803079  95.8901778
  80.7708761  52.0187534  96.1071740  81.7968644  51.5579032  95.0938419
  81.6196722  48.6057892  98.4780020  81.8803539  49.5203225  98.3689180
  82.4413894  48.1382334  98.6276633  83.0921647  50.0195649 105.6478844
  83.7644700  49.8113011 104.9991493  82.2651433  49.8217735 105.2084077
  97.3410908  56.7599699 105.1654178  97.5346798  57.6645510 105.4113453
  97.2411526  56.3007118 105.9992763  88.9947219  46.6457590 107.6644505
  88.3475134  47.3447540 107.5708982  89.7648234  47.0793734 108.0320753
  92.4026017  56.9106442 110.7395058  92.2511523  56.6816994 109.8225142
  92.3930696  57.8677043 110.7526403  89.1711353  54.4838355 105.7241325
  90.1003413  54.6349514 105.5510292  88.7502383  54.5722376 104.8689971
  87.9699685  58.5089019 103.4939862  87.8310771  58.1407804 104.3665801
  87.1814281  59.0236659 103.3223820  88.5647837  63.6098116  94.8365399
  88.7399593  63.1386159  95.6511022  87.8780625  64.2363882  95.0646660
  89.5204900  57.8870622 100.8828700  89.1854733  57.8471392 101.7786350
  89.0208846  57.2215338 100.4099110  83.4949144  53.2938252 106.4081281
  83.3568942  52.5618491 107.0092820  84.4054068  53.2047152 106.1265469
  92.4564092  55.2326656  91.1565760  91.8393262  54.5073484  91.0598813
  91.9880580  55.9936017  90.8132834  86.1231445  53.0058211 105.8964961
  86.8331063  52.3651403 105.8551579  86.0800753  53.2571106 106.8191142
  94.1118223  59.9425565 108.8171540  94.0530770  59.2584785 108.1502123
  94.5137742  60.6844555 108.3652166  84.8360379  49.9923429 107.7160601
  84.2997736  49.5414168 108.3682197  84.2477087  50.1269338 106.9731065
  83.1308922  66.7587478 101.6105259  83.3705520  67.3906003 102.2884278
  82.2878119  66.4075518 101.8970618  84.2462638  49.4512081  90.2787064
  83.3692104  49.3300881  89.9149311  84.7220391  48.6598159  90.0265953
  94.1135631  57.9065149 107.0485520  93.2262409  57.5691070 107.1711919
  94.6834182  57.1748180 107.2854285  75.7664778  54.2389240 100.3728571
  76.4535818  53.9250970  99.7849587  75.6112907  55.1430605 100.0995823
  80.5699500  49.1279437 104.8013595  80.4857689  48.5205106 104.0664005
  79.7482206  49.6188455 104.8023091  87.6436784  62.5666601 104.0146763
  87.5706956  63.3721572 104.5266068  87.2014177  62.7658567 103.1894785
  87.4326564  61.8038371  97.5249585  86.6494086  62.3460051  97.6187809
  88.1319309  62.3212351  97.9243826  90.7423214  47.6133000 100.1683790
  91.2391913  46.8602963  99.8484860  89.9710195  47.6497317  99.6026999
  98.5952971  53.3173366 101.8102082  98.5842848  54.1998081 101.4396015
  97.7270351  52.9644917 101.6156619  90.1035468  62.4653435 106.1704922
  90.8163440  63.1000900 106.0980823  89.6125496  62.5617301 105.3544924
  91.8252995  56.3704688  97.7422213  90.8909273  56.4906150  97.5726918
  92.0029663  55.4677154  97.4782223  87.3258183  49.7550383  99.8955475
  86.9555970  49.2021424 100.5836380  87.8217275  49.1508517  99.3430475
  95.2125546  52.2122007  98.2772248  95.6785998  53.0449998  98.2032550
  95.6633046  51.7466988  98.9817506  85.1547381  60.2147878 106.9910493
  85.8556841  60.8484361 107.1439887  84.6842496  60.5562610 106.2306132
  93.2801777  58.5565828  95.2758400  93.5561621  58.4422423  96.1852274
  92.4106276  58.1583313  95.2370573  93.1842209  44.5802594 102.3163149
  92.2705288  44.8106821 102.4845356  93.6135310  44.6641038 103.1677181
  92.9548667  52.7692486 104.8163043  92.3020117  53.0168393 104.1615496
  93.3329047  51.9556624 104.4825520  89.9155841  62.8052179  98.9191213
  90.0978236  61.9873835  99.3818966  90.7388827  63.0219871  98.4816103
  90.2498007  61.7320364  96.1806262  90.7785773  61.2212819  95.5676424
  90.5126226  61.4162894  97.0451795  89.0036240  53.5112297 111.3029080
  88.3276877  53.4106426 111.9731455  89.8263874  53.3551511 111.7665077
  80.7515099  59.7484233 103.9241595  81.3368536  59.0027921 104.0569499
  80.5539938  60.0588190 104.8078259  83.6053754  62.7835481  98.9404038
  82.9364130  63.2681608  98.4568078  83.4666624  63.0304701  99.8547416
  75.3432754  52.3189834 102.6446038  75.3816853  51.7853424 103.4383157
  74.8373047  51.7925039 102.0257016  87.7459023  64.8179224 105.5386696
  88.2977331  64.9810846 106.3035781  88.0865217  65.4083662 104.8666721
  82.7223516  47.1654374 106.1408581  82.7864843  48.0269205 105.7285978
  82.6590637  46.5528376 105.4080939  82.1975789  49.2377507 109.7881615
  82.8247828  48.8554584 110.4019139  81.3403708  49.0191709 110.1537307
  92.5969897  59.6440482 111.3935350  93.1409801  60.2570440 110.8990305
  92.0156742  60.2020060 111.9102363  78.9741332  51.0453936  95.7199970
  79.2694773  50.1364614  95.6667024  78.0729367  51.0241675  95.3980972
  90.8827410  62.7661200 102.5250378  90.7578550  61.9650940 102.0161324
  91.5406501  63.2607393 102.0364348  82.5035579  49.1209932 101.7027518
  81.7822164  49.7345900 101.5634992  83.2928834  49.6567697 101.6244164
  92.9462319  60.5670220 104.1529928  91.9992654  60.4475571 104.0808255
  93.2945092  59.6792718 104.2356190  85.3061892  46.4564359 107.9768170
  85.8296294  46.7026655 108.7394479  85.0874225  47.2884394 107.5571308
  80.7029173  48.7268033  95.8439295  80.3741879  47.8465412  95.6614401
  81.0568544  48.6715702  96.7315684  89.9508752  60.3622936 100.3534281
  89.8033714  59.4339644 100.5341851  90.7762246  60.3843027  99.8691356
  83.8170996  49.0141003  96.2114773  84.1567069  49.5426924  95.4893381
  84.2643117  49.3521409  96.9873339  93.5542874  61.1851495 101.4399153
  94.4789421  60.9794356 101.3023604  93.3858177  60.9367896 102.3488495
  86.5114437  47.3978054 105.6617841  86.1711257  46.5985867 106.0638521
  85.8053443  47.6979765 105.0894674  87.1630909  44.4827366 104.1145164
  87.9856978  44.0087845 103.9924054  87.4068972  45.2617850 104.6143850
  85.8039143  47.5115625  94.4108065  86.5247506  47.8896878  93.9071782
  85.1804448  48.2304502  94.5143043  89.9470266  48.2160774  95.3466398
  90.1633881  49.0985412  95.0455226  89.4664333  47.8246987  94.6172040
  84.6869488  51.1746487 101.9237142  84.5414068  51.4886790 102.8161424
  84.2094691  51.7931387 101.3708041  86.5465871  48.1649035 101.9718032
  86.5327439  47.2690128 101.6350330  87.2638299  48.1719699 102.6056318
  88.3992001  48.5986375 104.0171159  88.1409779  49.5203446 104.0155490
  87.8677042  48.2016810 104.7071623  93.3438190  61.7037162  96.7961245
  93.5175068  61.1383585  96.0435097  93.8367081  62.5038057  96.6140735
  79.1615150  53.7151831 104.8624804  78.6168618  54.4911639 104.9945078
  80.0394500  54.0622636 104.7043925  85.9502767  47.0463415  97.2405602
  86.0718678  46.1180061  97.4396490  85.6604809  47.0602101  96.3283917
  88.8193957  44.7318326 100.3772322  88.8415654  44.7957659  99.4224301
  89.2362016  43.8922834 100.5712828  99.1977581  54.4673585  98.4151544
  99.6408727  53.7180910  98.0170668  98.3204092  54.4583722  98.0325276
  94.3313363  61.0203927  93.8958143  95.0264267  61.6410619  94.1145458
  94.6736513  60.1699278  94.1710521  79.9481172  52.8421728 107.7554960
  79.2062908  52.9904363 108.3419591  79.6273916  53.1029993 106.8921710
  96.2304786  58.4703632  95.4245474  96.7556110  58.8090905  94.6994794
  96.1427138  57.5350648  95.2408608  87.8924834  62.3837706 107.5535350
  88.2011961  62.1386853 108.4258050  88.6900316  62.5884344 107.0654221
  87.9145446  64.5375616  99.7840727  87.4750437  64.0451994 100.4773584
  88.6653563  63.9948583  99.5432802  80.3937785  60.7287156  99.7865355
  81.2195805  60.4290928  99.4063999  80.0431837  59.9594779 100.2355144
  85.3619319  60.0813625 101.8563029  84.7399328  59.4184330 101.5565256
  86.0324185  60.1074757 101.1736676  78.5946390  58.6473483 100.7454289
  77.7578299  58.2195657 100.5638290  78.5670036  58.8405926 101.6825080
  85.4343846  48.5595413 111.4495535  85.4832002  49.4357535 111.0673304
  85.9766360  48.0172806 110.8767178  95.9198692  59.1036536 110.7296672
  95.1294235  59.0860675 110.1901171  95.6832046  59.6424830 111.4845708
  96.0396567  55.9529002 108.0429400  96.0894572  55.7879010 108.9844923
  95.9310490  55.0856261 107.6527281  84.9232825  58.6317548  95.3321489
  85.0720946  59.3153012  94.6788162  85.7299269  58.6122638  95.8470945
  93.3300329  51.9359930 109.3588707  94.2310192  51.7966395 109.0672705
  93.4048304  52.1014385 110.2986884  87.6643135  49.3126785 108.2041893
  86.7946444  49.6060351 107.9324482  87.9002615  49.8967230 108.9249157
  97.5414764  58.3725944 108.2871422  97.2499572  58.7355924 109.1234883
  96.9286895  57.6592952 108.1084754  98.7410446  55.9378824 100.8073992
  99.5757337  56.3768628 100.9711552  98.8769575  55.4617477  99.9882238
  95.7901952  53.4958558 106.7551480  96.2656073  53.6886205 105.9470331
  94.8667517  53.5517744 106.5094863  82.6785458  54.6582726  96.3382558
  82.4331500  53.7545056  96.5362768  82.8481373  54.6599876  95.3962036
  90.3682168  45.5306402 105.7207314  90.8864112  46.2667429 105.3953802
  90.0137301  45.8370395 106.5554073  81.9481106  50.3911083  93.8368720
  81.2550351  50.4655438  93.1808756  81.7032858  49.6271427  94.3590236
  90.6194763  41.9506685 101.2408210  90.8996516  41.2829874 101.8668637
  91.4045369  42.1435780 100.7282874  88.4228231  61.1265678  92.8033237
  87.8502198  61.7455866  92.3503708  88.9961025  61.6765040  93.3373159
  94.4903621  50.3724319 104.9879785  95.4421044  50.4722416 105.0092009
  94.3207071  49.5802587 105.4977870  92.5118000  47.4579902 105.1739186
  91.9167932  47.7384914 104.4785675  92.2267697  47.9473803 105.9455927
  91.6425491  61.4102829  93.9341819  92.5756164  61.3448390  94.1374694
  91.5548704  62.2459095  93.4756352  94.2713507  60.7268699  90.8945766
  94.1927139  60.3928563  91.7881524  95.0923174  61.2190467  90.8937239
  96.9691699  53.5930438 104.1022085  96.9368019  52.6546439 104.2881769
  97.5792322  53.6714475 103.3687910  88.8075030  52.4626491  90.1449289
  89.7534134  52.3332699  90.2137707  88.4289274  51.7241153  90.6218717
  97.1186187  50.3841482 104.1480368  96.6025236  49.5999938 103.9610297
  98.0026136  50.0560198 104.3126888  94.7796914  44.1282497 100.1076181
  94.5821735  43.8197585 100.9919513  95.3896620  44.8544136 100.2374111
 102.7868248  54.6546445 103.2428122 103.5171637  54.3931733 103.8035825
 102.1775194  53.9175167 103.2830190 100.8683546  52.7954308 103.8402573
 100.1416709  52.6610273 103.2319065 100.4530832  53.1031136 104.6459291
  88.6913722  56.5144237 111.6049946  89.6116732  56.6922836 111.7989993
  88.6563305  55.5700283 111.4529645  86.9917947  50.3876468  90.0804174
  86.0849402  50.0909580  90.1566888  87.2693928  50.0906286  89.2138461
  77.9095887  51.7082831 100.5303221  77.5898671  50.8548139 100.2377595
  77.3629315  51.9231409 101.2861188  81.6875795  54.4245272 104.2472727
  81.9061804  55.3562380 104.2660761  82.1001568  54.0653246 105.0327531
  88.6080012  44.9313357  96.2348416  87.7980741  44.5860442  96.6103662
  89.2964429  44.6220901  96.8236027  90.5370561  44.0091404  97.8572712
  91.0901599  44.4286858  98.5162735  90.7740647  43.0827152  97.8995668
  86.5603660  49.9978478 113.6375476  86.4600387  50.9472835 113.5687567
  86.3425202  49.6696717 112.7651546  85.7616731  47.2463403  90.2216154
  86.6235895  47.5718301  90.4811971  85.9467075  46.4594899  89.7089219
  77.7784147  55.3285742 102.4996342  77.0847618  54.9139695 101.9866297
  78.5257138  55.3706279 101.9029761  93.9149368  46.1191929  97.3651377
  93.3348037  46.7776733  96.9829429  93.6485300  45.2969274  96.9538794
  92.3652934  45.5196987  99.5672697  92.8652712  45.6313521  98.7587016
  93.0088542  45.2158040 100.2073505  86.4234930  53.4275617 112.4540538
  85.9402012  54.2275977 112.6604427  86.5095869  53.4383561 111.5007982
  79.6920890  55.2603996 100.3762357  79.6691578  55.3591684  99.4244240
  80.0021526  56.1069147 100.6979523  82.3508267  57.3180151 104.4908972
  83.3051521  57.2864094 104.4238903  82.1520791  56.8570775 105.3059197
  82.9407650  55.8881267 107.0579769  83.7600539  56.3825346 107.0814607
  83.2144457  54.9713235 107.0297337  92.6974246  48.2792020  96.4207725
  91.8100101  48.5641670  96.2027920  93.1128235  48.1185783  95.5735002
  96.0488782  48.3038541 100.1362064  96.8249172  48.7934993 100.4086681
  95.3236916  48.7296595 100.5933934  98.4861341  49.0166160 101.1936005
  99.0805831  48.7761896 100.4829313  98.5587924  48.2973290 101.8209541
  80.7058496  62.8599771 101.5079169  80.5712964  62.1000172 100.9417168
  80.2890559  63.5840671 101.0407958  91.8417459  58.0436694  90.5155745
  92.5453309  58.2486697  91.1313400  91.1180108  58.6113456  90.7804828
  92.6715270  53.7946556  96.6358015  92.6150471  54.2515107  95.7965647
  93.2243612  53.0337240  96.4580858  96.4820075  49.5836287  97.4608134
  96.2257010  49.1832923  98.2916342  95.8572943  50.2980081  97.3358274
 100.7932413  52.3232361  99.9679426 100.2331971  52.3925550 100.7410988
 100.1875917  52.1473345  99.2478922  83.8627622  63.7569088 101.7197612
  83.7460006  64.7014520 101.6176302  83.0420068  63.4542649 102.1083411
  93.7504157  58.4819224  92.5654205  94.5849761  58.0500422  92.3831680
  93.5888500  58.3101237  93.4931099  93.4050049  54.9851337  93.9310544
  93.3498853  54.8195608  92.9898988  92.7796104  55.6927370  94.0872734
  78.1942564  50.2219401 107.7571966  78.8401427  49.7118355 108.2459191
  77.9859715  50.9588083 108.3315392  90.7195956  57.2900249 113.2564107
  91.5887116  57.4640901 112.8950742  90.2402707  58.1094665 113.1339836
  86.7146174  44.4859446  93.5095863  86.7024844  45.4301286  93.6664133
  87.6069596  44.3029591  93.2155324  84.8882136  64.4097350 104.9353541
  85.7909383  64.4420960 105.2520035  84.6619506  63.4797801 104.9499876
  86.6435738  63.1628336 101.5963619  85.6931369  63.1630198 101.4827991
  86.9468224  62.4161071 101.0799654  90.5298294  41.0802222  97.7641799
  89.7630690  40.5260709  97.9098482  90.9408999  41.1524091  98.6255951
  82.5340055  47.3687018 111.8546981  83.3971516  47.0123823 112.0650305
  81.9605465  47.0300913 112.5422385 102.3788432  68.9988875 102.6609382
 103.0166842  68.8795622 101.9572722 102.2609275  69.9469719 102.7197334
  99.1878138  68.9516303 102.5970906  98.8496650  68.8357367 101.7091441
 100.0567906  68.5507468 102.5771912  95.0464954  70.8051779  98.5867797
  94.4829819  70.7141716  97.8184085  94.9317349  69.9851684  99.0670290
  99.6697921  70.1051154 108.5557112  99.6586562  69.7103953 107.6837615
  99.8318560  69.3717227 109.1490883  92.5929386  72.3002971 101.4252018
  93.3850678  71.9593795 101.0098317  92.8326036  72.4097946 102.3454171
 100.6264512  74.4722747  93.8982262  99.9752492  75.0576827  93.5116276
 101.4208875  75.0028942  93.9577300  94.5520140  71.5611884  94.2969396
  95.3251016  71.0140871  94.1582272  94.9045538  72.4256133  94.5083858
  96.3905182  72.8888266 107.5036296  96.0995048  73.7933897 107.3882962
  97.0262167  72.9304794 108.2180365  97.3161389  70.2665115 104.0937655
  97.9124961  70.0421137 103.3794618  97.3736361  69.5249860 104.6963103
  96.8886417  67.7204550  91.9287846  97.1411938  67.1986071  91.1671309
  95.9510977  67.5570696  92.0314530 101.9329700  66.7240328  99.7362590
 102.7192789  66.3059752  99.3853007 102.1968405  67.6286421  99.9044238
 102.1039778  72.1613179  94.4351246 101.4685611  72.2347805  95.1472151
 101.7737184  72.7506778  93.7570326 107.3338127  66.6615562 100.6395568
 108.0663299  66.0914778 100.8733398 106.5777483  66.2737162 101.0802074
  96.6082706  69.6232656  94.1312221  96.4918964  68.9477559  94.7993306
  96.7184966  69.1365030  93.3144374  98.9514247  69.0842803  97.8358911
  98.5872454  68.5573424  98.5471832  99.8081363  68.6941272  97.6625396
 104.8563548  60.3737136 105.0990177 104.5246872  61.2432547 104.8751392
 104.2609161  60.0573420 105.7784207  98.5919734  64.1132703  92.8320259
  98.7594136  64.9812939  93.1990730  98.4016903  64.2759985  91.9081548
 101.3495067  72.5749682 104.4986089 101.0495790  73.4774721 104.3901897
 101.0046127  72.3081865 105.3507242  94.8007549  69.0263479 100.5322794
  93.8758045  68.8939693 100.7400486  95.0491962  69.8057698 101.0292736
 104.7492211  65.0932222 102.1783527 103.8409088  65.0247630 101.8842288
 104.6979807  65.5704167 103.0065352  98.5708955  66.5690360  93.8166926
  98.4508580  67.0147411  94.6552406  97.8761543  66.9175678  93.2580464
  92.1616360  68.6696752 101.3666583  92.2908741  68.9231231 102.2805995
  91.4813811  69.2624460 101.0471238  96.3315847  79.3394002  97.4657057
  96.2539877  80.2901827  97.5445538  95.7277491  78.9939875  98.1231983
  98.8233077  66.5121868 110.1218424  98.0466411  67.0715788 110.1121289
  99.4623640  66.9978651 110.6433294 106.6153857  63.2948660 103.9561401
 105.9728238  63.5881194 103.3101195 106.1108786  63.1801581 104.7614597
 104.2694021  67.0411834  94.6447260 105.1811877  67.2739220  94.4694957
 103.7603668  67.6248878  94.0822339  97.0779449  69.3207321 109.6836391
  97.8194133  69.8592365 109.4071215  96.3716435  69.9473610 109.8407943
 102.5534789  71.4636461 108.2808553 102.9618145  71.0218872 107.5363185
 101.8312050  70.8889089 108.5342745  98.9065859  66.4009068 105.6542109
  99.7527054  66.8248482 105.7976758  98.8464496  65.7442692 106.3480673
 102.8763603  72.0237652 102.0360841 102.2472466  72.1883366 101.3336909
 102.4889265  72.4379262 102.8071805 106.7552835  72.9592090  99.3905205
 106.0703873  73.3390991  98.8402238 106.8396685  73.5687416 100.1237153
 102.0565304  64.0613436 107.3123283 101.8126236  64.8155497 106.7757559
 102.3325235  64.4398784 108.1470530 104.0103767  70.6052049 105.9900549
 104.2220662  71.2483809 105.3134930 103.9633515  69.7714365 105.5222479
 101.6129996  63.2169870 102.8937121 100.7514475  63.5151123 103.1853858
 101.6392431  63.4340268 101.9618153  98.4291565  71.7612060  99.3010927
  98.8929911  72.0399763  98.5115549  98.1648363  70.8595505  99.1184017
  95.3215646  71.3083542 102.2390690  95.8917003  71.7370810 101.6008174
  95.9123758  71.0266126 102.9374875  97.3660451  67.8835212  96.1100492
  98.0684495  68.3356256  96.5774418  97.0341080  67.2419031  96.7380385
  95.8140813  66.4746969 110.4851701  95.1839473  67.1563250 110.7187098
  95.7076901  66.3630051 109.5404839  91.1085785  66.1418765 101.4117625
  90.3184839  66.3976294 100.9357736  91.5997033  66.9567103 101.5169666
 105.1249595  73.4824004 104.1622906 105.9467039  73.0804192 103.8805588
 105.1211998  73.3792238 105.1139022  93.0600531  66.5063344  98.3701102
  92.2631694  66.6182039  98.8884598  92.8326123  66.8449997  97.5041992
  98.8906198  73.0308048 106.3183617  98.9550631  73.4928455 107.1541788
  98.1817122  72.4005412 106.4465926  89.3923488  66.3949256 103.8432616
  89.6431527  67.2796265 104.1090192  89.9283037  66.2153857 103.0707708
 113.2155588  69.8262753 100.5107878 112.4619296  69.2570151 100.3551882
 113.3503129  69.7925417 101.4578512  98.6054216  74.6976155  96.1862597
  98.4699891  75.5427691  96.6147445  99.1464028  74.8995433  95.4228531
  95.0921556  60.7767735 112.8476952  94.6988501  60.2233933 113.5224596
  95.9087696  61.0878313 113.2383470  92.0583613  72.2151593  96.7590522
  92.5708134  73.0094843  96.9096087  92.7106326  71.5177884  96.6924123
  93.8678498  75.3317349  98.8413275  94.0445126  76.2535314  98.6534259
  94.6635332  75.0175769  99.2707655  98.0089517  62.1925614 110.4397209
  98.7499230  62.7932767 110.3601671  98.2407439  61.4503252 109.8815251
  93.1530855  67.3781981 108.7175438  93.0384370  66.4767239 109.0182537
  92.2975372  67.6245678 108.3660255 100.2322692  75.3199722 110.3162939
  99.7886547  74.5336100 109.9983843 100.8939906  75.5078872 109.6506830
  94.9909814  76.8495523 104.8423617  95.5417239  76.7212587 104.0700611
  94.1521289  77.1490412 104.4918510 102.3303930  75.6002522 108.3444340
 102.3122406  76.4211403 107.8524609 103.2523850  75.4756597 108.5694481
  98.7876985  73.1146651 109.1867849  99.3205321  72.3534939 108.9567157
  98.2591066  72.8220303 109.9292003 101.9546680  58.2206717 104.7161490
 101.6110949  59.1108359 104.6400601 102.3225642  58.0308375 103.8531075
  90.0232530  70.5440247  97.5350092  90.8607752  70.9537256  97.3183800
  90.2010798  69.6039690  97.5050286 101.9196962  68.2115328  93.2233925
 101.4043586  68.9819933  93.4622313 101.6474271  67.5380464  93.8466987
  99.5044073  63.0565029  98.2819164  98.6485670  62.6671879  98.1024803
  99.9171025  63.1356990  97.4218949 101.0343220  60.5911372 102.6810724
 100.5308016  60.5541507 101.8678529 101.3273827  61.5004115 102.7407380
  97.2786106  60.6750102 101.6876905  98.1439103  60.4792911 101.3282795
  97.3463615  60.4460454 102.6146262 106.8931236  70.9647683  95.1587099
 106.1160679  70.6258842  94.7142261 107.5722717  70.9700306  94.4842064
 101.7083265  66.0842420  95.0493707 101.4033401  66.3988569  95.9003850
 102.6613708  66.1623840  95.0921040 100.1529697  72.2432643  96.6986661
  99.6251059  71.5085403  96.3859898  99.6517200  73.0207320  96.4526629
 105.1322543  70.4381664 101.8153707 104.4746218  71.1280925 101.9033836
 105.9362942  70.8278096 102.1587693  94.8848425  62.9052310  99.0593272
  95.4592177  62.6827491  98.3266465  95.4719407  62.9741004  99.8121873
 103.9428002  68.7926037  99.8657649 104.4559884  69.4256028 100.3679358
 104.5929226  68.1927232  99.5001009  95.2118012  64.9356771  93.0789157
  94.3755324  65.2731457  93.3998432  95.0722782  64.8005751  92.1416294
  97.1871093  59.7793559  97.7868342  96.5335505  59.4642576  97.1624956
  97.1451567  59.1569299  98.5128164  98.2982297  70.0612854  89.7021634
  97.3909359  69.8302107  89.9012783  98.7953329  69.2650473  89.8895615
 101.2050376  78.7710361  92.6218320 100.5312075  79.0742058  93.2303278
 101.5916198  79.5739441  92.2723777 100.4208833  66.2675492 102.1115989
  99.5031394  66.4890439 101.9537677 100.8368977  66.3421803 101.2527697
 101.2043881  67.6666908  97.2418669 101.9515700  68.1788305  96.9325791
 101.4735470  67.3450961  98.1023063  99.4770531  70.1625449  94.2245624
  98.5681750  69.8784481  94.3218093  99.5065615  70.5824527  93.3648931
 104.7089798  73.7732038  97.9936791 104.2552125  72.9322948  98.0501982
 104.0783765  74.4093436  98.3311571 103.6522718  64.7024024  99.2237459
 102.9145475  64.1901410  99.5547701 103.9049491  64.2624406  98.4120736
 103.1522738  75.6108535  98.9286609 103.4445712  76.1713592  98.2098975
 103.6621358  75.9037096  99.6839769 103.7534345  57.4800276  99.8179228
 104.0593222  56.6197640  99.5305143 104.4786950  58.0717896  99.6178222
  90.0458701  67.8830963  98.2060826  89.8483101  67.2900323  97.4811892
  89.4905365  67.5783173  98.9236765  98.0255425  67.7754069 100.3255419
  98.0804035  66.8227906 100.2497896  97.2146627  67.9313508 100.8096717
  99.1746619  71.7034192  91.5633702  98.7366049  70.9870051  91.1039340
  99.9157060  71.9310307  91.0018794  95.9647785  66.3931129  98.0845798
  95.1515650  66.6925299  98.4910990  96.4606779  65.9986818  98.8020280
  98.1156363  76.3888886 100.0180063  98.0732542  76.6149732  99.0888595
  99.0319062  76.1552260 100.1665864 101.5621997  66.8572953 106.9160692
 101.9171384  67.0844427 107.7755158 102.2094128  67.1891330 106.2937947
 107.2919733  69.9791389  97.6210021 107.1537632  70.1692985  96.6931210
 106.9355952  70.7410772  98.0778072  95.4561860  63.9649484 103.7007033
  96.0961239  63.8238244 103.0029996  94.6239390  63.6783998 103.3245635
 107.3189113  72.0467916 102.6321292 107.7525620  71.9543205 103.4804346
 108.0320694  72.0225417 101.9941308  96.2322164  73.2651915  99.8142025
  97.0262762  72.7702235  99.6124600  95.5213856  72.7369778  99.4509731
 101.0517008  75.6470010 104.1654393 101.1054030  76.2160947 104.9332109
 100.1831789  75.8171895 103.8008430  92.5404927  67.4094997  95.8901778
  91.6102515  67.3479452  96.1071740  92.6362399  66.8870949  95.0938419
  92.4590476  63.9349809  98.4780020  92.7197293  64.8495143  98.3689180
  93.2807648  63.4674252  98.6276633  93.9315401  65.3487567 105.6478844
  94.6038455  65.1404929 104.9991493  93.1045188  65.1509653 105.2084077
 108.1804663  72.0891617 105.1654178 108.3740553  72.9937427 105.4113453
 108.0805281  71.6299036 105.9992763  99.8340973  61.9749508 107.6644505
  99.1868888  62.6739457 107.5708982 100.6041989  62.4085651 108.0320753
 103.2419771  72.2398360 110.7395058 103.0905278  72.0108911 109.8225142
 103.2324451  73.1968961 110.7526403 100.0105108  69.8130272 105.7241325
 100.9397168  69.9641432 105.5510292  99.5896138  69.9014293 104.8689971
  98.8093440  73.8380937 103.4939862  98.6704525  73.4699721 104.3665801
  98.0208036  74.3528576 103.3223820  99.4041591  78.9390033  94.8365399
  99.5793347  78.4678077  95.6511022  98.7174379  79.5655800  95.0646660
 100.3598655  73.2162540 100.8828700 100.0248487  73.1763310 101.7786350
  99.8602600  72.5507255 100.4099110  94.3342899  68.6230170 106.4081281
  94.1962697  67.8910408 107.0092820  95.2447822  68.5339070 106.1265469
 103.2957846  70.5618574  91.1565760 102.6787017  69.8365402  91.0598813
 102.8274335  71.3227934  90.8132834  96.9625199  68.3350129 105.8964961
  97.6724818  67.6943321 105.8551579  96.9194507  68.5863024 106.8191142
 104.9511978  75.2717482 108.8171540 104.8924524  74.5876702 108.1502123
 105.3531496  76.0136472 108.3652166  95.6754133  65.3215347 107.7160601
  95.1391490  64.8706085 108.3682197  95.0870842  65.4561256 106.9731065
  93.9702677  82.0879396 101.6105259  94.2099275  82.7197920 102.2884278
  93.1271873  81.7367436 101.8970618  95.0856392  64.7803998  90.2787064
  94.2085859  64.6592799  89.9149311  95.5614145  63.9890077  90.0265953
 104.9529385  73.2357066 107.0485520 104.0656164  72.8982988 107.1711919
 105.5227936  72.5040097 107.2854285  86.6058532  69.5681158 100.3728571
  87.2929572  69.2542888  99.7849587  86.4506661  70.4722523 100.0995823
  91.4093254  64.4571355 104.8013595  91.3251443  63.8497024 104.0664005
  90.5875961  64.9480373 104.8023091  98.4830539  77.8958519 104.0146763
  98.4100710  78.7013490 104.5266068  98.0407932  78.0950484 103.1894785
  98.2720318  77.1330289  97.5249585  97.4887840  77.6751969  97.6187809
  98.9713063  77.6504268  97.9243826 101.5816968  62.9424918 100.1683790
 102.0785668  62.1894880  99.8484860 100.8103950  62.9789235  99.6026999
 109.4346726  68.6465284 101.8102082 109.4236602  69.5289999 101.4396015
 108.5664105  68.2936834 101.6156619 100.9429222  77.7945353 106.1704922
 101.6557194  78.4292817 106.0980823 100.4519251  77.8909219 105.3544924
 102.6646749  71.6996605  97.7422213 101.7303028  71.8198068  97.5726918
 102.8423418  70.7969072  97.4782223  98.1651937  65.0842301  99.8955475
  97.7949725  64.5313341 100.5836380  98.6611030  64.4800435  99.3430475
 106.0519300  67.5413925  98.2772248 106.5179753  68.3741916  98.2032550
 106.5026801  67.0758906  98.9817506  95.9941136  75.5439796 106.9910493
  96.6950595  76.1776279 107.1439887  95.5236251  75.8854528 106.2306132
 104.1195532  73.8857746  95.2758400 104.3955375  73.7714340  96.1852274
 103.2500030  73.4875231  95.2370573 104.0235963  59.9094512 102.3163149
 103.1099043  60.1398738 102.4845356 104.4529065  59.9932956 103.1677181
 103.7942422  68.0984403 104.8163043 103.1413872  68.3460311 104.1615496
 104.1722802  67.2848542 104.4825520 100.7549596  78.1344097  98.9191213
 100.9371990  77.3165753  99.3818966 101.5782582  78.3511789  98.4816103
 101.0891761  77.0612282  96.1806262 101.6179527  76.5504736  95.5676424
 101.3519981  76.7454812  97.0451795  99.8429995  68.8404215 111.3029080
  99.1670632  68.7398344 111.9731455 100.6657629  68.6843428 111.7665077
  91.5908854  75.0776151 103.9241595  92.1762291  74.3319839 104.0569499
  91.3933692  75.3880108 104.8078259  94.4447509  78.1127398  98.9404038
  93.7757884  78.5973526  98.4568078  94.3060379  78.3596619  99.8547416
  86.1826508  67.6481751 102.6446038  86.2210608  67.1145342 103.4383157
  85.6766801  67.1216957 102.0257016  98.5852778  80.1471142 105.5386696
  99.1371086  80.3102764 106.3035781  98.9258971  80.7375580 104.8666721
  93.5617271  62.4946292 106.1408581  93.6258597  63.3561123 105.7285978
  93.4984391  61.8820293 105.4080939  93.0369543  64.5669424 109.7881615
  93.6641582  64.1846502 110.4019139  92.1797462  64.3483626 110.1537307
  89.8135086  66.3745853  95.7199970  90.1088527  65.4656532  95.6667024
  88.9123122  66.3533593  95.3980972 101.7221165  78.0953118 102.5250378
 101.5972304  77.2942857 102.0161324 102.3800256  78.5899311 102.0364348
  93.3429333  64.4501850 101.7027518  92.6215919  65.0637818 101.5634992
  94.1322589  64.9859615 101.6244164 103.7856073  75.8962138 104.1529928
 102.8386409  75.7767489 104.0808255 104.1338846  75.0084636 104.2356190
  96.1455647  61.7856277 107.9768170  96.6690048  62.0318573 108.7394479
  95.9267980  62.6176311 107.5571308  91.5422928  64.0559951  95.8439295
  91.2135634  63.1757330  95.6614401  91.8962298  64.0007620  96.7315684
 100.7902507  75.6914854 100.3534281 100.6427469  74.7631561 100.5341851
 101.6156000  75.7134945  99.8691356  94.6564751  64.3432921  96.2114773
  94.9960823  64.8718842  95.4893381  95.1036871  64.6813327  96.9873339
 104.3936628  76.5143413 101.4399153 105.3183176  76.3086274 101.3023604
 104.2251932  76.2659814 102.3488495  97.3508192  62.7269972 105.6617841
  97.0105012  61.9277785 106.0638521  96.6447198  63.0271682 105.0894674
  98.0024663  59.8119284 104.1145164  98.8250733  59.3379762 103.9924054
  98.2462727  60.5909768 104.6143850  96.6432898  62.8407543  94.4108065
  97.3641260  63.2188795  93.9071782  96.0198202  63.5596419  94.5143043
 100.7864021  63.5452691  95.3466398 101.0027635  64.4277329  95.0455226
 100.3058088  63.1538905  94.6172040  95.5263242  66.5038405 101.9237142
  95.3807823  66.8178708 102.8161424  95.0488446  67.1223305 101.3708041
  97.3859625  63.4940953 101.9718032  97.3721194  62.5982046 101.6350330
  98.1032053  63.5011616 102.6056318  99.2385756  63.9278293 104.0171159
  98.9803534  64.8495364 104.0155490  98.7070796  63.5308727 104.7071623
 104.1831945  77.0329080  96.7961245 104.3568822  76.4675502  96.0435097
 104.6760836  77.8329975  96.6140735  90.0008904  69.0443749 104.8624804
  89.4562372  69.8203557 104.9945078  90.8788254  69.3914554 104.7043925
  96.7896521  62.3755333  97.2405602  96.9112432  61.4471979  97.4396490
  96.4998563  62.3894019  96.3283917  99.6587711  60.0610243 100.3772322
  99.6809408  60.1249576  99.4224301 100.0755770  59.2214752 100.5712828
 110.0371336  69.7965503  98.4151544 110.4802482  69.0472828  98.0170668
 109.1597846  69.7875639  98.0325276 105.1707117  76.3495844  93.8958143
 105.8658022  76.9702537  94.1145458 105.5130267  75.4991196  94.1710521
  90.7874926  68.1713645 107.7554960  90.0456662  68.3196281 108.3419591
  90.4667671  68.4321911 106.8921710 107.0698540  73.7995550  95.4245474
 107.5949864  74.1382823  94.6994794 106.9820893  72.8642565  95.2408608
  98.7318589  77.7129624 107.5535350  99.0405715  77.4678770 108.4258050
  99.5294071  77.9176262 107.0654221  98.7539201  79.8667533  99.7840727
  98.3144191  79.3743912 100.4773584  99.5047318  79.3240501  99.5432802
  91.2331540  76.0579074  99.7865355  92.0589560  75.7582846  99.4063999
  90.8825592  75.2886697 100.2355144  96.2013073  75.4105542 101.8563029
  95.5793082  74.7476247 101.5565256  96.8717940  75.4366674 101.1736676
  89.4340145  73.9765401 100.7454289  88.5972053  73.5487575 100.5638290
  89.4063790  74.1697844 101.6825080  96.2737601  63.8887330 111.4495535
  96.3225756  64.7649453 111.0673304  96.8160115  63.3464723 110.8767178
 106.8790321  71.2820920 108.0429400 106.9288326  71.1170927 108.9844923
 106.7704245  70.4148179 107.6527281  95.7626580  73.9609466  95.3321489
  95.9114700  74.6444930  94.6788162  96.5693023  73.9414556  95.8470945
 104.1694084  67.2651848 109.3588707 105.0703946  67.1258313 109.0672705
 104.2442058  67.4306303 110.2986884  98.5036889  64.6418703 108.2041893
  97.6340198  64.9352269 107.9324482  98.7396369  65.2259148 108.9249157
 108.3808518  73.7017861 108.2871422 108.0893326  74.0647842 109.1234883
 107.7680649  72.9884870 108.1084754 109.5804200  71.2670741 100.8073992
 110.4151092  71.7060545 100.9711552 109.7163329  70.7909394  99.9882238
 106.6295706  68.8250476 106.7551480 107.1049828  69.0178122 105.9470331
 105.7061272  68.8809662 106.5094863  93.5179213  69.9874643  96.3382558
  93.2725255  69.0836973  96.5362768  93.6875127  69.9891794  95.3962036
 101.2075923  60.8598320 105.7207314 101.7257867  61.5959347 105.3953802
 100.8531056  61.1662313 106.5554073  92.7874860  65.7203001  93.8368720
  92.0944105  65.7947356  93.1808756  92.5426612  64.9563345  94.3590236
 101.4588517  57.2798602 101.2408210 101.7390271  56.6121791 101.8668637
 102.2439124  57.4727698 100.7282874  99.2621985  76.4557596  92.8033237
  98.6895953  77.0747783  92.3503708  99.8354779  77.0056958  93.3373159
 105.3297375  65.7016236 104.9879785 106.2814798  65.8014334 105.0092009
 105.1600826  64.9094505 105.4977870 103.3511755  62.7871819 105.1739186
 102.7561687  63.0676832 104.4785675 103.0661452  63.2765720 105.9455927
 102.4819245  76.7394746  93.9341819 103.4149918  76.6740308  94.1374694
 102.3942458  77.5751013  93.4756352 105.1107262  76.0560617  90.8945766
 105.0320893  75.7220480  91.7881524 105.9316929  76.5482384  90.8937239
 107.8085453  68.9222356 104.1022085 107.7761773  67.9838357 104.2881769
 108.4186077  69.0006393 103.3687910  99.6468784  67.7918409  90.1449289
 100.5927889  67.6624617  90.2137707  99.2683029  67.0533071  90.6218717
 107.9579942  65.7133399 104.1480368 107.4418990  64.9291856 103.9610297
 108.8419890  65.3852116 104.3126888 105.6190669  59.4574415 100.1076181
 105.4215490  59.1489503 100.9919513 106.2290374  60.1836054 100.2374111
 113.6262003  69.9838363 103.2428122 114.3565391  69.7223651 103.8035825
 113.0168948  69.2467085 103.2830190 111.7077300  68.1246225 103.8402573
 110.9810464  67.9902190 103.2319065 111.2924587  68.4323054 104.6459291
  99.5307477  71.8436155 111.6049946 100.4510486  72.0214754 111.7989993
  99.4957060  70.8992200 111.4529645  97.8311701  65.7168385  90.0804174
  96.9243157  65.4201498  90.1566888  98.1087682  65.4198203  89.2138461
  88.7489642  67.0374749 100.5303221  88.4292426  66.1840057 100.2377595
  88.2023070  67.2523327 101.2861188  92.5269549  69.7537190 104.2472727
  92.7455559  70.6854297 104.2660761  92.9395323  69.3945164 105.0327531
  99.4473767  60.2605275  96.2348416  98.6374495  59.9152360  96.6103662
 100.1358184  59.9512819  96.8236027 101.3764315  59.3383322  97.8572712
 101.9295354  59.7578775  98.5162735 101.6134402  58.4119070  97.8995668
  97.3997414  65.3270395 113.6375476  97.2994141  66.2764752 113.5687567
  97.1818956  64.9988634 112.7651546  96.6010486  62.5755320  90.2216154
  97.4629650  62.9010219  90.4811971  96.7860830  61.7886816  89.7089219
  88.6177902  70.6577660 102.4996342  87.9241373  70.2431613 101.9866297
  89.3650893  70.6998197 101.9029761 104.7543122  61.4483847  97.3651377
 104.1741791  62.1068651  96.9829429 104.4879055  60.6261192  96.9538794
 103.2046689  60.8488905  99.5672697 103.7046467  60.9605439  98.7587016
 103.8482297  60.5449957 100.2073505  97.2628684  68.7567534 112.4540538
  96.7795766  69.5567894 112.6604427  97.3489623  68.7675479 111.5007982
  90.5314644  70.5895914 100.3762357  90.5085332  70.6883601  99.4244240
  90.8415281  71.4361065 100.6979523  93.1902022  72.6472069 104.4908972
  94.1445275  72.6156011 104.4238903  92.9914546  72.1862693 105.3059197
  93.7801404  71.2173185 107.0579769  94.5994293  71.7117264 107.0814607
  94.0538212  70.3005153 107.0297337 103.5368000  63.6083937  96.4207725
 102.6493855  63.8933588  96.2027920 103.9521989  63.4477701  95.5735002
 106.8882536  63.6330458 100.1362064 107.6642927  64.1226911 100.4086681
 106.1630671  64.0588512 100.5933934 109.3255095  64.3458078 101.1936005
 109.9199586  64.1053813 100.4829313 109.3981679  63.6265208 101.8209541
  91.5452251  78.1891688 101.5079169  91.4106719  77.4292089 100.9417168
  91.1284313  78.9132588 101.0407958 102.6811214  73.3728612  90.5155745
 103.3847064  73.5778614  91.1313400 101.9573863  73.9405374  90.7804828
 103.5109024  69.1238473  96.6358015 103.4544225  69.5807025  95.7965647
 104.0637366  68.3629158  96.4580858 107.3213830  64.9128205  97.4608134
 107.0650764  64.5124841  98.2916342 106.6966698  65.6271999  97.3358274
 111.6326168  67.6524278  99.9679426 111.0725726  67.7217468 100.7410988
 111.0269671  67.4765263  99.2478922  94.7021377  79.0861005 101.7197612
  94.5853761  80.0306438 101.6176302  93.8813823  78.7834567 102.1083411
 104.5897911  73.8111141  92.5654205 105.4243515  73.3792340  92.3831680
 104.4282254  73.6393155  93.4931099 104.2443803  70.3143254  93.9310544
 104.1892607  70.1487526  92.9898988 103.6189859  71.0219287  94.0872734
  89.0336318  65.5511319 107.7571966  89.6795182  65.0410273 108.2459191
  88.8253469  66.2880001 108.3315392  97.5539929  59.8151363  93.5095863
  97.5418599  60.7593203  93.6664133  98.4463351  59.6321509  93.2155324
  95.7275891  79.7389267 104.9353541  96.6303137  79.7712878 105.2520035
  95.5013261  78.8089718 104.9499876  97.4829493  78.4920254 101.5963619
  96.5325124  78.4922116 101.4827991  97.7861979  77.7452988 101.0799654
 101.3692048  56.4094140  97.7641799 100.6024444  55.8552627  97.9098482
 101.7802753  56.4816009  98.6255951  93.3733809  62.6978936 111.8546981
  94.2365271  62.3415741 112.0650305  92.7999220  62.3592831 112.5422385
 110.0271893  84.2808220 102.5970906 109.6890404  84.1649285 101.7091441
 110.8961661  83.8799385 102.5771912 105.8858708  86.1343697  98.5867797
 105.3223573  86.0433634  97.8184085 105.7711103  85.3143601  99.0670290
 103.4323140  87.6294888 101.4252018 104.2244432  87.2885713 101.0098317
 103.6719790  87.7389863 102.3454171 111.4658267  89.8014665  93.8982262
 110.8146247  90.3868745  93.5116276 112.2602630  90.3320859  93.9577300
 105.3913894  86.8903802  94.2969396 106.1644770  86.3432789  94.1582272
 105.7439293  87.7548051  94.5083858 107.7280172  83.0496468  91.9287846
 107.9805693  82.5277989  91.1671309 106.7904731  82.8862613  92.0314530
 112.7723455  82.0532246  99.7362590 113.5586544  81.6351669  99.3853007
 113.0362159  82.9578338  99.9044238 112.9433532  87.4905096  94.4351246
 112.3079365  87.5639723  95.1472151 112.6130938  88.0798695  93.7570326
 118.1731882  81.9907479 100.6395568 118.9057054  81.4206696 100.8733398
 117.4171238  81.6029080 101.0802074 107.4476461  84.9524574  94.1312221
 107.3312719  84.2769477  94.7993306 107.5578721  84.4656948  93.3144374
 109.7908002  84.4134721  97.8358911 109.4266209  83.8865342  98.5471832
 110.6475117  84.0233190  97.6625396 115.6957302  75.7029053 105.0990177
 115.3640627  76.5724464 104.8751392 115.1002916  75.3865337 105.7784207
 109.4313489  79.4424621  92.8320259 109.5987891  80.3104857  93.1990730
 109.2410658  79.6051902  91.9081548 105.6401303  84.3555396 100.5322794
 104.7151800  84.2231610 100.7400486 105.8885716  85.1349616 101.0292736
 109.4102709  81.8982278  93.8166926 109.2902335  82.3439329  94.6552406
 108.7155298  82.2467596  93.2580464 103.0010114  83.9988670 101.3666583
 103.1302495  84.2523149 102.2805995 102.3207566  84.5916378 101.0471238
 107.1709602  94.6685920  97.4657057 107.0933631  95.6193745  97.5445538
 106.5671245  94.3231792  98.1231983 115.1087776  82.3703751  94.6447260
 116.0205632  82.6031138  94.4694957 114.5997423  82.9540795  94.0822339
 112.4523750  78.5461787 102.8937121 111.5908229  78.8443041 103.1853858
 112.4786185  78.7632186 101.9618153 109.2685320  87.0903978  99.3010927
 109.7323665  87.3691681  98.5115549 109.0042118  86.1887422  99.1184017
 106.1609401  86.6375459 102.2390690 106.7310758  87.0662728 101.6008174
 106.7517513  86.3558044 102.9374875 108.2054206  83.2127130  96.1100492
 108.9078249  83.6648174  96.5774418 107.8734834  82.5710949  96.7380385
 101.9479540  81.4710683 101.4117625 101.1578594  81.7268211 100.9357736
 102.4390787  82.2859021 101.5169666 103.8994285  81.8355262  98.3701102
 103.1025448  81.9473956  98.8884598 103.6719877  82.1741914  97.5041992
 100.2317243  81.7241173 103.8432616 100.4825281  82.6088183 104.1090192
 100.7676791  81.5445775 103.0707708 109.4447970  90.0268073  96.1862597
 109.3093645  90.8719608  96.6147445 109.9857783  90.2287350  95.4228531
 102.8977368  87.5443511  96.7590522 103.4101888  88.3386761  96.9096087
 103.5500081  86.8469801  96.6924123 104.7072253  90.6609267  98.8413275
 104.8838881  91.5827232  98.6534259 105.5029086  90.3467686  99.2707655
 112.7940434  73.5498635 104.7161490 112.4504703  74.4400276 104.6400601
 113.1619397  73.3600292 103.8531075 100.8626285  85.8732165  97.5350092
 101.7001507  86.2829173  97.3183800 101.0404552  84.9331607  97.5050286
 112.7590717  83.5407246  93.2233925 112.2437340  84.3111850  93.4622313
 112.4868025  82.8672382  93.8466987 110.3437828  78.3856947  98.2819164
 109.4879424  77.9963797  98.1024803 110.7564780  78.4648907  97.4218949
 111.8736974  75.9203290 102.6810724 111.3701770  75.8833425 101.8678529
 112.1667581  76.8296032 102.7407380 108.1179860  76.0042019 101.6876905
 108.9832857  75.8084828 101.3282795 108.1857369  75.7752371 102.6146262
 117.7324991  86.2939600  95.1587099 116.9554434  85.9550760  94.7142261
 118.4116472  86.2992224  94.4842064 112.5477020  81.4134338  95.0493707
 112.2427155  81.7280487  95.9003850 113.5007462  81.4915758  95.0921040
 110.9923452  87.5724561  96.6986661 110.4644813  86.8377321  96.3859898
 110.4910954  88.3499237  96.4526629 105.7242179  78.2344227  99.0593272
 106.2985931  78.0119409  98.3266465 106.3113162  78.3032922  99.8121873
 114.7821757  84.1217954  99.8657649 115.2953638  84.7547946 100.3679358
 115.4322980  83.5219150  99.5001009 106.0511766  80.2648688  93.0789157
 105.2149079  80.6023375  93.3998432 105.9116536  80.1297668  92.1416294
 108.0264847  75.1085476  97.7868342 107.3729259  74.7934494  97.1624956
 107.9845321  74.4861217  98.5128164 109.1376052  85.3904771  89.7021634
 108.2303114  85.1594025  89.9012783 109.6347084  84.5942391  89.8895615
 112.0444131  94.1002279  92.6218320 111.3705830  94.4033975  93.2303278
 112.4309953  94.9031359  92.2723777 111.2602587  81.5967410 102.1115989
 110.3425149  81.8182357 101.9537677 111.6762731  81.6713720 101.2527697
 112.0437635  82.9958826  97.2418669 112.7909454  83.5080223  96.9325791
 112.3129225  82.6742878  98.1023063 110.3164285  85.4917366  94.2245624
 109.4075505  85.2076399  94.3218093 110.3459369  85.9116445  93.3648931
 114.4916472  80.0315942  99.2237459 113.7539229  79.5193328  99.5547701
 114.7443246  79.5916323  98.4120736 114.5928100  72.8092194  99.8179228
 114.8986976  71.9489557  99.5305143 115.3180704  73.4009814  99.6178222
 100.8852456  83.2122880  98.2060826 100.6876856  82.6192241  97.4811892
 100.3299120  82.9075091  98.9236765 108.8649179  83.1045987 100.3255419
 108.9197789  82.1519823 100.2497896 108.0540381  83.2605426 100.8096717
 110.0140373  87.0326110  91.5633702 109.5759803  86.3161969  91.1039340
 110.7550814  87.2602225  91.0018794 106.8041539  81.7223047  98.0845798
 105.9909405  82.0217217  98.4910990 107.3000534  81.3278735  98.8020280
 118.1313488  85.3083307  97.6210021 117.9931387  85.4984903  96.6931210
 117.7749707  86.0702690  98.0778072 106.2955614  79.2941402 103.7007033
 106.9354993  79.1530161 103.0029996 105.4633145  79.0075916 103.3245635
 107.0715918  88.5943833  99.8142025 107.8656516  88.0994153  99.6124600
 106.3607610  88.0661696  99.4509731 103.3798681  82.7386914  95.8901778
 102.4496270  82.6771370  96.1071740 103.4756153  82.2162867  95.0938419
 103.2984231  79.2641727  98.4780020 103.5591048  80.1787060  98.3689180
 104.1201403  78.7966170  98.6276633 104.7709156  80.6779484 105.6478844
 105.4432209  80.4696846 104.9991493 103.9438942  80.4801570 105.2084077
 110.2435346  94.2681951  94.8365399 110.4187102  93.7969994  95.6511022
 109.5568134  94.8947717  95.0646660 114.1351601  85.8910492  91.1565760
 113.5180771  85.1657320  91.0598813 113.6668089  86.6519852  90.8132834
 105.9250147  80.1095916  90.2787064 105.0479613  79.9884717  89.9149311
 106.4007900  79.3181994  90.0265953  97.4452287  84.8973076 100.3728571
  98.1323327  84.5834806  99.7849587  97.2900416  85.8014440 100.0995823
 102.2487009  79.7863272 104.8013595 102.1645198  79.1788942 104.0664005
 101.4269715  80.2772290 104.8023091 109.1114073  92.4622206  97.5249585
 108.3281595  93.0043886  97.6187809 109.8106818  92.9796186  97.9243826
 112.4210723  78.2716836 100.1683790 112.9179422  77.5186798  99.8484860
 111.6497704  78.3081152  99.6026999 113.5040504  87.0288523  97.7422213
 112.5696782  87.1489985  97.5726918 113.6817172  86.1260990  97.4782223
 109.0045692  80.4134219  99.8955475 108.6343479  79.8605259 100.5836380
 109.5004784  79.8092352  99.3430475 116.8913055  82.8705842  98.2772248
 117.3573507  83.7033834  98.2032550 117.3420555  82.4050824  98.9817506
 114.9589286  89.2149664  95.2758400 115.2349130  89.1006258  96.1852274
 114.0893785  88.8167148  95.2370573 114.8629718  75.2386429 102.3163149
 113.9492797  75.4690656 102.4845356 115.2922819  75.3224873 103.1677181
 111.9285516  92.3904199  96.1806262 112.4573282  91.8796654  95.5676424
 112.1913735  92.0746730  97.0451795  97.0220263  82.9773669 102.6446038
  97.0604362  82.4437260 103.4383157  96.5160556  82.4508874 102.0257016
 104.4011025  77.8238209 106.1408581 104.4652352  78.6853040 105.7285978
 104.3378146  77.2112211 105.4080939 100.6528841  81.7037771  95.7199970
 100.9482282  80.7948450  95.6667024  99.7516876  81.6825511  95.3980972
 104.1823088  79.7793768 101.7027518 103.4609673  80.3929735 101.5634992
 104.9716343  80.3151533 101.6244164 102.3816682  79.3851869  95.8439295
 102.0529388  78.5049248  95.6614401 102.7356053  79.3299537  96.7315684
 105.4958505  79.6724839  96.2114773 105.8354578  80.2010760  95.4893381
 105.9430626  80.0105245  96.9873339 108.1901946  78.0561889 105.6617841
 107.8498766  77.2569702 106.0638521 107.4840952  78.3563600 105.0894674
 108.8418418  75.1411202 104.1145164 109.6644487  74.6671680 103.9924054
 109.0856481  75.9201685 104.6143850 107.4826652  78.1699460  94.4108065
 108.2035015  78.5480713  93.9071782 106.8591957  78.8888337  94.5143043
 111.6257775  78.8744609  95.3466398 111.8421390  79.7569247  95.0455226
 111.1451842  78.4830823  94.6172040 106.3656997  81.8330322 101.9237142
 106.2201577  82.1470625 102.8161424 105.8882200  82.4515223 101.3708041
 108.2253380  78.8232870 101.9718032 108.2114948  77.9273964 101.6350330
 108.9425808  78.8303534 102.6056318 110.0779510  79.2570211 104.0171159
 109.8197288  80.1787281 104.0155490 109.5464551  78.8600645 104.7071623
 100.8402659  84.3735667 104.8624804 100.2956127  85.1495475 104.9945078
 101.7182009  84.7206471 104.7043925 107.6290276  77.7047251  97.2405602
 107.7506187  76.7763897  97.4396490 107.3392318  77.7185937  96.3283917
 110.4981466  75.3902161 100.3772322 110.5203163  75.4541494  99.4224301
 110.9149525  74.5506670 100.5712828 116.0100872  91.6787762  93.8958143
 116.7051776  92.2994455  94.1145458 116.3524022  90.8283113  94.1710521
 117.9092295  89.1287468  95.4245474 118.4343619  89.4674740  94.6994794
 117.8214647  88.1934483  95.2408608 102.0725294  91.3870992  99.7865355
 102.8983314  91.0874764  99.4063999 101.7219346  90.6178614 100.2355144
 100.2733899  89.3057318 100.7454289  99.4365808  88.8779493 100.5638290
 100.2457545  89.4989762 101.6825080 106.6020334  89.2901383  95.3321489
 106.7508455  89.9736848  94.6788162 107.4086778  89.2706473  95.8470945
 104.3572967  85.3166561  96.3382558 104.1119009  84.4128891  96.5362768
 104.5268882  85.3183711  95.3962036 112.0469677  76.1890237 105.7207314
 112.5651621  76.9251264 105.3953802 111.6924810  76.4954231 106.5554073
 103.6268615  81.0494919  93.8368720 102.9337860  81.1239274  93.1808756
 103.3820367  80.2855262  94.3590236 112.2982271  72.6090520 101.2408210
 112.5784025  71.9413709 101.8668637 113.0832878  72.8019615 100.7282874
 110.1015740  91.7849514  92.8033237 109.5289707  92.4039701  92.3503708
 110.6748534  92.3348875  93.3373159 113.3213000  92.0686664  93.9341819
 114.2543673  92.0032226  94.1374694 113.2336213  92.9042931  93.4756352
 115.9501016  91.3852534  90.8945766 115.8714648  91.0512398  91.7881524
 116.7710683  91.8774302  90.8937239 110.4862538  83.1210327  90.1449289
 111.4321643  82.9916535  90.2137707 110.1076783  82.3824988  90.6218717
 116.4584423  74.7866333 100.1076181 116.2609244  74.4781421 100.9919513
 117.0684129  75.5127971 100.2374111 108.6705456  81.0460303  90.0804174
 107.7636911  80.7493416  90.1566888 108.9481437  80.7490121  89.2138461
  99.5883396  82.3666666 100.5303221  99.2686180  81.5131975 100.2377595
  99.0416824  82.5815244 101.2861188 103.3663304  85.0829107 104.2472727
 103.5849313  86.0146215 104.2660761 103.7789077  84.7237082 105.0327531
 110.2867521  75.5897193  96.2348416 109.4768250  75.2444278  96.6103662
 110.9751938  75.2804736  96.8236027 112.2158070  74.6675239  97.8572712
 112.7689108  75.0870693  98.5162735 112.4528156  73.7410988  97.8995668
 107.4404240  77.9047238  90.2216154 108.3023404  78.2302136  90.4811971
 107.6254584  77.1178734  89.7089219  99.4571656  85.9869578 102.4996342
  98.7635127  85.5723531 101.9866297 100.2044647  86.0290114 101.9029761
 115.5936877  76.7775765  97.3651377 115.0135546  77.4360569  96.9829429
 115.3272809  75.9553109  96.9538794 114.0440443  76.1780822  99.5672697
 114.5440221  76.2897357  98.7587016 114.6876051  75.8741875 100.2073505
 101.3708399  85.9187832 100.3762357 101.3479087  86.0175519  99.4244240
 101.6809035  86.7652982 100.6979523 114.3761755  78.9375855  96.4207725
 113.4887610  79.2225506  96.2027920 114.7915744  78.7769618  95.5735002
 117.7276291  78.9622376 100.1362064 118.5036681  79.4518828 100.4086681
 117.0024425  79.3880430 100.5933934 120.1648850  79.6749995 101.1936005
 120.7593340  79.4345731 100.4829313 120.2375433  78.9557126 101.8209541
 113.5204968  88.7020530  90.5155745 114.2240818  88.9070532  91.1313400
 112.7967617  89.2697292  90.7804828 114.3502779  84.4530391  96.6358015
 114.2937980  84.9098942  95.7965647 114.9031121  83.6921076  96.4580858
 118.1607584  80.2420123  97.4608134 117.9044519  79.8416758  98.2916342
 117.5360452  80.9563917  97.3358274 115.4291666  89.1403059  92.5654205
 116.2637270  88.7084257  92.3831680 115.2676009  88.9685073  93.4931099
 115.0837558  85.6435172  93.9310544 115.0286362  85.4779444  92.9898988
 114.4583613  86.3511205  94.0872734  99.8730073  80.8803237 107.7571966
 100.5188936  80.3702191 108.2459191  99.6647224  81.6171918 108.3315392
 108.3933683  75.1443281  93.5095863 108.3812353  76.0885121  93.6664133
 109.2857105  74.9613427  93.2155324 112.2085803  71.7386058  97.7641799
 111.4418199  71.1844545  97.9098482 112.6196508  71.8107927  98.6255951
 116.8905521  95.5940606  93.0789157 116.0542833  95.9315293  93.3998432
 116.7510291  95.4589586  92.1416294 116.7643901  95.4387834  90.2787064
 115.8873368  95.3176634  89.9149311 117.2401654  94.6473912  90.0265953
 114.4662369  96.3786836  93.8368720 113.7731614  96.4531191  93.1808756
 114.2214121  95.6147180  94.3590236 119.5099210  96.3752221  90.0804174
 118.6030666  96.0785333  90.1566888 119.7875191  96.0782039  89.2138461
 118.2797995  93.2339156  90.2216154 119.1417159  93.5594054  90.4811971
 118.4648339  92.4470652  89.7089219 119.2327438  90.4735199  93.5095863
 119.2206108  91.4177039  93.6664133 120.1250860  90.2905344  93.2155324
  52.9740830  -4.9711546  84.1902364  52.8964860  -4.0203721  84.2690844
  52.3702474  -5.3165674  84.8477290  50.6127660  -2.2226152  88.3350566
  50.8524258  -1.5907628  89.0129584  49.7696857  -2.5738112  88.6215925
  51.0872492  -6.1978150  85.6649344  50.4182868  -5.7132022  85.1813384
  50.9485362  -5.9508929  86.5792723  55.2277761  -4.1634406  92.2632003
  55.7796069  -4.0002785  93.0281088  55.5683954  -3.5729968  91.5912028
  55.3964184  -4.4438015  86.5086034  54.9569175  -4.9361636  87.2018890
  56.1472301  -4.9865047  86.2678109  48.1877234  -6.1213860  88.2324476
  48.0531702  -6.8813459  87.6662474  47.7709296  -5.3972960  87.7653265
  51.3446360  -5.2244543  88.4442919  51.2278744  -4.2799110  88.3421609
  50.5238806  -5.5270981  88.8328718  52.3700874  -4.5716281  91.6598847
  53.2728121  -4.5392670  91.9765342  52.1438244  -5.5015830  91.6745183
  66.6696876  -0.0297328  89.3216213  66.3315387  -0.1456263  88.4336748
  67.5386644  -0.4306163  89.3017219  62.5283692   1.8238149  85.3113104
  61.9648557   1.7328086  84.5429392  62.4136087   1.0038053  85.7915596
  67.1516659   1.1237524  95.2802418  67.1405300   0.7290322  94.4082922
  67.3137298   0.3903597  95.8736190  60.0748123   3.3189340  88.1497324
  60.8669415   2.9780165  87.7343624  60.3144774   3.4284315  89.0699478
  68.1083250   5.4909116  80.6227569  67.4571230   6.0763197  80.2361583
  68.9027613   6.0215311  80.6822606  62.0338877   2.5798254  81.0214703
  62.8069753   2.0327241  80.8827579  62.3864276   3.4442503  81.2329164
  63.8723920   3.9074636  94.2281602  63.5813786   4.8120267  94.1128269
  64.5080904   3.9491163  94.9425672  64.7980127   1.2851484  90.8182962
  65.3943699   1.0607507  90.1039925  64.8555098   0.5436230  91.4208410
  64.3705155  -1.2609080  78.6533153  64.6230676  -1.7827559  77.8916616
  63.4329714  -1.4242935  78.7559837  69.5858515   3.1799548  81.1596553
  68.9504348   3.2534175  81.8717458  69.2555922   3.7693147  80.4815632
  64.0901444   0.6419026  80.8557528  63.9737702  -0.0336071  81.5238612
  64.2003704   0.1551400  80.0389681  66.4332985   0.1029173  84.5604217
  66.0691192  -0.4240206  85.2717139  67.2900101  -0.2872358  84.3870703
  68.8313805   3.5936051  91.2231396  68.5314528   4.4961090  91.1147203
  68.4864865   3.3268235  92.0752549  62.2826286   0.0449848  87.2568100
  61.3576783  -0.0873938  87.4645792  62.5310700   0.8244067  87.7538043
  59.6435098  -0.3116878  88.0911890  59.7727479  -0.0582399  89.0051301
  58.9632549   0.2810830  87.7716545  63.8134585  10.3580372  84.1902364
  63.7358615  11.3088197  84.2690844  63.2096228  10.0126244  84.8477290
  64.5598187   0.3393690  96.4081698  65.3012871   0.8778734  96.1316521
  63.8535172   0.9659979  96.5653249  70.0353527   2.4822831  95.0053859
  70.4436883   2.0405241  94.2608492  69.3130788   1.9075458  95.2588052
  70.3582341   3.0424022  88.7606148  69.7291204   3.2069736  88.0582216
  69.9708003   3.4565631  89.5317112  74.2371573   3.9778459  86.1150512
  73.5522611   4.3577361  85.5647545  74.3215422   4.5873786  86.8482460
  71.4922505   1.6238418  92.7145855  71.7039400   2.2670178  92.0380236
  71.4452253   0.7900735  92.2467785  65.9110303   2.7798430  86.0256233
  66.3748649   3.0586133  85.2360856  65.6467101   1.8781874  85.8429324
  62.8034384   2.3269911  88.9635996  63.3735741   2.7557180  88.3253481
  63.3942496   2.0452496  89.6620182  64.8479189  -1.0978418  82.8345798
  65.5503232  -0.6457374  83.3019725  64.5159818  -1.7394599  83.4625691
  63.2959551  -2.5066661  97.2097008  62.6658211  -1.8250381  97.4432404
  63.1895639  -2.6183580  96.2650146  58.5904523  -2.8394865  88.1362932
  57.8003577  -2.5837337  87.6603042  59.0815770  -2.0246527  88.2414972
  72.6068333   4.5010374  90.8868213  73.4285776   4.0990561  90.6050894
  72.6030736   4.3978608  91.8384328  60.5419268  -2.4750286  85.0946409
  59.7450432  -2.3631592  85.6129904  60.3144861  -2.1363634  84.2287299
  66.3724936   4.0494417  93.0428923  66.4369369   4.5114824  93.8787095
  65.6635860   3.4191782  93.1711233  56.8742226  -2.5864375  90.5677923
  57.1250264  -1.7017365  90.8335499  57.4101774  -2.7659773  89.7953014
  66.0872954   5.7162525  82.9107903  65.9518629   6.5614060  83.3392751
  66.6282766   5.9181802  82.1473837  59.5402351   3.2337963  83.4835829
  60.0526872   4.0281213  83.6341393  60.1925064   2.5364253  83.4169430
  61.3497236   6.3503719  85.5658582  61.5263864   7.2721684  85.3779566
  62.1454069   6.0362138  85.9952962  60.6349592  -1.6031649  95.4420745
  60.5203108  -2.5046392  95.7427844  59.7794110  -1.3567952  95.0905561
  67.7141430   6.3386091  97.0408246  67.2705284   5.5522470  96.7229150
  68.3758644   6.5265242  96.3752136  62.4728551   7.8681893  91.5668924
  63.0235976   7.7398956  90.7945918  61.6340027   8.1676782  91.2163817
  69.8122668   6.6188891  95.0689647  69.7941144   7.4397772  94.5769916
  70.7342588   6.4942966  95.2939788  66.2695722   4.1333021  95.9113155
  66.8024059   3.3721309  95.6812463  65.7409803   3.8406672  96.6537310
  57.5051268   1.5626617  84.2595399  58.3426490   1.9723625  84.0429107
  57.6829536   0.6226059  84.2295593  74.3749974   1.9834052  81.8832406
  73.5979417   1.6445212  81.4387568  75.0541455   1.9886675  81.2087371
  67.6348435   3.2619013  83.4231967  67.1069797   2.5271773  83.1105205
  67.1335938   4.0393689  83.1771936  72.6141281   1.4568034  88.5399014
  71.9564956   2.1467295  88.6279142  73.4181680   1.8464465  88.8833000
  65.7801035   1.0799223  76.4266940  64.8728097   0.8488477  76.6258089
  66.2772067   0.2836843  76.6140922  68.6869114   9.7896730  79.3463626
  68.0130813  10.0928427  79.9548584  69.0734936  10.5925811  78.9969083
  66.9589269   1.1811818  80.9490930  66.0500488   0.8970851  81.0463400
  66.9884352   1.6010897  80.0894237  72.1908536   4.7918408  84.7182098
  71.7370863   3.9509318  84.7747288  71.5602503   5.4279806  85.0556878
  70.6341475   6.6294904  85.6531916  70.9264450   7.1899961  84.9344282
  71.1440096   6.9223465  86.4085075  57.5277439  -1.0982668  84.9306133
  57.3301839  -1.6913307  84.2057199  56.9724103  -1.4030458  85.6482071
  66.6565356   2.7220562  78.2879009  66.2184786   2.0056421  77.8284646
  67.3975797   2.9496677  77.7264100  65.5975101   7.4075255  86.7425369
  65.5551279   7.6336102  85.8133901  66.5137799   7.1738630  86.8911170
  74.8007851   3.0654286  89.3566599  75.2344358   2.9729575  90.2049653
  75.5139432   3.0411786  88.7186615  63.7140901   4.2838284  86.5387332
  64.5081500   3.7888605  86.3369907  63.0032594   3.7556148  86.1755038
  68.5335746   6.6656380  90.8899700  68.5872768   7.2347316  91.6577416
  67.6650527   6.8358265  90.5253737  60.0223665  -1.5718634  82.6147085
  59.0921253  -1.6334178  82.8317047  60.1181137  -2.0942681  81.8183726
  75.6623400   3.1077987  91.8899484  75.8559291   4.0123797  92.1358759
  75.5624019   2.6485406  92.7238069  70.7238509   3.2584729  97.4640365
  70.5724016   3.0295281  96.5470449  70.7143189   4.2155331  97.4771710
  67.4923846   0.8316642  92.4486631  68.4215906   0.9827802  92.2755599
  67.0714876   0.9200663  91.5935278  66.2912177   4.8567306  90.2185169
  66.1523263   4.4886091  91.0911107  65.5026774   5.3714946  90.0469127
  66.8860329   9.9576403  81.5610706  67.0612085   9.4864446  82.3756328
  66.1993117  10.5842169  81.7891966  67.8417392   4.2348909  87.6074007
  67.5067225   4.1949679  88.5031657  67.3421338   3.5693625  87.1344417
  61.8161636  -0.3583461  93.1326588  61.6781434  -1.0903222  93.7338127
  62.7266560  -0.4474561  92.8510776  70.7776584   1.5804943  77.8811067
  70.1605755   0.8551772  77.7844119  70.3093073   2.3414304  77.5378141
  64.4443937  -0.6463502  92.6210268  65.1543556  -1.2870309  92.5796886
  64.4013245  -0.3950607  93.5436448  72.4330716   6.2903852  95.5416847
  72.3743262   5.6063072  94.8747430  72.8350234   7.0322842  95.0897473
  61.4521415  13.1065766  88.3350566  61.6918013  13.7384290  89.0129584
  60.6090611  12.7553806  88.6215925  72.4348123   4.2543436  93.7730827
  71.5474902   3.9169358  93.8957225  73.0046674   3.5226467  94.0099592
  54.0877270   0.5867528  87.0973878  54.7748310   0.2729258  86.5094893
  53.9325399   1.4908892  86.8241129  65.9649276   8.9144888  90.7392070
  65.8919448   9.7199860  91.2511374  65.5226670   9.1136854  89.9140091
  65.7539056   8.1516658  84.2494891  64.9706578   8.6938338  84.3433116
  66.4531801   8.6690638  84.6489132  68.4247960   8.8131722  92.8950228
  69.1375932   9.4479187  92.8226130  67.9337989   8.9095588  92.0790230
  70.1465487   2.7182975  84.4667520  69.2121766   2.8384437  84.2972224
  70.3242155   1.8155442  84.2027530  63.4759873   6.5626166  93.7155799
  64.1769333   7.1962649  93.8685193  63.0054988   6.9040897  92.9551439
  71.6014269   4.9044115  82.0003706  71.8774113   4.7900710  82.9097580
  70.7318768   4.5061600  81.9615879  68.2368333   9.1530466  85.6436520
  68.4190728   8.3352122  86.1064272  69.0601319   9.3698158  85.2061410
  68.5710499   8.0798651  82.9051568  69.0998265   7.5691106  82.2921730
  68.8338718   7.7641182  83.7697101  67.3248732  -0.1409416  98.0274387
  66.6489369  -0.2415287  98.6976762  68.1476366  -0.2970202  98.4910384
  59.0727592   6.0962521  90.6486902  59.6581028   5.3506209  90.7814806
  58.8752430   6.4066477  91.5323566  61.9266247   9.1313768  85.6649344
  61.2576622   9.6159896  85.1813384  61.7879116   9.3782988  86.5792723
  53.6645246  -1.3331879  89.3691345  53.7029346  -1.8668288  90.1628463
  53.1585539  -1.8596674  88.7502322  66.0671515  11.1657512  92.2632003
  66.6189823  11.3289133  93.0281088  66.4077709  11.7561949  91.5912028
  70.9182390   5.9918769  98.1180657  71.4622294   6.6048727  97.6235612
  70.3369235   6.5498347  98.6347670  57.2953824  -2.6067777  82.4445276
  57.5907265  -3.5157099  82.3912330  56.3941860  -2.6280038  82.1226279
  69.2039903   9.1139487  89.2495685  69.0791042   8.3129227  88.7406630
  69.8618994   9.6085680  88.7609655  71.2674811   6.9148507  90.8775235
  70.3205147   6.7953858  90.8053562  71.6157584   6.0271005  90.9601496
  68.2721244   6.7101223  87.0779587  68.1246207   5.7817931  87.2587157
  69.0974738   6.7321314  86.5936662  71.8755366   7.5329782  88.1644460
  72.8001914   7.3272643  88.0268911  71.7070670   7.2846183  89.0733801
  63.0081980  -2.4775226  88.6482449  62.8626561  -2.1634923  89.5406730
  62.5307184  -1.8590325  88.0953348  71.6650682   8.0515450  83.5206551
  71.8387560   7.4861872  82.7680404  72.1579574   8.8516344  83.3386041
  57.4827642   0.0630119  91.5870110  56.9381110   0.8389927  91.7190384
  58.3606992   0.4100923  91.4289232  72.6525855   7.3682214  80.6203450
  73.3476759   7.9888907  80.8390764  72.9949005   6.5177565  80.8955828
  58.2693664  -0.8099985  94.4800267  57.5275400  -0.6617350  95.0664897
  57.9486408  -0.5491719  93.6167016  74.5517278   4.8181920  82.1490780
  75.0768602   5.1569192  81.4240100  74.4639631   3.8828935  81.9653915
  66.2137327   8.7315993  94.2780657  66.5224453   8.4865140  95.1503357
  67.0112809   8.9362632  93.7899527  66.2357939  10.8853903  86.5086034
  65.7962929  10.3930281  87.2018890  66.9866056  10.3426870  86.2678109
  58.7150278   7.0765444  86.5110662  59.5408298   6.7769216  86.1309305
  58.3644330   6.3073066  86.9600450  63.6831811   6.4291912  88.5808335
  63.0611820   5.7662617  88.2810563  64.3536678   6.4553044  87.8981983
  56.9158883   4.9951770  87.4699595  56.0790791   4.5673944  87.2883597
  56.8882528   5.1884213  88.4070386  74.2411184   5.4514823  97.4541978
  73.4506728   5.4338962  96.9146478  74.0044539   5.9903117  98.2091015
  74.3609059   2.3007290  94.7674707  74.4107064   2.1357297  95.7090230
  74.2522982   1.4334549  94.3772588  63.2445318   4.9795835  82.0566796
  63.3933438   5.6631300  81.4033469  64.0511761   4.9600925  82.5716252
  75.8627256   4.7204231  95.0116728  75.5712064   5.0834212  95.8480189
  75.2499387   4.0071239  94.8330061  60.9997951   1.0061013  83.0627865
  60.7543993   0.1023343  83.2608075  61.1693865   1.0078163  82.1207343
  66.7440723   7.4743966  79.5278543  66.1714690   8.0934153  79.0749015
  67.3173517   8.0243327  80.0618465  69.9637983   7.7581116  80.6587125
  70.8968656   7.6926677  80.8620001  69.8761196   8.5937383  80.2001658
  72.5926000   7.0746986  77.6191073  72.5139631   6.7406850  78.5126831
  73.4135667   7.5668754  77.6182545  67.0126214   2.8622525  98.3295253
  67.9329224   3.0401124  98.5235299  66.9775797   1.9178570  98.1774952
  56.2308379  -1.9438882  87.2548527  55.9111164  -2.7973574  86.9622901
  55.6841808  -1.7290304  88.0106495  60.0088287   0.7723559  90.9718034
  60.2274297   1.7040667  90.9906068  60.4214061   0.4131534  91.7572838
  56.0996639   1.6764030  89.2241649  55.4060111   1.2617983  88.7111603
  56.8469630   1.7184566  88.6275068  64.7447422  -0.2246096  99.1785844
  64.2614504   0.5754264  99.3849733  64.8308361  -0.2138151  98.2253288
  58.0133382   1.6082283  87.1007664  57.9904070   1.7069971  86.1489547
  58.3234018   2.4547434  87.4224830  60.6720760   3.6658439  91.2154278
  61.6264013   3.6342381  91.1484210  60.4733283   3.2049062  92.0304504
  61.2620142   2.2359555  93.7825076  62.0813031   2.7303633  93.8059913
  61.5356950   1.3191523  93.7542643  59.0270989   9.2078058  88.2324476
  58.8925456   8.4478459  87.6662474  58.6103051   9.9318958  87.7653265
  70.1629952   4.3914982  77.2401051  70.8665802   4.5964984  77.8558707
  69.4392600   4.9591743  77.5050135  62.1840114  10.1047375  88.4442919
  62.0672499  11.0492808  88.3421609  61.3632561   9.8020937  88.8328718
  72.0716649   4.8297511  79.2899511  72.9062253   4.3978709  79.1076986
  71.9100992   4.6579524  80.2176406  71.7262541   1.3329624  80.6555851
  71.6711345   1.1673895  79.7144295  71.1008596   2.0405657  80.8118040
  56.5155056  -3.4302312  94.4817273  57.1613920  -3.9403358  94.9704498
  56.3072207  -2.6933630  95.0560698  69.0408448   3.6378536  99.9809414
  69.9099608   3.8119188  99.6196048  68.5615200   4.4572953  99.8585143
  63.2094629  10.7575637  91.6598847  64.1121875  10.7899247  91.9765342
  62.9831999   9.8276088  91.6745183  64.9648231   9.5106623  88.3208926
  64.0143862   9.5108485  88.2073298  65.2680717   8.7639358  87.8044960
  80.7000924  15.3467162  89.3854688  81.3379334  15.2273909  88.6818028
  80.5821767  16.2948006  89.4442640  77.5090630  15.2994590  89.3216213
  77.1709142  15.1835655  88.4336748  78.3780398  14.8985755  89.3017219
  73.3677446  17.1530066  85.3113104  72.8042311  17.0620003  84.5429392
  73.2529841  16.3329971  85.7915596  77.9910413  16.4529442  95.2802418
  77.9799054  16.0582240  94.4082922  78.1531053  15.7195514  95.8736190
  70.9141878  18.6481258  88.1497324  71.7063170  18.3072083  87.7343624
  71.1538528  18.7576233  89.0699478  78.9477005  20.8201034  80.6227569
  78.2964984  21.4055114  80.2361583  79.7421368  21.3507229  80.6822606
  72.8732632  17.9090171  81.0214703  73.6463508  17.3619158  80.8827579
  73.2258031  18.7734421  81.2329164  74.7117674  19.2366553  94.2281602
  74.4207540  20.1412184  94.1128269  75.3474659  19.2783081  94.9425672
  75.6373881  16.6143402  90.8182962  76.2337454  16.3899424  90.1039925
  75.6948853  15.8728147  91.4208410  75.2098910  14.0682837  78.6533153
  75.4624430  13.5464359  77.8916616  74.2723469  13.9048983  78.7559837
  80.2542193  13.0718616  86.4607896  81.0405282  12.6538039  86.1098313
  80.5180897  13.9764708  86.6289545  80.4252270  18.5091466  81.1596553
  79.7898103  18.5826093  81.8717458  80.0949676  19.0985065  80.4815632
  85.6550620  13.0093849  87.3640875  86.3875792  12.4393066  87.5978704
  84.8989975  12.6215449  87.8047380  74.9295198  15.9710943  80.8557528
  74.8131457  15.2955847  81.5238612  75.0397458  15.4843317  80.0389681
  77.2726739  15.4321090  84.5604217  76.9084947  14.9051711  85.2717139
  78.1293855  15.0419559  84.3870703  83.1776040   6.7215423  91.8235483
  82.8459365   7.5910834  91.5996698  82.5821653   6.4051707  92.5029514
  76.9132226  10.4610990  79.5565566  77.0806629  11.3291227  79.9236037
  76.7229395  10.6238272  78.6326855  79.6707560  18.9227969  91.2231396
  79.3708283  19.8253008  91.1147203  79.3258619  18.6560152  92.0752549
  73.1220041  15.3741766  87.2568100  72.1970537  15.2417980  87.4645792
  73.3704454  16.1535985  87.7538043  83.0704703  11.4410509  88.9028833
  82.1621581  11.3725918  88.6087594  83.0192299  11.9182454  89.7310659
  76.8921447  12.9168648  80.5412233  76.7721072  13.3625698  81.3797713
  76.1974036  13.2653965  79.9825771  70.4828852  15.0175039  88.0911890
  70.6121233  15.2709518  89.0051301  69.8026303  15.6102747  87.7716545
  74.6528339  25.6872289  84.1902364  74.5752369  26.6380114  84.2690844
  74.0489983  25.3418162  84.8477290  77.1445569  12.8600155  96.8463731
  76.3678903  13.4194075  96.8366595  77.7836132  13.3456938  97.3678601
  84.9366350   9.6426948  90.6806707  84.2940730   9.9359481  90.0346502
  84.4321278   9.5279868  91.4859904  82.5906513  13.3890121  81.3692567
  83.5024369  13.6217508  81.1940264  82.0816160  13.9727165  80.8067645
  75.3991941  15.6685608  96.4081698  76.1406626  16.2070652  96.1316521
  74.6928927  16.2951897  96.5653249  80.8747281  17.8114749  95.0053859
  81.2830637  17.3697159  94.2608492  80.1524543  17.2367376  95.2588052
  77.2278351  12.7487355  92.3787416  78.0739546  13.1726769  92.5222065
  77.1676989  12.0920980  93.0725979  81.1976096  18.3715939  88.7606148
  80.5684958  18.5361653  88.0582216  80.8101758  18.7857549  89.5317112
  85.0765328  19.3070377  86.1150512  84.3916366  19.6869278  85.5647545
  85.1609177  19.9165704  86.8482460  80.3777796  10.4091724  94.0368590
  80.1338728  11.1633784  93.5002865  80.6537727  10.7877071  94.8715837
  82.3316259  16.9530336  92.7145855  82.5433154  17.5962096  92.0380236
  82.2846007  16.1192653  92.2467785  79.9342488   9.5648157  89.6182427
  79.0726967   9.8629410  89.9099165  79.9604923   9.7818556  88.6863460
  76.7504058  18.1090347  86.0256233  77.2142403  18.3878050  85.2360856
  76.4860856  17.2073792  85.8429324  73.6428139  17.6561829  88.9635996
  74.2129496  18.0849097  88.3253481  74.2336250  17.3744414  89.6620182
  75.6872944  14.2313500  82.8345798  76.3896987  14.6834543  83.3019725
  75.3553572  13.5897319  83.4625691  74.1353305  12.8225256  97.2097008
  73.5051966  13.5041537  97.4432404  74.0289393  12.7108338  96.2650146
  69.4298278  12.4897052  88.1362932  68.6397332  12.7454581  87.6603042
  69.9209525  13.3045390  88.2414972  83.4462087  19.8302292  90.8868213
  84.2679531  19.4282479  90.6050894  83.4424490  19.7270526  91.8384328
  71.3813023  12.8541632  85.0946409  70.5844186  12.9660326  85.6129904
  71.1538615  13.1928284  84.2287299  77.2118691  19.3786335  93.0428923
  77.2763123  19.8406742  93.8787095  76.5029614  18.7483700  93.1711233
  67.7135981  12.7427543  90.5677923  67.9644019  13.6274553  90.8335499
  68.2495529  12.5632144  89.7953014  91.5368080  16.1741040  87.2353184
  90.7831789  15.6048438  87.0797189  91.6715621  16.1403705  88.1823819
  76.9266708  21.0454442  82.9107903  76.7912383  21.8905978  83.3392751
  77.4676521  21.2473720  82.1473837  73.4134048   7.1246022  99.5722259
  73.0200993   6.5712221 100.2469903  74.2300188   7.4356601  99.9628776
  70.3796106  18.5629880  83.4835829  70.8920626  19.3573131  83.6341393
  71.0318818  17.8656171  83.4169430  72.1890990  21.6795637  85.5658582
  72.3657619  22.6013601  85.3779566  72.9847824  21.3654056  85.9952962
  76.3302009   8.5403901  97.1642515  77.0711722   9.1411054  97.0846978
  76.5619932   7.7981539  96.6060558  71.4743347  13.7260269  95.4420745
  71.3596862  12.8245526  95.7427844  70.6187865  13.9723965  95.0905561
  78.5535185  21.6678009  97.0408246  78.1099039  20.8814387  96.7229150
  79.2152398  21.8557159  96.3752136  73.3122306  23.1973810  91.5668924
  73.8629731  23.0690874  90.7945918  72.4733782  23.4968699  91.2163817
  80.6516423  21.9480809  95.0689647  80.6334898  22.7689690  94.5769916
  81.5736343  21.8234884  95.2939788  77.1089477  19.4624938  95.9113155
  77.6417814  18.7013226  95.6812463  76.5803558  19.1698590  96.6537310
  80.2759172   4.5685004  91.4406797  79.9323441   5.4586646  91.3645908
  80.6438134   4.3786662  90.5776382  68.3445022  16.8918535  84.2595399
  69.1820244  17.3015543  84.0429107  68.5223290  15.9517977  84.2295593
  80.2409455  14.5593615  79.9479232  79.7256078  15.3298220  80.1867619
  79.9686763  13.8858751  80.5712294  77.8256566   9.4043316  85.0064470
  76.9698162   9.0150166  84.8270109  78.2383517   9.4835277  84.1464256
  79.3555712   6.9389659  89.4056030  78.8520508   6.9019795  88.5923835
  79.6486319   7.8482402  89.4652687  75.5998598   7.0228389  88.4122212
  76.4651595   6.8271198  88.0528101  75.6676107   6.7938741  89.3391569
  85.2143729  17.3125970  81.8832406  84.4373171  16.9737129  81.4387568
  85.8935210  17.3178593  81.2087371  80.0295758  12.4320707  81.7739013
  79.7245893  12.7466857  82.6249156  80.9826200  12.5102127  81.8166346
  78.4742190  18.5910931  83.4231967  77.9463551  17.8563690  83.1105205
  77.9729692  19.3685607  83.1771936  83.4535036  16.7859951  88.5399014
  82.7958710  17.4759213  88.6279142  84.2575435  17.1756383  88.8833000
  73.2060917   9.2530597  85.7838579  73.7804669   9.0305778  85.0511772
  73.7931900   9.3219292  86.5367180  82.2640494  15.1404324  86.5902955
  82.7772376  15.7734316  87.0924665  82.9141718  14.5405519  86.2246315
  73.5330504  11.2835058  79.8034464  72.6967817  11.6209745  80.1243739
  73.3935274  11.1484038  78.8661601  75.5083585   6.1271846  84.5113648
  74.8547997   5.8120863  83.8870263  75.4664059   5.5047586  85.2373471
  76.6194790  16.4091141  76.4266940  75.7121851  16.1780394  76.6258089
  77.1165822  15.6128760  76.6140922  79.5262869  25.1188648  79.3463626
  78.8524567  25.4220345  79.9548584  79.9128691  25.9217729  78.9969083
  78.7421325  12.6153779  88.8361296  77.8243887  12.8368726  88.6782984
  79.1581469  12.6900090  87.9773003  79.5256373  14.0145195  83.9663976
  80.2728192  14.5266592  83.6571098  79.7947963  13.6929248  84.8268370
  77.7983023  16.5103736  80.9490930  76.8894242  16.2262769  81.0463400
  77.8278107  16.9302814  80.0894237  83.0302291  20.1210325  84.7182098
  82.5764618  19.2801235  84.7747288  82.3996257  20.7571724  85.0556878
  81.9735210  11.0502311  85.9482765  81.2357967  10.5379698  86.2793008
  82.2261984  10.6102693  85.1366042  81.4735230  21.9586822  85.6531916
  81.7658204  22.5191879  84.9344282  81.9833850  22.2515383  86.4085075
  68.3671194  14.2309250  84.9306133  68.1695593  13.6378611  84.2057199
  67.8117858  13.9261460  85.6482071  76.3467917  14.1232356  87.0500726
  76.4016527  13.1706193  86.9743202  75.5359119  14.2791796  87.5342024
  77.4959111  18.0512480  78.2879009  77.0578541  17.3348338  77.8284646
  78.2369552  18.2788594  77.7264100  74.2860277  12.7409416  84.8091105
  73.4728143  13.0403587  85.2156297  74.7819271  12.3465105  85.5265587
  76.4368855  22.7367173  86.7425369  76.3945034  22.9628019  85.8133901
  77.3531554  22.5030548  86.8911170  79.8834489  13.2051241  93.6405998
  80.2383877  13.4322714  94.5000464  80.5306620  13.5369617  93.0183254
  85.6132226  16.3269677  84.3455327  85.4750124  16.5171273  83.4176517
  85.2568445  17.0889059  84.8023379  73.7774352  10.3127772  90.4252340
  74.4173731  10.1716531  89.7275303  72.9451882  10.0262285  90.0490942
  85.6401605  18.3946204  89.3566599  86.0738112  18.3021493  90.2049653
  86.3533186  18.3703704  88.7186615  74.5534656  19.6130202  86.5387332
  75.3475254  19.1180522  86.3369907  73.8426348  19.0848065  86.1755038
  79.3729500  21.9948298  90.8899700  79.4266523  22.5639234  91.6577416
  78.5044282  22.1650183  90.5253737  70.8617419  13.7573284  82.6147085
  69.9315007  13.6957739  82.8317047  70.9574891  13.2349237  81.8183726
  70.7802968  10.2828097  85.2025326  71.0409786  11.1973430  85.0934487
  71.6020141   9.8152539  85.3521939  72.2527894  11.6965854  92.3724151
  72.9250947  11.4883216  91.7236800  71.4257680  11.4987940  91.9329383
  86.5017155  18.4369904  91.8899484  86.6953045  19.3415715  92.1358759
  86.4017773  17.9777323  92.7238069  78.1553466   8.3227795  94.3889812
  77.5081381   9.0217744  94.2954288  78.9254481   8.7563939  94.7566060
  81.5632264  18.5876647  97.4640365  81.4117770  18.3587199  96.5470449
  81.5536943  19.5447248  97.4771710  78.3317600  16.1608560  92.4486631
  79.2609660  16.3119719  92.2755599  77.9108630  16.2492580  91.5935278
  77.1305932  20.1859224  90.2185169  76.9917017  19.8178009  91.0911107
  76.3420528  20.7006864  90.0469127  77.7254084  25.2868321  81.5610706
  77.9005839  24.8156364  82.3756328  77.0386872  25.9134087  81.7891966
  78.6811147  19.5640827  87.6074007  78.3460980  19.5241597  88.5031657
  78.1815093  18.8985543  87.1344417  72.6555391  14.9708457  93.1326588
  72.5175189  14.2388696  93.7338127  73.5660314  14.8817357  92.8510776
  81.6170339  16.9096861  77.8811067  80.9999509  16.1843689  77.7844119
  81.1486827  17.6706221  77.5378141  75.2837692  14.6828416  92.6210268
  75.9937310  14.0421608  92.5796886  75.2407000  14.9341311  93.5436448
  83.2724470  21.6195770  95.5416847  83.2137016  20.9354990  94.8747430
  83.6743989  22.3614760  95.0897473  73.9966626  11.6693634  94.4405907
  73.4603983  11.2184373  95.0927503  73.4083334  11.8039543  93.6976371
  72.2915169  28.4357683  88.3350566  72.5311767  29.0676208  89.0129584
  71.4484366  28.0845723  88.6215925  73.4068884  11.1282285  77.0032371
  72.5298351  11.0071086  76.6394617  73.8826638  10.3368364  76.7511259
  83.2741878  19.5835353  93.7730827  82.3868656  19.2461275  93.8957225
  83.8440429  18.8518385  94.0099592  64.9271025  15.9159445  87.0973878
  65.6142064  15.6021175  86.5094893  64.7719153  16.8200810  86.8241129
  69.7305747  10.8049642  91.5258902  69.6463935  10.1975311  90.7909312
  68.9088453  11.2958660  91.5268398  76.8043031  24.2436806  90.7392070
  76.7313202  25.0491777  91.2511374  76.3620424  24.4428772  89.9140091
  76.5932811  23.4808576  84.2494891  75.8100332  24.0230256  84.3433116
  77.2925556  23.9982555  84.6489132  79.9029461   9.2903205  86.8929097
  80.3998160   8.5373168  86.5730167  79.1316442   9.3267522  86.3272306
  87.7559218  14.9943571  88.5347388  87.7449094  15.8768286  88.1641321
  86.8876597  14.6415122  88.3401925  79.2641714  24.1423640  92.8950228
  79.9769687  24.7771105  92.8226130  78.7731743  24.2387506  92.0790230
  80.9859241  18.0474893  84.4667520  80.0515520  18.1676355  84.2972224
  81.1635910  17.1447359  84.2027530  76.4864429  11.4320588  86.6200781
  76.1162217  10.8791629  87.3081687  76.9823522  10.8278722  86.0675781
  84.3731793  13.8892212  85.0017554  84.8392245  14.7220203  84.9277857
  84.8239293  13.4237193  85.7062813  74.3153628  21.8918083  93.7155799
  75.0163087  22.5254566  93.8685193  73.8448743  22.2332815  92.9551439
  82.4408024  20.2336033  82.0003706  82.7167868  20.1192628  82.9097580
  81.5712523  19.8353518  81.9615879  82.3448455   6.2572799  89.0408456
  81.4311535   6.4877026  89.2090662  82.7741557   6.3411243  89.8922488
  82.1154914  14.4462691  91.5408350  81.4626364  14.6938598  90.8860802
  82.4935294  13.6326829  91.2070827  79.0762088  24.4822384  85.6436520
  79.2584482  23.6644040  86.1064272  79.8995074  24.6990076  85.2061410
  79.4104253  23.4090569  82.9051568  79.9392020  22.8983024  82.2921730
  79.6732473  23.0933099  83.7697101  78.1642487  15.1882502  98.0274387
  77.4883124  15.0876631  98.6976762  78.9870121  15.0321716  98.4910384
  69.9121346  21.4254438  90.6486902  70.4974783  20.6798126  90.7814806
  69.7146184  21.7358395  91.5323566  72.7660001  24.4605686  85.6649344
  72.0970376  24.9451813  85.1813384  72.6272871  24.7074906  86.5792723
  64.5039001  13.9960039  89.3691345  64.5423100  13.4623629  90.1628463
  63.9979294  13.4695244  88.7502322  76.9065270  26.4949429  92.2632003
  77.4583578  26.6581051  93.0281088  77.2471463  27.0853867  91.5912028
  71.8829763   8.8424579  92.8653887  71.9471090   9.7039410  92.4531285
  71.8196883   8.2298581  92.1326246  71.3582036  10.9147712  96.5126922
  71.9854074  10.5324789  97.1264446  70.5009954  10.6961914  96.8782614
  81.7576144  21.3210687  98.1180657  82.3016048  21.9340645  97.6235612
  81.1762989  21.8790265  98.6347670  68.1347578  12.7224141  82.4445276
  68.4301019  11.8134819  82.3912330  67.2335614  12.7011880  82.1226279
  80.0433657  24.4431405  89.2495685  79.9184797  23.6421145  88.7406630
  80.7012748  24.9377598  88.7609655  71.6641825  10.7980137  88.4272825
  70.9428411  11.4116105  88.2880298  72.4535081  11.3337902  88.3489471
  82.1068565  22.2440425  90.8775235  81.1598901  22.1245776  90.8053562
  82.4551339  21.3562923  90.9601496  74.4668139   8.1334564  94.7013477
  74.9902541   8.3796860  95.4639786  74.2480472   8.9654599  94.2816614
  69.8635420  10.4038238  82.5684602  69.5348126   9.5235617  82.3859708
  70.2174791  10.3485907  83.4560991  79.1114999  22.0393141  87.0779587
  78.9639961  21.1109848  87.2587157  79.9368492  22.0613232  86.5936662
  72.9777243  10.6911208  82.9360079  73.3173316  11.2197129  82.2138688
  73.4249364  11.0291614  83.7118646  82.7149121  22.8621700  88.1644460
  83.6395668  22.6564561  88.0268911  82.5464424  22.6138101  89.0733801
  75.6720684   9.0748259  92.3863147  75.3317504   8.2756072  92.7883827
  74.9659690   9.3749970  91.8139981  76.3237156   6.1597571  90.8390470
  77.1463225   5.6858050  90.7169361  76.5675219   6.9388055  91.3389157
  74.9645390   9.1885830  81.1353372  75.6853753   9.5667083  80.6317089
  74.3410694   9.9074707  81.2388350  79.1076513   9.8930979  82.0711704
  79.3240127  10.7755617  81.7700533  78.6270580   9.5017192  81.3417346
  73.8475734  12.8516692  88.6482449  73.7020315  13.1656995  89.5406730
  73.3700938  13.4701592  88.0953348  75.7072117   9.8419240  88.6963339
  75.6933686   8.9460333  88.3595636  76.4244545   9.8489904  89.3301625
  77.5598248  10.2756580  90.7416466  77.3016026  11.1973651  90.7400796
  77.0283288   9.8787015  91.4316930  82.5044437  23.3807367  83.5206551
  82.6781314  22.8153790  82.7680404  82.9973328  24.1808262  83.3386041
  68.3221397  15.3922036  91.5870110  67.7774865  16.1681844  91.7190384
  69.2000747  15.7392841  91.4289232  75.1109013   8.7233620  83.9650909
  75.2324924   7.7950266  84.1641796  74.8211056   8.7372306  83.0529224
  77.9800204   6.4088531  87.1017629  78.0021901   6.4727864  86.1469608
  78.3968263   5.5693039  87.2958135  88.3583828  16.1443790  85.1396851
  88.8014974  15.3951115  84.7415974  87.4810338  16.1353927  84.7570583
  83.4919609  22.6974132  80.6203450  84.1870514  23.3180824  80.8390764
  83.8342759  21.8469483  80.8955828  69.1087419  14.5191933  94.4800267
  68.3669155  14.6674568  95.0664897  68.7880163  14.7800198  93.6167016
  85.3911032  20.1473837  82.1490780  85.9162357  20.4861110  81.4240100
  85.3033385  19.2120853  81.9653915  77.0531081  24.0607911  94.2780657
  77.3618208  23.8157058  95.1503357  77.8506563  24.2654549  93.7899527
  77.0751693  26.2145820  86.5086034  76.6356683  25.7222199  87.2018890
  77.8259810  25.6718788  86.2678109  69.5544032  22.4057361  86.5110662
  70.3802052  22.1061133  86.1309305  69.2038084  21.6364984  86.9600450
  74.5225565  21.7583830  88.5808335  73.9005575  21.0954535  88.2810563
  75.1930432  21.7844961  87.8981983  67.7552637  20.3243688  87.4699595
  66.9184546  19.8965862  87.2883597  67.7276283  20.5176131  88.4070386
  74.5950093  10.2365618  98.1740841  74.6438248  11.1127740  97.7918611
  75.1372607   9.6943011  97.6012484  85.0804939  20.7806741  97.4541978
  84.2900482  20.7630880  96.9146478  84.8438293  21.3195035  98.2091015
  85.2002814  17.6299207  94.7674707  85.2500818  17.4649215  95.7090230
  85.0916737  16.7626466  94.3772588  74.0839072  20.3087753  82.0566796
  74.2327193  20.9923217  81.4033469  74.8905516  20.2892843  82.5716252
  82.4906576  13.6130135  96.0834014  83.3916439  13.4736600  95.7918011
  82.5654550  13.7784590  97.0232191  76.8249381  10.9896990  94.9287200
  75.9552691  11.2830556  94.6569788  77.0608862  11.5737435  95.6494464
  86.7021010  20.0496149  95.0116728  86.4105819  20.4126129  95.8480189
  86.0893142  19.3363157  94.8330061  87.9016693  17.6149029  87.5319299
  88.7363584  18.0538833  87.6956859  88.0375822  17.1387682  86.7127544
  84.9508199  15.1728763  93.4796786  85.4262320  15.3656410  92.6715638
  84.0273764  15.2287949  93.2340170  71.8391705  16.3352931  83.0627865
  71.5937747  15.4315261  83.2608075  72.0087620  16.3370081  82.1207343
  79.5288415   7.2076607  92.4452620  80.0470359   7.9437634  92.1199109
  79.1743548   7.5140600  93.2799379  71.1087353  12.0681288  80.5614026
  70.4156598  12.1425643  79.9054062  70.8639105  11.3041632  81.0835543
  77.5834478  22.8035883  79.5278543  77.0108445  23.4226070  79.0749015
  78.1567271  23.3535245  80.0618465  83.6509868  12.0494523  91.7125092
  84.6027291  12.1492621  91.7337316  83.4813318  11.2572792  92.2223176
  81.6724247   9.1350107  91.8984493  81.0774179   9.4155119  91.2030982
  81.3873944   9.6244008  92.6701234  80.8031738  23.0873033  80.6587125
  81.7362411  23.0218595  80.8620001  80.7154950  23.9229300  80.2001658
  83.4319754  22.4038904  77.6191073  83.3533386  22.0698767  78.5126831
  84.2529421  22.8960672  77.6182545  86.1297945  15.2700643  90.8267392
  86.0974266  14.3316644  91.0127075  86.7398569  15.3484680  90.0933217
  77.9681276  14.1396696  76.8694596  78.9140381  14.0102904  76.9383014
  77.5895521  13.4011358  77.3464024  86.2792434  12.0611687  90.8725675
  85.7631483  11.2770143  90.6855604  87.1632382  11.7330403  91.0372194
  83.9403161   5.8052702  86.8321488  83.7427982   5.4967790  87.7164819
  84.5502866   6.5314341  86.9619417  91.9474495  16.3316650  89.9673428
  92.6777884  16.0701938  90.5281132  91.3381441  15.5945372  90.0075496
  90.0289792  14.4724513  90.5647880  89.3022956  14.3380477  89.9564371
  89.6137079  14.7801341  91.3704598  77.8519969  18.1914442  98.3295253
  78.7722978  18.3693041  98.5235299  77.8169552  17.2470488  98.1774952
  76.1524193  12.0646672  76.8049481  75.2455649  11.7679785  76.8812195
  76.4300174  11.7676491  75.9383767  67.0702134  13.3853036  87.2548527
  66.7504918  12.5318344  86.9622901  66.5235562  13.6001614  88.0106495
  70.8482041  16.1015477  90.9718034  71.0668051  17.0332585  90.9906068
  71.2607815  15.7423451  91.7572838  77.7686259   6.6083562  82.9593722
  76.9586987   6.2630647  83.3348968  78.4570676   6.2991106  83.5481334
  79.6976807   5.6861609  84.5818019  80.2507846   6.1057062  85.2408042
  79.9346894   4.7597357  84.6240975  75.7209907  11.6748683 100.3620783
  75.6206634  12.6243040 100.2932874  75.5031449  11.3466922  99.4896853
  74.9222978   8.9233608  76.9461460  75.7842142   9.2488506  77.2057277
  75.1073322   8.1365104  76.4334526  66.9390394  17.0055947  89.2241649
  66.2453865  16.5909900  88.7111603  67.6863385  17.0476484  88.6275068
  83.0755615   7.7962134  84.0896683  82.4954284   8.4546938  83.7074736
  82.8091547   6.9739479  83.6784101  81.5259181   7.1967192  86.2918003
  82.0258959   7.3083726  85.4832322  82.1694789   6.8928245  86.9318812
  75.5841177  15.1045821  99.1785844  75.1008258  15.9046182  99.3849733
  75.6702116  15.1153766  98.2253288  68.8527136  16.9374201  87.1007664
  68.8297824  17.0361888  86.1489547  69.1627773  17.7839352  87.4224830
  71.5114514  18.9950356  91.2154278  72.4657768  18.9634299  91.1484210
  71.3127038  18.5340980  92.0304504  72.1013896  17.5651472  93.7825076
  72.9206785  18.0595551  93.8059913  72.3750704  16.6483440  93.7542643
  81.8580493   9.9562225  83.1453031  80.9706348  10.2411875  82.9273226
  82.2734482   9.7955988  82.2980308  85.2095029   9.9808746  86.8607371
  85.9855419  10.4705198  87.1331987  84.4843163  10.4066800  87.3179240
  87.6467587  10.6936365  87.9181311  88.2412078  10.4532101  87.2074619
  87.7194171   9.9743495  88.5454848  69.8664743  24.5369976  88.2324476
  69.7319211  23.7770377  87.6662474  69.4496805  25.2610876  87.7653265
  81.0023706  19.7206899  77.2401051  81.7059556  19.9256902  77.8558707
  80.2786355  20.2883661  77.5050135  81.8321516  15.4716760  83.3603322
  81.7756718  15.9285312  82.5210954  82.3849859  14.7107445  83.1826164
  85.6426322  11.2606492  84.1853441  85.3863256  10.8603128  85.0161649
  85.0179190  11.9750286  84.0603580  89.9538660  14.0002566  86.6924732
  89.3938218  14.0695755  87.4656295  89.3482163  13.8243550  85.9724229
  73.0233869  25.4339293  88.4442919  72.9066253  26.3784725  88.3421609
  72.2026315  25.1312854  88.8328718  82.9110403  20.1589428  79.2899511
  83.7456007  19.7270627  79.1076986  82.7494746  19.9871442  80.2176406
  82.5656296  16.6621542  80.6555851  82.5105099  16.4965813  79.7144295
  81.9402351  17.3697575  80.8118040  67.3548811  11.8989606  94.4817273
  68.0007674  11.3888560  94.9704498  67.1465962  12.6358288  95.0560698
  79.8802203  18.9670454  99.9809414  80.7493362  19.1411106  99.6196048
  79.4008954  19.7864870  99.8585143  75.8752421   6.1629651  80.2341169
  75.8631091   7.1071491  80.3909440  76.7675843   5.9799796  79.9400630
  74.0488383  26.0867555  91.6598847  74.9515630  26.1191165  91.9765342
  73.8225753  25.1568006  91.6745183  75.8041985  24.8398541  88.3208926
  74.8537616  24.8400403  88.2073298  76.1074471  24.0931276  87.8044960
  71.6946302   9.0457223  98.5792287  72.5577763   8.6894028  98.7895612
  71.1211712   8.7071118  99.2667691  91.5394679  30.6759080  89.3854688
  92.1773088  30.5565827  88.6818028  91.4215521  31.6239923  89.4442640
  88.3484385  30.6286508  89.3216213  88.0102896  30.5127572  88.4336748
  89.2174153  30.2277673  89.3017219  84.2071200  32.4821984  85.3113104
  83.6436066  32.3911921  84.5429392  84.0923596  31.6621889  85.7915596
  88.8304168  31.7821359  95.2802418  88.8192809  31.3874158  94.4082922
  88.9924807  31.0487432  95.8736190  81.7535632  33.9773176  88.1497324
  82.5456924  33.6364000  87.7343624  81.9932283  34.0868151  89.0699478
  89.7870759  36.1492952  80.6227569  89.1358739  36.7347032  80.2361583
  90.5815122  36.6799147  80.6822606  83.7126386  33.2382089  81.0214703
  84.4857262  32.6911076  80.8827579  84.0651785  34.1026338  81.2329164
  85.5511429  34.5658471  94.2281602  85.2601295  35.4704102  94.1128269
  86.1868413  34.6074999  94.9425672  86.4767636  31.9435320  90.8182962
  87.0731208  31.7191342  90.1039925  86.5342607  31.2020065  91.4208410
  86.0492664  29.3974755  78.6533153  86.3018185  28.8756276  77.8916616
  85.1117223  29.2340900  78.7559837  91.0935947  28.4010533  86.4607896
  91.8799036  27.9829957  86.1098313  91.3574651  29.3056626  86.6289545
  91.2646024  33.8383384  81.1596553  90.6291857  33.9118010  81.8717458
  90.9343431  34.4276983  80.4815632  96.4944374  28.3385767  87.3640875
  97.2269546  27.7684983  87.5978704  95.7383730  27.9507367  87.8047380
  85.7688953  31.3002861  80.8557528  85.6525211  30.6247764  81.5238612
  85.8791213  30.8135235  80.0389681  88.1120494  30.7613008  84.5604217
  87.7478701  30.2343629  85.2717139  88.9687610  30.3711477  84.3870703
  94.0169794  22.0507341  91.8235483  93.6853119  22.9202752  91.5996698
  93.4215408  21.7343625  92.5029514  87.7525981  25.7902908  79.5565566
  87.9200383  26.6583144  79.9236037  87.5623150  25.9530189  78.6326855
  90.5101314  34.2519887  91.2231396  90.2102037  35.1544925  91.1147203
  90.1652374  33.9852070  92.0752549  83.9613795  30.7033684  87.2568100
  83.0364292  30.5709898  87.4645792  84.2098209  31.4827903  87.7538043
  93.9098458  26.7702427  88.9028833  93.0015335  26.7017835  88.6087594
  93.8586054  27.2474372  89.7310659  87.7315202  28.2460565  80.5412233
  87.6114827  28.6917616  81.3797713  87.0367790  28.5945883  79.9825771
  81.3222607  30.3466957  88.0911890  81.4514988  30.6001436  89.0051301
  80.6420058  30.9394665  87.7716545  85.4922094  41.0164207  84.1902364
  85.4146124  41.9672032  84.2690844  84.8883737  40.6710080  84.8477290
  87.9839324  28.1892072  96.8463731  87.2072658  28.7485993  96.8366595
  88.6229887  28.6748855  97.3678601  95.7760104  24.9718865  90.6806707
  95.1334484  25.2651398  90.0346502  95.2715033  24.8571786  91.4859904
  93.4300268  28.7182038  81.3692567  94.3418124  28.9509425  81.1940264
  92.9209915  29.3019083  80.8067645  86.2385696  30.9977526  96.4081698
  86.9800380  31.5362570  96.1316521  85.5322681  31.6243815  96.5653249
  91.7141036  33.1406666  95.0053859  92.1224392  32.6989077  94.2608492
  90.9918297  32.5659294  95.2588052  88.0672106  28.0779273  92.3787416
  88.9133301  28.5018687  92.5222065  88.0070743  27.4212897  93.0725979
  92.0369850  33.7007857  88.7606148  91.4078713  33.8653571  88.0582216
  91.6495512  34.1149466  89.5317112  95.9159082  34.6362295  86.1150512
  95.2310120  35.0161196  85.5647545  96.0002931  35.2457621  86.8482460
  91.2171551  25.7383641  94.0368590  90.9732483  26.4925702  93.5002865
  91.4931481  26.1168989  94.8715837  93.1710014  32.2822254  92.7145855
  93.3826909  32.9254014  92.0380236  93.1239762  31.4484570  92.2467785
  90.7736243  24.8940074  89.6182427  89.9120722  25.1921328  89.9099165
  90.7998677  25.1110473  88.6863460  87.5897812  33.4382265  86.0256233
  88.0536158  33.7169968  85.2360856  87.3254610  32.5365710  85.8429324
  84.4821893  32.9853747  88.9635996  85.0523250  33.4141015  88.3253481
  85.0730005  32.7036331  89.6620182  86.5266698  29.5605417  82.8345798
  87.2290741  30.0126461  83.3019725  86.1947327  28.9189236  83.4625691
  84.9747060  28.1517174  97.2097008  84.3445720  28.8333455  97.4432404
  84.8683148  28.0400256  96.2650146  80.2692032  27.8188970  88.1362932
  79.4791086  28.0746499  87.6603042  80.7603279  28.6337308  88.2414972
  94.2855842  35.1594209  90.8868213  95.1073285  34.7574396  90.6050894
  94.2818244  35.0562443  91.8384328  82.2206777  28.1833549  85.0946409
  81.4237941  28.2952244  85.6129904  81.9932370  28.5220201  84.2287299
  88.0512445  34.7078252  93.0428923  88.1156878  35.1698660  93.8787095
  87.3423369  34.0775617  93.1711233  78.5529735  28.0719460  90.5677923
  78.8037773  28.9566470  90.8335499  79.0889283  27.8924062  89.7953014
 102.3761835  31.5032958  87.2353184 101.6225543  30.9340356  87.0797189
 102.5109376  31.4695622  88.1823819  87.7660463  36.3746360  82.9107903
  87.6306138  37.2197896  83.3392751  88.3070275  36.5765638  82.1473837
  84.2527802  22.4537940  99.5722259  83.8594748  21.9004138 100.2469903
  85.0693943  22.7648518  99.9628776  81.2189860  33.8921798  83.4835829
  81.7314381  34.6865048  83.6341393  81.8712573  33.1948088  83.4169430
  83.0284745  37.0087554  85.5658582  83.2051373  37.9305519  85.3779566
  83.8241578  36.6945974  85.9952962  87.1695763  23.8695819  97.1642515
  87.9105477  24.4702972  97.0846978  87.4013686  23.1273457  96.6060558
  82.3137101  29.0552186  95.4420745  82.1990616  28.1537443  95.7427844
  81.4581619  29.3015883  95.0905561  89.3928939  36.9969926  97.0408246
  88.9492793  36.2106305  96.7229150  90.0546153  37.1849077  96.3752136
  84.1516060  38.5265728  91.5668924  84.7023485  38.3982791  90.7945918
  83.3127536  38.8260617  91.2163817  91.4910177  37.2772726  95.0689647
  91.4728653  38.0981607  94.5769916  92.4130097  37.1526802  95.2939788
  87.9483231  34.7916856  95.9113155  88.4811568  34.0305144  95.6812463
  87.4197312  34.4990508  96.6537310  91.1152926  19.8976922  91.4406797
  90.7717196  20.7878564  91.3645908  91.4831889  19.7078580  90.5776382
  79.1838777  32.2210452  84.2595399  80.0213999  32.6307461  84.0429107
  79.3617045  31.2809894  84.2295593  91.0803209  29.8885533  79.9479232
  90.5649832  30.6590138  80.1867619  90.8080517  29.2150669  80.5712294
  88.6650320  24.7335234  85.0064470  87.8091916  24.3442084  84.8270109
  89.0777272  24.8127195  84.1464256  90.1949467  22.2681577  89.4056030
  89.6914262  22.2311712  88.5923835  90.4880074  23.1774320  89.4652687
  86.4392353  22.3520307  88.4122212  87.3045349  22.1563115  88.0528101
  86.5069861  22.1230659  89.3391569  96.0537483  32.6417888  81.8832406
  95.2766926  32.3029047  81.4387568  96.7328964  32.6470511  81.2087371
  90.8689512  27.7612625  81.7739013  90.5639648  28.0758774  82.6249156
  91.8219954  27.8394045  81.8166346  89.3135944  33.9202848  83.4231967
  88.7857306  33.1855608  83.1105205  88.8123447  34.6977525  83.1771936
  94.2928790  32.1151869  88.5399014  93.6352464  32.8051130  88.6279142
  95.0969189  32.5048301  88.8833000  84.0454672  24.5822515  85.7838579
  84.6198424  24.3597696  85.0511772  84.6325654  24.6511209  86.5367180
  93.1034249  30.4696242  86.5902955  93.6166131  31.1026233  87.0924665
  93.7535473  29.8697437  86.2246315  84.3724259  26.6126976  79.8034464
  83.5361571  26.9501662  80.1243739  84.2329028  26.4775955  78.8661601
  86.3477339  21.4563764  84.5113648  85.6941752  21.1412781  83.8870263
  86.3057813  20.8339504  85.2373471  87.4588544  31.7383059  76.4266940
  86.5515606  31.5072312  76.6258089  87.9559576  30.9420678  76.6140922
  90.3656623  40.4480566  79.3463626  89.6918322  40.7512263  79.9548584
  90.7522445  41.2509646  78.9969083  89.5815080  27.9445697  88.8361296
  88.6637641  28.1660644  88.6782984  89.9975223  28.0192008  87.9773003
  90.3650127  29.3437113  83.9663976  91.1121946  29.8558510  83.6571098
  90.6341717  29.0221166  84.8268370  88.6376778  31.8395654  80.9490930
  87.7287997  31.5554686  81.0463400  88.6671861  32.2594732  80.0894237
  93.8696045  35.4502243  84.7182098  93.4158372  34.6093153  84.7747288
  93.2390012  36.0863641  85.0556878  92.8128965  26.3794229  85.9482765
  92.0751721  25.8671615  86.2793008  93.0655738  25.9394611  85.1366042
  92.3128984  37.2878740  85.6531916  92.6051959  37.8483797  84.9344282
  92.8227605  37.5807301  86.4085075  92.9140592  19.1570481  86.5424535
  93.2199469  18.2967844  86.2550450  93.6393197  19.7488101  86.3423529
  79.2064948  29.5601168  84.9306133  79.0089348  28.9670528  84.2057199
  78.6511612  29.2553378  85.6482071  87.1861672  29.4524274  87.0500726
  87.2410281  28.4998111  86.9743202  86.3752874  29.6083713  87.5342024
  88.3352865  33.3804397  78.2879009  87.8972295  32.6640256  77.8284646
  89.0763306  33.6080512  77.7264100  85.1254032  28.0701334  84.8091105
  84.3121897  28.3695504  85.2156297  85.6213026  27.6757023  85.5265587
  87.2762609  38.0659091  86.7425369  87.2338788  38.2919937  85.8133901
  88.1925308  37.8322465  86.8911170  90.7228243  28.5343158  93.6405998
  91.0777631  28.7614631  94.5000464  91.3700375  28.8661535  93.0183254
  96.4525980  31.6561594  84.3455327  96.3143879  31.8463190  83.4176517
  96.0962199  32.4180977  84.8023379  84.6168106  25.6419689  90.4252340
  85.2567486  25.5008448  89.7275303  83.7845637  25.3554203  90.0490942
  96.4795360  33.7238121  89.3566599  96.9131867  33.6313410  90.2049653
  97.1926941  33.6995622  88.7186615  85.3928410  34.9422120  86.5387332
  86.1869009  34.4472440  86.3369907  84.6820103  34.4139983  86.1755038
  90.2123255  37.3240215  90.8899700  90.2660277  37.8931152  91.6577416
  89.3438036  37.4942100  90.5253737  81.7011174  29.0865202  82.6147085
  80.7708762  29.0249657  82.8317047  81.7968646  28.5641154  81.8183726
  81.6196723  25.6120014  85.2025326  81.8803540  26.5265348  85.0934487
  82.4413895  25.1444457  85.3521939  83.0921648  27.0257772  92.3724151
  83.7644702  26.8175134  91.7236800  82.2651435  26.8279858  91.9329383
  97.3410909  33.7661822  91.8899484  97.5346799  34.6707632  92.1358759
  97.2411528  33.3069241  92.7238069  88.9947220  23.6519712  94.3889812
  88.3475135  24.3509662  94.2954288  89.7648236  24.0855856  94.7566060
  92.4026018  33.9168565  97.4640365  92.2511524  33.6879116  96.5470449
  92.3930698  34.8739166  97.4771710  89.1711354  31.4900477  92.4486631
  90.1003414  31.6411637  92.2755599  88.7502385  31.5784498  91.5935278
  87.9699686  35.5151142  90.2185169  87.8310772  35.1469926  91.0911107
  87.1814282  36.0298781  90.0469127  88.5647838  40.6160238  81.5610706
  88.7399594  40.1448281  82.3756328  87.8780626  41.2426004  81.7891966
  89.5204901  34.8932744  87.6074007  89.1854734  34.8533514  88.5031657
  89.0208847  34.2277460  87.1344417  83.4949145  30.3000375  93.1326588
  83.3568943  29.5680613  93.7338127  84.4054069  30.2109275  92.8510776
  92.4564093  32.2388779  77.8811067  91.8393264  31.5135607  77.7844119
  91.9880582  32.9998139  77.5378141  86.1231446  30.0120334  92.6210268
  86.8331065  29.3713526  92.5796886  86.0800754  30.2633229  93.5436448
  94.1118225  36.9487687  95.5416847  94.0530771  36.2646907  94.8747430
  94.5137743  37.6906677  95.0897473  84.8360380  26.9985552  94.4405907
  84.2997737  26.5476290  95.0927503  84.2477088  27.1331461  93.6976371
  83.1308924  43.7649601  88.3350566  83.3705522  44.3968125  89.0129584
  82.2878120  43.4137641  88.6215925  84.2462639  26.4574203  77.0032371
  83.3692105  26.3363004  76.6394617  84.7220392  25.6660281  76.7511259
  94.1135632  34.9127271  93.7730827  93.2262411  34.5753193  93.8957225
  94.6834183  34.1810302  94.0099592  75.7664779  31.2451363  87.0973878
  76.4535819  30.9313093  86.5094893  75.6112908  32.1492728  86.8241129
  80.5699501  26.1341559  91.5258902  80.4857690  25.5267229  90.7909312
  79.7482208  26.6250578  91.5268398  87.6436785  39.5728723  90.7392070
  87.5706957  40.3783695  91.2511374  87.2014178  39.7720689  89.9140091
  87.4326565  38.8100493  84.2494891  86.6494087  39.3522174  84.3433116
  88.1319310  39.3274473  84.6489132  90.7423215  24.6195123  86.8929097
  91.2391915  23.8665085  86.5730167  89.9710197  24.6559440  86.3272306
  98.5952973  30.3235488  88.5347388  98.5842849  31.2060204  88.1641321
  97.7270352  29.9707039  88.3401925  90.1035469  39.4715557  92.8950228
  90.8163441  40.1063022  92.8226130  89.6125498  39.5679423  92.0790230
  91.8252996  33.3766810  84.4667520  90.8909275  33.4968273  84.2972224
  92.0029664  32.4739277  84.2027530  87.3258184  26.7612506  86.6200781
  86.9555971  26.2083546  87.3081687  87.8217276  26.1570639  86.0675781
  95.2125547  29.2184129  85.0017554  95.6785999  30.0512121  84.9277857
  95.6633048  28.7529111  85.7062813  85.1547382  37.2210001  93.7155799
  85.8556842  37.8546484  93.8685193  84.6842497  37.5624733  92.9551439
  93.2801778  35.5627951  82.0003706  93.5561622  35.4484545  82.9097580
  92.4106277  35.1645436  81.9615879  93.1842210  21.5864716  89.0408456
  92.2705290  21.8168943  89.2090662  93.6135311  21.6703161  89.8922488
  92.9548668  29.7754608  91.5408350  92.3020119  30.0230516  90.8860802
  93.3329048  28.9618747  91.2070827  89.9155842  39.8114302  85.6436520
  90.0978237  38.9935958  86.1064272  90.7388828  40.0281994  85.2061410
  90.2498008  38.7382487  82.9051568  90.7785774  38.2274941  82.2921730
  90.5126227  38.4225017  83.7697101  89.0036241  30.5174419  98.0274387
  88.3276878  30.4168549  98.6976762  89.8263875  30.3613633  98.4910384
  80.7515101  36.7546356  90.6486902  81.3368537  36.0090044  90.7814806
  80.5539939  37.0650313  91.5323566  83.6053756  39.7897603  85.6649344
  82.9364131  40.2743731  85.1813384  83.4666625  40.0366824  86.5792723
  75.3432755  29.3251956  89.3691345  75.3816855  28.7915547  90.1628463
  74.8373048  28.7987162  88.7502322  87.7459024  41.8241347  92.2632003
  88.2977332  41.9872968  93.0281088  88.0865218  42.4145785  91.5912028
  82.7223518  24.1716497  92.8653887  82.7864844  25.0331328  92.4531285
  82.6590638  23.5590498  92.1326246  82.1975790  26.2439629  96.5126922
  82.8247829  25.8616707  97.1264446  81.3403709  26.0253831  96.8782614
  92.5969899  36.6502604  98.1180657  93.1409803  37.2632563  97.6235612
  92.0156743  37.2082183  98.6347670  78.9741333  28.0516058  82.4445276
  79.2694774  27.1426737  82.3912330  78.0729369  28.0303798  82.1226279
  90.8827412  39.7723322  89.2495685  90.7578551  38.9713062  88.7406630
  91.5406503  40.2669516  88.7609655  82.5035580  26.1272055  88.4272825
  81.7822166  26.7408023  88.2880298  83.2928836  26.6629820  88.3489471
  92.9462320  37.5732343  90.8775235  91.9992656  37.4537694  90.8053562
  93.2945093  36.6854841  90.9601496  85.3061893  23.4626481  94.7013477
  85.8296295  23.7088778  95.4639786  85.0874227  24.2946516  94.2816614
  80.7029174  25.7330156  82.5684602  80.3741881  24.8527535  82.3859708
  81.0568545  25.6777825  83.4560991  89.9508753  37.3685059  87.0779587
  89.8033716  36.4401766  87.2587157  90.7762247  37.3905149  86.5936662
  83.8170998  26.0203126  82.9360079  84.1567070  26.5489047  82.2138688
  84.2643118  26.3583532  83.7118646  93.5542875  38.1913617  88.1644460
  94.4789423  37.9856479  88.0268911  93.3858178  37.9430019  89.0733801
  86.5114438  24.4040177  92.3863147  86.1711259  23.6047990  92.7883827
  85.8053445  24.7041887  91.8139981  87.1630910  21.4889489  90.8390470
  87.9856980  21.0149967  90.7169361  87.4068974  22.2679973  91.3389157
  85.8039145  24.5177747  81.1353372  86.5247507  24.8959000  80.6317089
  85.1804449  25.2366624  81.2388350  89.9470268  25.2222896  82.0711704
  90.1633882  26.1047534  81.7700533  89.4664335  24.8309110  81.3417346
  84.6869489  28.1808610  88.6482449  84.5414070  28.4948913  89.5406730
  84.2094693  28.7993510  88.0953348  86.5465872  25.1711158  88.6963339
  86.5327441  24.2752251  88.3595636  87.2638300  25.1781821  89.3301625
  88.3992003  25.6048498  90.7416466  88.1409780  26.5265568  90.7400796
  87.8677043  25.2078932  91.4316930  93.3438191  38.7099285  83.5206551
  93.5175069  38.1445707  82.7680404  93.8367083  39.5100180  83.3386041
  79.1615151  30.7213954  91.5870110  78.6168619  31.4973762  91.7190384
  80.0394501  31.0684758  91.4289232  85.9502768  24.0525538  83.9650909
  86.0718679  23.1242184  84.1641796  85.6604810  24.0664224  83.0529224
  88.8193958  21.7380448  87.1017629  88.8415655  21.8019781  86.1469608
  89.2362017  20.8984957  87.2958135  99.1977582  31.4735708  85.1396851
  99.6408729  30.7243033  84.7415974  98.3204093  31.4645844  84.7570583
  94.3313364  38.0266049  80.6203450  95.0264268  38.6472742  80.8390764
  94.6736514  37.1761401  80.8955828  79.9481173  29.8483850  94.4800267
  79.2062909  29.9966486  95.0664897  79.6273917  30.1092116  93.6167016
  96.2304787  35.4765755  82.1490780  96.7556111  35.8153028  81.4240100
  96.1427139  34.5412770  81.9653915  87.8924836  39.3899829  94.2780657
  88.2011962  39.1448975  95.1503357  88.6900318  39.5946467  93.7899527
  87.9145448  41.5437738  86.5086034  87.4750438  41.0514117  87.2018890
  88.6653565  41.0010706  86.2678109  80.3937787  37.7349279  86.5110662
  81.2195807  37.4353051  86.1309305  80.0431839  36.9656901  86.9600450
  85.3619320  37.0875747  88.5808335  84.7399329  36.4246452  88.2810563
  86.0324187  37.1136879  87.8981983  78.5946392  35.6535605  87.4699595
  77.7578300  35.2257780  87.2883597  78.5670037  35.8468049  88.4070386
  85.4343847  25.5657535  98.1740841  85.4832003  26.4419658  97.7918611
  85.9766362  25.0234928  97.6012484  95.9198693  36.1098659  97.4541978
  95.1294237  36.0922797  96.9146478  95.6832048  36.6486952  98.2091015
  96.0396568  32.9591125  94.7674707  96.0894573  32.7941132  95.7090230
  95.9310491  32.0918384  94.3772588  84.9232827  35.6379671  82.0566796
  85.0720947  36.3215135  81.4033469  85.7299270  35.6184761  82.5716252
  93.3300330  28.9422053  96.0834014  94.2310193  28.8028518  95.7918011
  93.4048305  29.1076508  97.0232191  87.6643136  26.3188908  94.9287200
  86.7946445  26.6122474  94.6569788  87.9002616  26.9029353  95.6494464
  97.5414765  35.3788066  95.0116728  97.2499573  35.7418047  95.8480189
  96.9286896  34.6655075  94.8330061  98.7410447  32.9440946  87.5319299
  99.5757339  33.3830750  87.6956859  98.8769576  32.4679599  86.7127544
  95.7901953  30.5020681  93.4796786  96.2656075  30.6948327  92.6715638
  94.8667518  30.5579867  93.2340170  82.6785460  31.6644848  83.0627865
  82.4331502  30.7607178  83.2608075  82.8481374  31.6661999  82.1207343
  90.3682170  22.5368525  92.4452620  90.8864113  23.2729552  92.1199109
  90.0137302  22.8432518  93.2799379  81.9481107  27.3973206  80.5614026
  81.2550352  27.4717561  79.9054062  81.7032859  26.6333549  81.0835543
  90.6194764  18.9568807  87.9653517  90.8996518  18.2891996  88.5913943
  91.4045371  19.1497903  87.4528181  88.4228232  38.1327801  79.5278543
  87.8502199  38.7517988  79.0749015  88.9961026  38.6827163  80.0618465
  94.4903622  27.3786441  91.7125092  95.4421045  27.4784539  91.7337316
  94.3207073  26.5864710  92.2223176  92.5118002  24.4642024  91.8984493
  91.9167934  24.7447037  91.2030982  92.2267698  24.9535925  92.6701234
  91.6425492  38.4164951  80.6587125  92.5756165  38.3510513  80.8620001
  91.5548705  39.2521218  80.2001658  94.2713509  37.7330821  77.6191073
  94.1927140  37.3990685  78.5126831  95.0923176  38.2252589  77.6182545
  96.9691700  30.5992561  90.8267392  96.9368020  29.6608562  91.0127075
  97.5792324  30.6776598  90.0933217  88.8075031  29.4688614  76.8694596
  89.7534135  29.3394822  76.9383014  88.4289276  28.7303276  77.3464024
  97.1186188  27.3903604  90.8725675  96.6025237  26.6062061  90.6855604
  98.0026137  27.0622321  91.0372194  94.7796915  21.1344620  86.8321488
  94.5821736  20.8259708  87.7164819  95.3896621  21.8606259  86.9619417
 102.7868250  31.6608568  89.9673428 103.5171638  31.3993856  90.5281132
 102.1775195  30.9237290  90.0075496 100.8683547  29.8016430  90.5647880
 100.1416710  29.6672395  89.9564371 100.4530834  30.1093259  91.3704598
  88.6913723  33.5206360  98.3295253  89.6116733  33.6984959  98.5235299
  88.6563306  32.5762405  98.1774952  86.9917948  27.3938590  76.8049481
  86.0849403  27.0971703  76.8812195  87.2693929  27.0968408  75.9383767
  77.9095888  28.7144954  87.2548527  77.5898673  27.8610262  86.9622901
  77.3629316  28.9293532  88.0106495  81.6875796  31.4307395  90.9718034
  81.9061806  32.3624502  90.9906068  82.1001570  31.0715369  91.7572838
  88.6080014  21.9375480  82.9593722  87.7980742  21.5922565  83.3348968
  89.2964431  21.6283024  83.5481334  90.5370562  21.0153527  84.5818019
  91.0901601  21.4348980  85.2408042  90.7740648  20.0889275  84.6240975
  86.5603661  27.0040600 100.3620783  86.4600388  27.9534957 100.2932874
  86.3425203  26.6758839  99.4896853  85.7616733  24.2525525  76.9461460
  86.6235897  24.5780424  77.2057277  85.9467077  23.4657021  76.4334526
  77.7784148  32.3347865  89.2241649  77.0847620  31.9201818  88.7111603
  78.5257139  32.3768402  88.6275068  93.9149369  23.1254052  84.0896683
  93.3348038  23.7838856  83.7074736  93.6485302  22.3031396  83.6784101
  92.3652935  22.5259110  86.2918003  92.8652714  22.6375644  85.4832322
  93.0088543  22.2220162  86.9318812  86.4234931  30.4337739  99.1785844
  85.9402013  31.2338099  99.3849733  86.5095870  30.4445684  98.2253288
  79.6920891  32.2666119  87.1007664  79.6691579  32.3653806  86.1489547
  80.0021527  33.1131270  87.4224830  82.3508269  34.3242274  91.2154278
  83.3051522  34.2926216  91.1484210  82.1520792  33.8632898  92.0304504
  82.9407651  32.8943390  93.7825076  83.7600540  33.3887469  93.8059913
  83.2144459  31.9775358  93.7542643  92.6974247  25.2854142  83.1453031
  91.8100102  25.5703793  82.9273226  93.1128236  25.1247906  82.2980308
  96.0488783  25.3100663  86.8607371  96.8249173  25.7997116  87.1331987
  95.3236917  25.7358717  87.3179240  98.4861342  26.0228282  87.9181311
  99.0805833  25.7824018  87.2074619  98.5587926  25.3035413  88.5454848
  80.7058497  39.8661893  88.2324476  80.5712965  39.1062294  87.6662474
  80.2890560  40.5902793  87.7653265  91.8417461  35.0498817  77.2401051
  92.5453311  35.2548819  77.8558707  91.1180109  35.6175579  77.5050135
  92.6715271  30.8008678  83.3603322  92.6150472  31.2577230  82.5210954
  93.2243613  30.0399363  83.1826164  96.4820077  26.5898410  84.1853441
  96.2257011  26.1895046  85.0161649  95.8572945  27.3042204  84.0603580
 100.7932415  29.3294483  86.6924732 100.2331973  29.3987673  87.4656295
 100.1875918  29.1535468  85.9724229  83.8627623  40.7631210  88.4442919
  83.7460008  41.7076643  88.3421609  83.0420070  40.4604772  88.8328718
  93.7504158  35.4881346  79.2899511  94.5849762  35.0562545  79.1076986
  93.5888501  35.3163360  80.2176406  93.4050050  31.9913459  80.6555851
  93.3498854  31.8257731  79.7144295  92.7796105  32.6989492  80.8118040
  78.1942565  27.2281524  94.4817273  78.8401429  26.7180478  94.9704498
  77.9859716  27.9650205  95.0560698  90.7195957  34.2962371  99.9809414
  91.5887117  34.4703024  99.6196048  90.2402709  35.1156788  99.8585143
  86.7146176  21.4921568  80.2341169  86.7024845  22.4363408  80.3909440
  87.6069597  21.3091714  79.9400630  84.8882137  41.4159472  91.6598847
  85.7909384  41.4483083  91.9765342  84.6619508  40.4859923  91.6745183
  86.6435740  40.1690459  88.3208926  85.6931371  40.1692320  88.2073298
  86.9468226  39.4223193  87.8044960  90.5298295  18.0864345  84.4887106
  89.7630691  17.5322832  84.6343788  90.9409000  18.1586214  85.3501258
  82.5340056  24.3749141  98.5792287  83.3971518  24.0185946  98.7895612
  81.9605467  24.0363036  99.2667691 102.3788433  46.0050997  89.3854688
 103.0166843  45.8857745  88.6818028 102.2609276  46.9531841  89.4442640
  99.1878139  45.9578425  89.3216213  98.8496651  45.8419490  88.4336748
 100.0567907  45.5569590  89.3017219  95.0464955  47.8113902  85.3113104
  94.4829820  47.7203839  84.5429392  94.9317350  46.9913806  85.7915596
  99.6697922  47.1113277  95.2802418  99.6586563  46.7166075  94.4082922
  99.8318562  46.3779350  95.8736190  92.5929387  49.3065093  88.1497324
  93.3850679  48.9655918  87.7343624  92.8326037  49.4160068  89.0699478
 100.6264514  51.4784869  80.6227569  99.9752493  52.0638950  80.2361583
 101.4208876  52.0091064  80.6822606  94.5520141  48.5674007  81.0214703
  95.3251017  48.0202994  80.8827579  94.9045540  49.4318256  81.2329164
  96.3905183  49.8950389  94.2281602  96.0995049  50.7996020  94.1128269
  97.0262168  49.9366916  94.9425672  97.3161390  47.2727237  90.8182962
  97.9124963  47.0483260  90.1039925  97.3736362  46.5311983  91.4208410
  96.8886419  44.7266673  78.6533153  97.1411939  44.2048194  77.8916616
  95.9510978  44.5632818  78.7559837 101.9329701  43.7302451  86.4607896
 102.7192791  43.3121874  86.1098313 102.1968406  44.6348543  86.6289545
 102.1039779  49.1675301  81.1596553 101.4685612  49.2409928  81.8717458
 101.7737185  49.7568900  80.4815632 107.3338129  43.6677684  87.3640875
 108.0663301  43.0976901  87.5978704 106.5777484  43.2799285  87.8047380
  96.6082707  46.6294779  80.8557528  96.4918966  45.9539682  81.5238612
  96.7184967  46.1427153  80.0389681  98.9514248  46.0904926  84.5604217
  98.5872456  45.5635547  85.2717139  99.8081364  45.7003395  84.3870703
 104.8563549  37.3799258  91.8235483 104.5246874  38.2494669  91.5996698
 104.2609162  37.0635542  92.5029514  98.5919735  41.1194825  79.5565566
  98.7594138  41.9875062  79.9236037  98.4016904  41.2822107  78.6326855
 101.3495068  49.5811804  91.2231396 101.0495792  50.4836843  91.1147203
 101.0046128  49.3143988  92.0752549  94.8007550  46.0325601  87.2568100
  93.8758046  45.9001815  87.4645792  95.0491963  46.8119820  87.7538043
 104.7492212  42.0994345  88.9028833 103.8409090  42.0309753  88.6087594
 104.6979808  42.5766289  89.7310659  98.5708956  43.5752483  80.5412233
  98.4508581  44.0209534  81.3797713  97.8761545  43.9237801  79.9825771
  92.1616361  45.6758875  88.0911890  92.2908742  45.9293354  89.0051301
  91.4813812  46.2686583  87.7716545  96.3315848  56.3456125  84.1902364
  96.2539878  57.2963950  84.2690844  95.7277492  56.0001997  84.8477290
  98.8233078  43.5183990  96.8463731  98.0466412  44.0777910  96.8366595
  99.4623641  44.0040773  97.3678601 106.6153859  40.3010783  90.6806707
 105.9728239  40.5943316  90.0346502 106.1108787  40.1863703  91.4859904
 104.2694022  44.0473956  81.3692567 105.1811878  44.2801343  81.1940264
 103.7603669  44.6311000  80.8067645  97.0779450  46.3269443  96.4081698
  97.8194135  46.8654487  96.1316521  96.3716436  46.9535732  96.5653249
 102.5534790  48.4698584  95.0053859 102.9618146  48.0280994  94.2608492
 101.8312052  47.8951211  95.2588052  98.9065860  43.4071191  92.3787416
  99.7527055  43.8310604  92.5222065  98.8464498  42.7504815  93.0725979
 102.8763605  49.0299775  88.7606148 102.2472467  49.1945489  88.0582216
 102.4889267  49.4441384  89.5317112 106.7552837  49.9654212  86.1150512
 106.0703875  50.3453114  85.5647545 106.8396686  50.5749539  86.8482460
 102.0565305  41.0675559  94.0368590 101.8126237  41.8217620  93.5002865
 102.3325236  41.4460907  94.8715837 104.0103768  47.6114171  92.7145855
 104.2220663  48.2545931  92.0380236 103.9633516  46.7776488  92.2467785
 101.6129997  40.2231992  89.6182427 100.7514476  40.5213246  89.9099165
 101.6392432  40.4402391  88.6863460  98.4291567  48.7674183  86.0256233
  98.8929912  49.0461886  85.2360856  98.1648365  47.8657627  85.8429324
  95.3215648  48.3145664  88.9635996  95.8917005  48.7432933  88.3253481
  95.9123759  48.0328249  89.6620182  97.3660453  44.8897335  82.8345798
  98.0684496  45.3418379  83.3019725  97.0341081  44.2481154  83.4625691
  95.8140814  43.4809092  97.2097008  95.1839475  44.1625373  97.4432404
  95.7076902  43.3692173  96.2650146  91.1085787  43.1480888  88.1362932
  90.3184841  43.4038416  87.6603042  91.5997034  43.9629226  88.2414972
 105.1249596  50.4886127  90.8868213 105.9467040  50.0866314  90.6050894
 105.1211999  50.3854361  91.8384328  93.0600532  43.5125467  85.0946409
  92.2631695  43.6244161  85.6129904  92.8326124  43.8512119  84.2287299
  98.8906200  50.0370170  93.0428923  98.9550632  50.4990577  93.8787095
  98.1817123  49.4067535  93.1711233  89.3923490  43.4011378  90.5677923
  89.6431528  44.2858388  90.8335499  89.9283038  43.2215980  89.7953014
 113.2155589  46.8324875  87.2353184 112.4619298  46.2632273  87.0797189
 113.3503130  46.7987540  88.1823819  98.6054217  51.7038278  82.9107903
  98.4699892  52.5489813  83.3392751  99.1464030  51.9057555  82.1473837
  95.0921557  37.7829858  99.5722259  94.6988502  37.2296056 100.2469903
  95.9087697  38.0940436  99.9628776  92.0583615  49.2213716  83.4835829
  92.5708135  50.0156966  83.6341393  92.7106327  48.5240006  83.4169430
  93.8678499  52.3379472  85.5658582  94.0445128  53.2597437  85.3779566
  94.6635333  52.0237891  85.9952962  98.0089518  39.1987737  97.1642515
  98.7499231  39.7994890  97.0846978  98.2407441  38.4565374  96.6060558
  93.1530856  44.3844104  95.4420745  93.0384371  43.4829361  95.7427844
  92.2975374  44.6307801  95.0905561 100.2322694  52.3261844  97.0408246
  99.7886548  51.5398223  96.7229150 100.8939907  52.5140995  96.3752136
  94.9909815  53.8557646  91.5668924  95.5417240  53.7274709  90.7945918
  94.1521291  54.1552535  91.2163817 102.3303932  52.6064644  95.0689647
 102.3122407  53.4273525  94.5769916 103.2523852  52.4818719  95.2939788
  98.7876986  50.1208774  95.9113155  99.3205323  49.3597062  95.6812463
  98.2591067  49.8282425  96.6537310 101.9546681  35.2268840  91.4406797
 101.6110950  36.1170481  91.3645908 102.3225643  35.0370497  90.5776382
  90.0232531  47.5502370  84.2595399  90.8607753  47.9599378  84.0429107
  90.2010799  46.6101812  84.2295593 101.9196964  45.2177451  79.9479232
 101.4043587  45.9882055  80.1867619 101.6474272  44.5442587  80.5712294
  99.5044075  40.0627151  85.0064470  98.6485671  39.6734002  84.8270109
  99.9171026  40.1419112  84.1464256 101.0343221  37.5973495  89.4056030
 100.5308017  37.5603630  88.5923835 101.3273828  38.5066237  89.4652687
  97.2786107  37.6812224  88.4122212  98.1439104  37.4855033  88.0528101
  97.3463616  37.4522576  89.3391569 106.8931238  47.9709805  81.8832406
 106.1160680  47.6320965  81.4387568 107.5722719  47.9762428  81.2087371
 101.7083267  43.0904543  81.7739013 101.4033402  43.4050692  82.6249156
 102.6613709  43.1685963  81.8166346 100.1529699  49.2494766  83.4231967
  99.6251060  48.5147526  83.1105205  99.6517201  50.0269442  83.1771936
 105.1322545  47.4443787  88.5399014 104.4746219  48.1343048  88.6279142
 105.9362944  47.8340218  88.8833000  94.8848426  39.9114432  85.7838579
  95.4592178  39.6889614  85.0511772  95.4719409  39.9803127  86.5367180
 103.9428003  45.7988159  86.5902955 104.4559885  46.4318151  87.0924665
 104.5929227  45.1989355  86.2246315  95.2118013  41.9418893  79.8034464
  94.3755325  42.2793580  80.1243739  95.0722783  41.8067873  78.8661601
  97.1871094  36.7855681  84.5113648  96.5335506  36.4704698  83.8870263
  97.1451568  36.1631422  85.2373471  98.2982299  47.0674976  76.4266940
  97.3909360  46.8364230  76.6258089  98.7953331  46.2712596  76.6140922
 101.2050378  55.7772484  79.3463626 100.5312076  56.0804180  79.9548584
 101.5916200  56.5801564  78.9969083 100.4208834  43.2737615  88.8361296
  99.5031396  43.4952562  88.6782984 100.8368978  43.3483925  87.9773003
 101.2043882  44.6729030  83.9663976 101.9515701  45.1850428  83.6571098
 101.4735472  44.3513083  84.8268370  99.4770532  47.1687571  80.9490930
  98.5681751  46.8846604  81.0463400  99.5065616  47.5886650  80.0894237
 104.7089800  50.7794161  84.7182098 104.2552127  49.9385071  84.7747288
 104.0783766  51.4155559  85.0556878 103.6522719  41.7086147  85.9482765
 102.9145476  41.1963533  86.2793008 103.9049493  41.2686528  85.1366042
 103.1522739  52.6170657  85.6531916 103.4445713  53.1775714  84.9344282
 103.6621359  52.9099218  86.4085075 103.7534346  34.4862399  86.5424535
 104.0593223  33.6259762  86.2550450 104.4786951  35.0780019  86.3423529
  90.0458703  44.8893085  84.9306133  89.8483102  44.2962446  84.2057199
  89.4905367  44.5845296  85.6482071  98.0255426  44.7816192  87.0500726
  98.0804036  43.8290028  86.9743202  97.2146628  44.9375631  87.5342024
  99.1746620  48.7096315  78.2879009  98.7366050  47.9932174  77.8284646
  99.9157061  48.9372430  77.7264100  95.9647786  43.3993252  84.8091105
  95.1515652  43.6987422  85.2156297  96.4606780  43.0048940  85.5265587
  98.1156364  53.3951008  86.7425369  98.0732543  53.6211855  85.8133901
  99.0319063  53.1614383  86.8911170 101.5621998  43.8635076  93.6405998
 101.9171386  44.0906549  94.5000464 102.2094129  44.1953453  93.0183254
 107.2919735  46.9853512  84.3455327 107.1537633  47.1755108  83.4176517
 106.9355954  47.7472895  84.8023379  95.4561861  40.9711607  90.4252340
  96.0961240  40.8300366  89.7275303  94.6239391  40.6846120  90.0490942
 107.3189114  49.0530039  89.3566599 107.7525621  48.9605328  90.2049653
 108.0320695  49.0287539  88.7186615  96.2322165  50.2714037  86.5387332
  97.0262763  49.7764358  86.3369907  95.5213857  49.7431901  86.1755038
 101.0517009  52.6532133  90.8899700 101.1054032  53.2223069  91.6577416
 100.1831791  52.8234018  90.5253737  92.5404928  44.4157119  82.6147085
  91.6102516  44.3541575  82.8317047  92.6362400  43.8933072  81.8183726
  92.4590477  40.9411932  85.2025326  92.7197295  41.8557265  85.0934487
  93.2807650  40.4736375  85.3521939  93.9315403  42.3549689  92.3724151
  94.6038456  42.1467051  91.7236800  93.1045189  42.1571775  91.9329383
 108.1804664  49.0953740  91.8899484 108.3740554  49.9999550  92.1358759
 108.0805282  48.6361159  92.7238069  99.8340975  38.9811630  94.3889812
  99.1868890  39.6801580  94.2954288 100.6041990  39.4147774  94.7566060
 103.2419773  49.2460482  97.4640365 103.0905279  49.0171034  96.5470449
 103.2324452  50.2031084  97.4771710 100.0105109  46.8192395  92.4486631
 100.9397169  46.9703555  92.2755599  99.5896139  46.9076416  91.5935278
  98.8093441  50.8443059  90.2185169  98.6704526  50.4761844  91.0911107
  98.0208037  51.3590699  90.0469127  99.4041593  55.9452156  81.5610706
  99.5793348  55.4740199  82.3756328  98.7174381  56.5717922  81.7891966
 100.3598656  50.2224662  87.6074007 100.0248489  50.1825432  88.5031657
  99.8602602  49.5569378  87.1344417  94.3342900  45.6292292  93.1326588
  94.1962698  44.8972531  93.7338127  95.2447823  45.5401192  92.8510776
 103.2957848  47.5680697  77.8811067 102.6787018  46.8427525  77.7844119
 102.8274336  48.3290057  77.5378141  96.9625201  45.3412252  92.6210268
  97.6724819  44.7005444  92.5796886  96.9194509  45.5925146  93.5436448
 104.9511979  52.2779605  95.5416847 104.8924525  51.5938825  94.8747430
 105.3531498  53.0198595  95.0897473  95.6754135  42.3277469  94.4405907
  95.1391492  41.8768208  95.0927503  95.0870843  42.4623378  93.6976371
  93.9702678  59.0941519  88.3350566  94.2099276  59.7260043  89.0129584
  93.1271874  58.7429559  88.6215925  95.0856393  41.7866121  77.0032371
  94.2085860  41.6654922  76.6394617  95.5614147  40.9952199  76.7511259
 104.9529386  50.2419189  93.7730827 104.0656165  49.9045111  93.8957225
 105.5227938  49.5102220  94.0099592  86.6058534  46.5743281  87.0973878
  87.2929573  46.2605011  86.5094893  86.4506662  47.4784645  86.8241129
  91.4093256  41.4633477  91.5258902  91.3251444  40.8559147  90.7909312
  90.5875962  41.9542495  91.5268398  98.4830540  54.9020641  90.7392070
  98.4100711  55.7075613  91.2511374  98.0407933  55.1012607  89.9140091
  98.2720319  54.1392411  84.2494891  97.4887841  54.6814091  84.3433116
  98.9713065  54.6566391  84.6489132 101.5816970  39.9487041  86.8929097
 102.0785669  39.1957003  86.5730167 100.8103951  39.9851357  86.3272306
 109.4346727  45.6527406  88.5347388 109.4236603  46.5352122  88.1641321
 108.5664106  45.2998957  88.3401925 100.9429223  54.8007475  92.8950228
 101.6557196  55.4354940  92.8226130 100.4519252  54.8971341  92.0790230
 102.6646750  48.7058728  84.4667520 101.7303029  48.8260190  84.2972224
 102.8423419  47.8031195  84.2027530  98.1651938  42.0904424  86.6200781
  97.7949726  41.5375464  87.3081687  98.6611031  41.4862557  86.0675781
 106.0519302  44.5476047  85.0017554 106.5179754  45.3804039  84.9277857
 106.5026802  44.0821029  85.7062813  95.9941137  52.5501919  93.7155799
  96.6950596  53.1838402  93.8685193  95.5236252  52.8916650  92.9551439
 104.1195533  50.8919868  82.0003706 104.3955377  50.7776463  82.9097580
 103.2500031  50.4937353  81.9615879 104.0235964  36.9156634  89.0408456
 103.1099044  37.1460861  89.2090662 104.4529066  36.9995078  89.8922488
 103.7942423  45.1046526  91.5408350 103.1413873  45.3522434  90.8860802
 104.1722803  44.2910664  91.2070827 100.7549597  55.1406219  85.6436520
 100.9371991  54.3227875  86.1064272 101.5782583  55.3573912  85.2061410
 101.0891762  54.0674404  82.9051568 101.6179529  53.5566859  82.2921730
 101.3519982  53.7516935  83.7697101  99.8429996  45.8466337  98.0274387
  99.1670633  45.7460466  98.6976762 100.6657630  45.6905551  98.4910384
  91.5908855  52.0838274  90.6486902  92.1762292  51.3381962  90.7814806
  91.3933693  52.3942230  91.5323566  94.4447510  55.1189521  85.6649344
  93.7757885  55.6035649  85.1813384  94.3060380  55.3658742  86.5792723
  86.1826510  44.6543874  89.3691345  86.2210609  44.1207465  90.1628463
  85.6766803  44.1279079  88.7502322  98.5852779  57.1533265  92.2632003
  99.1371087  57.3164886  93.0281088  98.9258972  57.7437702  91.5912028
  93.5617272  39.5008414  92.8653887  93.6258599  40.3623245  92.4531285
  93.4984392  38.8882416  92.1326246  93.0369545  41.5731547  96.5126922
  93.6641583  41.1908624  97.1264446  92.1797463  41.3545749  96.8782614
 103.4363653  51.9794522  98.1180657 103.9803557  52.5924480  97.6235612
 102.8550498  52.5374101  98.6347670  89.8135087  43.3807976  82.4445276
  90.1088528  42.4718654  82.3912330  88.9123123  43.3595716  82.1226279
 101.7221166  55.1015240  89.2495685 101.5972306  54.3004980  88.7406630
 102.3800257  55.5961433  88.7609655  93.3429334  41.4563973  88.4272825
  92.6215920  42.0699940  88.2880298  94.1322590  41.9921737  88.3489471
 103.7856074  52.9024260  90.8775235 102.8386410  52.7829611  90.8053562
 104.1338848  52.0146758  90.9601496  96.1455648  38.7918399  94.7013477
  96.6690050  39.0380696  95.4639786  95.9267981  39.6238434  94.2816614
  91.5422929  41.0622074  82.5684602  91.2135635  40.1819453  82.3859708
  91.8962300  41.0069742  83.4560991 100.7902508  52.6976976  87.0779587
 100.6427470  51.7693684  87.2587157 101.6156001  52.7197067  86.5936662
  94.6564752  41.3495044  82.9360079  94.9960825  41.8780965  82.2138688
  95.1036873  41.6875450  83.7118646 104.3936630  53.5205535  88.1644460
 105.3183177  53.3148396  88.0268911 104.2251933  53.2721936  89.0733801
  97.3508193  39.7332094  92.3863147  97.0105013  38.9339907  92.7883827
  96.6447199  40.0333805  91.8139981  98.0024665  36.8181407  90.8390470
  98.8250734  36.3441885  90.7169361  98.2462728  37.5971890  91.3389157
  96.6432899  39.8469665  81.1353372  97.3641262  40.2250918  80.6317089
  96.0198203  40.5658542  81.2388350 100.7864022  40.5514814  82.0711704
 101.0027636  41.4339452  81.7700533 100.3058089  40.1601027  81.3417346
  95.5263243  43.5100527  88.6482449  95.3807824  43.8240830  89.5406730
  95.0488447  44.1285428  88.0953348  97.3859626  40.5003075  88.6963339
  97.3721195  39.6044169  88.3595636  98.1032054  40.5073739  89.3301625
  99.2385757  40.9340415  90.7416466  98.9803535  41.8557486  90.7400796
  98.7070797  40.5370850  91.4316930 104.1831946  54.0391203  83.5206551
 104.3568823  53.4737625  82.7680404 104.6760837  54.8392097  83.3386041
  90.0008906  46.0505872  91.5870110  89.4562374  46.8265680  91.7190384
  90.8788255  46.3976676  91.4289232  96.7896522  39.3817456  83.9650909
  96.9112433  38.4534102  84.1641796  96.4998565  39.3956142  83.0529224
  99.6587713  37.0672366  87.1017629  99.6809409  37.1311699  86.1469608
 100.0755772  36.2276875  87.2958135 110.0371337  46.8027626  85.1396851
 110.4802483  46.0534951  84.7415974 109.1597847  46.7937762  84.7570583
 105.1707118  53.3557967  80.6203450 105.8658023  53.9764660  80.8390764
 105.5130268  52.5053318  80.8955828  90.7874927  45.1775768  94.4800267
  90.0456664  45.3258403  95.0664897  90.4667672  45.4384034  93.6167016
 107.0698541  50.8057673  82.1490780 107.5949866  51.1444945  81.4240100
 106.9820894  49.8704688  81.9653915  98.7318590  54.7191746  94.2780657
  99.0405717  54.4740893  95.1503357  99.5294072  54.9238385  93.7899527
  98.7539202  56.8729656  86.5086034  98.3144192  56.3806035  87.2018890
  99.5047319  56.3302623  86.2678109  91.2331541  53.0641197  86.5110662
  92.0589561  52.7644969  86.1309305  90.8825593  52.2948819  86.9600450
  96.2013074  52.4167665  88.5808335  95.5793084  51.7538370  88.2810563
  96.8717941  52.4428797  87.8981983  89.4340146  50.9827523  87.4699595
  88.5972055  50.5549697  87.2883597  89.4063792  51.1759966  88.4070386
  96.2737602  40.8949453  98.1740841  96.3225757  41.7711576  97.7918611
  96.8160116  40.3526846  97.6012484 106.7592447  51.4390576  97.4541978
 105.9687991  51.4214715  96.9146478 106.5225802  51.9778870  98.2091015
 106.8790323  48.2883043  94.7674707 106.9288327  48.1233050  95.7090230
 106.7704246  47.4210302  94.3772588  95.7626581  50.9671588  82.0566796
  95.9114702  51.6507053  81.4033469  96.5693025  50.9476678  82.5716252
 104.1694085  44.2713971  96.0834014 105.0703948  44.1320435  95.7918011
 104.2442059  44.4368425  97.0232191  98.5036890  41.6480825  94.9287200
  97.6340200  41.9414391  94.6569788  98.7396371  42.2321270  95.6494464
 108.3808519  50.7079984  95.0116728 108.0893328  51.0709965  95.8480189
 107.7680651  49.9946992  94.8330061 109.5804202  48.2732864  87.5319299
 110.4151093  48.7122668  87.6956859 109.7163330  47.7971517  86.7127544
 106.6295708  45.8312599  93.4796786 107.1049829  46.0240245  92.6715638
 105.7061273  45.8871785  93.2340170  93.5179214  46.9936766  83.0627865
  93.2725256  46.0899096  83.2608075  93.6875129  46.9953916  82.1207343
 101.2075924  37.8660442  92.4452620 101.7257868  38.6021469  92.1199109
 100.8531057  38.1724436  93.2799379  92.7874862  42.7265123  80.5614026
  92.0944107  42.8009478  79.9054062  92.5426614  41.9625467  81.0835543
 101.4588518  34.2860725  87.9653517 101.7390272  33.6183914  88.5913943
 102.2439125  34.4789820  87.4528181  99.2621987  53.4619719  79.5278543
  98.6895954  54.0809906  79.0749015  99.8354780  54.0119080  80.0618465
 105.3297377  42.7078359  91.7125092 106.2814800  42.8076456  91.7337316
 105.1600827  41.9156627  92.2223176 103.3511756  39.7933942  91.8984493
 102.7561688  40.0738955  91.2030982 103.0661453  40.2827843  92.6701234
 102.4819247  53.7456869  80.6587125 103.4149920  53.6802431  80.8620001
 102.3942459  54.5813136  80.2001658 105.1107263  53.0622739  77.6191073
 105.0320895  52.7282603  78.5126831 105.9316930  53.5544507  77.6182545
 107.8085454  45.9284478  90.8267392 107.7761774  44.9900479  91.0127075
 108.4186078  46.0068515  90.0933217  99.6468785  44.7980531  76.8694596
 100.5927890  44.6686740  76.9383014  99.2683030  44.0595193  77.3464024
 107.9579943  42.7195522  90.8725675 107.4418992  41.9353979  90.6855604
 108.8419891  42.3914239  91.0372194 105.6190670  36.4636537  86.8321488
 105.4215491  36.1551626  87.7164819 106.2290375  37.1898176  86.9619417
 113.6262004  46.9900485  89.9673428 114.3565393  46.7285773  90.5281132
 113.0168950  46.2529207  90.0075496 111.7077301  45.1308348  90.5647880
 110.9810465  44.9964313  89.9564371 111.2924588  45.4385177  91.3704598
  99.5307478  48.8498278  98.3295253 100.4510487  49.0276877  98.5235299
  99.4957061  47.9054323  98.1774952  97.8311702  42.7230508  76.8049481
  96.9243158  42.4263621  76.8812195  98.1087683  42.4260326  75.9383767
  88.7489643  44.0436871  87.2548527  88.4292427  43.1902179  86.9622901
  88.2023071  44.2585449  88.0106495  92.5269550  46.7599312  90.9718034
  92.7455560  47.6916420  90.9906068  92.9395324  46.4007287  91.7572838
  99.4473768  37.2667398  82.9593722  98.6374496  36.9214483  83.3348968
 100.1358185  36.9574941  83.5481334 101.3764316  36.3445444  84.5818019
 101.9295355  36.7640898  85.2408042 101.6134403  35.4181192  84.6240975
  97.3997416  42.3332518 100.3620783  97.2994143  43.2826875 100.2932874
  97.1818958  42.0050757  99.4896853  96.6010487  39.5817443  76.9461460
  97.4629651  39.9072341  77.2057277  96.7860831  38.7948939  76.4334526
  88.6177903  47.6639783  89.2241649  87.9241374  47.2493736  88.7111603
  89.3650894  47.7060319  88.6275068 104.7543124  38.4545970  84.0896683
 104.1741793  39.1130774  83.7074736 104.4879056  37.6323314  83.6784101
 103.2046690  37.8551027  86.2918003 103.7046468  37.9667562  85.4832322
 103.8482298  37.5512080  86.9318812  97.2628686  45.7629657  99.1785844
  96.7795767  46.5630017  99.3849733  97.3489625  45.7737602  98.2253288
  90.5314645  47.5958037  87.1007664  90.5085333  47.6945724  86.1489547
  90.8415282  48.4423187  87.4224830  93.1902023  49.6534192  91.2154278
  94.1445277  49.6218134  91.1484210  92.9914547  49.1924815  92.0304504
  93.7801405  48.2235308  93.7825076  94.5994294  48.7179386  93.8059913
  94.0538213  47.3067276  93.7542643 103.5368002  40.6146060  83.1453031
 102.6493857  40.8995711  82.9273226 103.9521991  40.4539823  82.2980308
 106.8882538  40.6392581  86.8607371 107.6642928  41.1289033  87.1331987
 106.1630672  41.0650635  87.3179240 109.3255096  41.3520200  87.9181311
 109.9199587  41.1115936  87.2074619 109.3981680  40.6327331  88.5454848
  91.5452252  55.1953811  88.2324476  91.4106720  54.4354212  87.6662474
  91.1284314  55.9194711  87.7653265 102.6811215  50.3790735  77.2401051
 103.3847065  50.5840737  77.8558707 101.9573864  50.9467496  77.5050135
 103.5109025  46.1300596  83.3603322 103.4544227  46.5869147  82.5210954
 104.0637368  45.3691280  83.1826164 107.3213831  41.9190328  84.1853441
 107.0650765  41.5186963  85.0161649 106.6966699  42.6334122  84.0603580
 111.6326169  44.6586401  86.6924732 111.0725727  44.7279590  87.4656295
 111.0269672  44.4827386  85.9724229  94.7021378  56.0923128  88.4442919
  94.5853762  57.0368561  88.3421609  93.8813824  55.7896690  88.8328718
 104.5897912  50.8173264  79.2899511 105.4243516  50.3854462  79.1076986
 104.4282255  50.6455277  80.2176406 104.2443805  47.3205377  80.6555851
 104.1892608  47.1549649  79.7144295 103.6189860  48.0281410  80.8118040
  89.0336320  42.5573441  94.4817273  89.6795183  42.0472395  94.9704498
  88.8253471  43.2942123  95.0560698 101.5589712  49.6254289  99.9809414
 102.4280871  49.7994941  99.6196048 101.0796463  50.4448706  99.8585143
  97.5539930  36.8213486  80.2341169  97.5418600  37.7655326  80.3909440
  98.4463352  36.6383631  79.9400630  95.7275892  56.7451390  91.6598847
  96.6303139  56.7775000  91.9765342  95.5013262  55.8151841  91.6745183
  97.4829494  55.4982376  88.3208926  96.5325125  55.4984238  88.2073298
  97.7861980  54.7515111  87.8044960 101.3692049  33.4156263  84.4887106
 100.6024445  32.8614749  84.6343788 101.7802754  33.4878131  85.3501258
  93.3733811  39.7041059  98.5792287  94.2365272  39.3477863  98.7895612
  92.7999221  39.3654953  99.2667691 113.2182187  61.3342915  89.3854688
 113.8560597  61.2149662  88.6818028 113.1003030  62.2823759  89.4442640
 110.0271894  61.2870343  89.3216213 109.6890405  61.1711408  88.4336748
 110.8961662  60.8861508  89.3017219 105.8858709  63.1405819  85.3113104
 105.3223575  63.0495756  84.5429392 105.7711105  62.3205724  85.7915596
 110.5091677  62.4405195  95.2802418 110.4980318  62.0457993  94.4082922
 110.6712316  61.7071267  95.8736190 103.4323141  64.6357011  88.1497324
 104.2244433  64.2947836  87.7343624 103.6719792  64.7451986  89.0699478
 111.4658268  66.8076787  80.6227569 110.8146248  67.3930868  80.2361583
 112.2602631  67.3382982  80.6822606 105.3913895  63.8965924  81.0214703
 106.1644771  63.3494911  80.8827579 105.7439294  64.7610174  81.2329164
 107.2298938  65.2242307  94.2281602 106.9388804  66.1287937  94.1128269
 107.8655922  65.2658834  94.9425672 108.1555145  62.6019155  90.8182962
 108.7518717  62.3775177  90.1039925 108.2130116  61.8603901  91.4208410
 107.7280173  60.0558590  78.6533153 107.9805694  59.5340112  77.8916616
 106.7904732  59.8924736  78.7559837 112.7723456  59.0594369  86.4607896
 113.5586545  58.6413792  86.1098313 113.0362160  59.9640461  86.6289545
 112.9433533  64.4967219  81.1596553 112.3079366  64.5701846  81.8717458
 112.6130940  65.0860818  80.4815632 118.1731883  58.9969602  87.3640875
 118.9057055  58.4268819  87.5978704 117.4171239  58.6091202  87.8047380
 107.4476462  61.9586696  80.8557528 107.3312720  61.2831600  81.5238612
 107.5578722  61.4719070  80.0389681 109.7908003  61.4196843  84.5604217
 109.4266210  60.8927464  85.2717139 110.6475119  61.0295312  84.3870703
 115.6957303  52.7091176  91.8235483 115.3640628  53.5786587  91.5996698
 115.1002917  52.3927460  92.5029514 109.4313490  56.4486743  79.5565566
 109.5987892  57.3166980  79.9236037 109.2410659  56.6114025  78.6326855
 112.1888823  64.9103722  91.2231396 111.8889546  65.8128761  91.1147203
 111.8439883  64.6435905  92.0752549 105.6401304  61.3617519  87.2568100
 104.7151801  61.2293733  87.4645792 105.8885718  62.1411738  87.7538043
 115.5885967  57.4286262  88.9028833 114.6802844  57.3601671  88.6087594
 115.5373563  57.9058207  89.7310659 109.4102711  58.9044401  80.5412233
 109.2902336  59.3501451  81.3797713 108.7155299  59.2529718  79.9825771
 103.0010116  61.0050792  88.0911890 103.1302497  61.2585271  89.0051301
 102.3207567  61.5978500  87.7716545 107.1709603  71.6748042  84.1902364
 107.0933632  72.6255867  84.2690844 106.5671246  71.3293915  84.8477290
 109.6626833  58.8475908  96.8463731 108.8860167  59.4069828  96.8366595
 110.3017396  59.3332691  97.3678601 117.4547613  55.6302701  90.6806707
 116.8121993  55.9235234  90.0346502 116.9502542  55.5155621  91.4859904
 115.1087777  59.3765874  81.3692567 116.0205633  59.6093261  81.1940264
 114.5997424  59.9602918  80.8067645 107.9173205  61.6561361  96.4081698
 108.6587889  62.1946405  96.1316521 107.2110190  62.2827650  96.5653249
 113.3928545  63.7990502  95.0053859 113.8011901  63.3572912  94.2608492
 112.6705806  63.2243129  95.2588052 109.7459615  58.7363108  92.3787416
 110.5920810  59.1602522  92.5222065 109.6858252  58.0796733  93.0725979
 113.7157359  64.3591692  88.7606148 113.0866222  64.5237406  88.0582216
 113.3283021  64.7733302  89.5317112 117.5946591  65.2946130  86.1150512
 116.9097629  65.6745031  85.5647545 117.6790440  65.9041457  86.8482460
 112.8959060  56.3967477  94.0368590 112.6519992  57.1509537  93.5002865
 113.1718990  56.7752824  94.8715837 114.8497523  62.9406089  92.7145855
 115.0614418  63.5837849  92.0380236 114.8027271  62.1068406  92.2467785
 112.4523752  55.5523910  89.6182427 111.5908231  55.8505163  89.9099165
 112.4786186  55.7694309  88.6863460 109.2685321  64.0966100  86.0256233
 109.7323667  64.3753803  85.2360856 109.0042119  63.1949545  85.8429324
 106.1609402  63.6437582  88.9635996 106.7310759  64.0724850  88.3253481
 106.7517514  63.3620167  89.6620182 108.2054207  60.2189253  82.8345798
 108.9078250  60.6710296  83.3019725 107.8734836  59.5773072  83.4625691
 106.6534569  58.8101009  97.2097008 106.0233229  59.4917290  97.4432404
 106.5470656  58.6984091  96.2650146 101.9479541  58.4772805  88.1362932
 101.1578595  58.7330334  87.6603042 102.4390788  59.2921143  88.2414972
 115.9643351  65.8178045  90.8868213 116.7860794  65.4158232  90.6050894
 115.9605753  65.7146279  91.8384328 103.8994286  58.8417385  85.0946409
 103.1025450  58.9536079  85.6129904 103.6719879  59.1804037  84.2287299
 109.7299954  65.3662088  93.0428923 109.7944387  65.8282495  93.8787095
 109.0210878  64.7359453  93.1711233 100.2317244  58.7303296  90.5677923
 100.4825282  59.6150306  90.8335499 100.7676792  58.5507897  89.7953014
 109.4447972  67.0330195  82.9107903 109.3093646  67.8781731  83.3392751
 109.9857784  67.2349473  82.1473837 105.9315311  53.1121775  99.5722259
 105.5382257  52.5587974 100.2469903 106.7481452  53.4232354  99.9628776
 102.8977369  64.5505633  83.4835829 103.4101890  65.3448884  83.6341393
 103.5500082  63.8531924  83.4169430 104.7072254  67.6671390  85.5658582
 104.8838882  68.5889354  85.3779566 105.5029087  67.3529809  85.9952962
 108.8483272  54.5279654  97.1642515 109.5892986  55.1286807  97.0846978
 109.0801195  53.7857292  96.6060558 103.9924610  59.7136022  95.4420745
 103.8778125  58.8121279  95.7427844 103.1369128  59.9599718  95.0905561
 111.0716448  67.6553762  97.0408246 110.6280302  66.8690140  96.7229150
 111.7333662  67.8432912  96.3752136 105.8303569  69.1849563  91.5668924
 106.3810994  69.0566627  90.7945918 104.9915045  69.4844452  91.2163817
 113.1697686  67.9356562  95.0689647 113.1516162  68.7565443  94.5769916
 114.0917606  67.8110637  95.2939788 109.6270740  65.4500691  95.9113155
 110.1599077  64.6888979  95.6812463 109.0984821  65.1574343  96.6537310
 112.7940435  50.5560757  91.4406797 112.4504705  51.4462399  91.3645908
 113.1619398  50.3662415  90.5776382 100.8626286  62.8794288  84.2595399
 101.7001508  63.2891296  84.0429107 101.0404554  61.9393730  84.2295593
 112.7590718  60.5469368  79.9479232 112.2437341  61.3173973  80.1867619
 112.4868026  59.8734504  80.5712294 110.3437829  55.3919069  85.0064470
 109.4879425  55.0025920  84.8270109 110.7564781  55.4711030  84.1464256
 111.8736976  52.9265412  89.4056030 111.3701771  52.8895548  88.5923835
 112.1667583  53.8358155  89.4652687 108.1179862  53.0104142  88.4122212
 108.9832858  52.8146951  88.0528101 108.1857370  52.7814494  89.3391569
 117.7324992  63.3001723  81.8832406 116.9554435  62.9612882  81.4387568
 118.4116473  63.3054346  81.2087371 112.5477021  58.4196460  81.7739013
 112.2427157  58.7342610  82.6249156 113.5007463  58.4977880  81.8166346
 110.9923453  64.5786684  83.4231967 110.4644815  63.8439443  83.1105205
 110.4910956  65.3561360  83.1771936 115.9716299  62.7735704  88.5399014
 115.3139973  63.4634966  88.6279142 116.7756698  63.1632136  88.8833000
 105.7242181  55.2406350  85.7838579 106.2985933  55.0181532  85.0511772
 106.3113163  55.3095045  86.5367180 114.7821758  61.1280077  86.5902955
 115.2953640  61.7610069  87.0924665 115.4322982  60.5281272  86.2246315
 106.0511768  57.2710811  79.8034464 105.2149080  57.6085498  80.1243739
 105.9116537  57.1359791  78.8661601 108.0264848  52.1147599  84.5113648
 107.3729261  51.7996616  83.8870263 107.9845322  51.4923339  85.2373471
 109.1376053  62.3966894  76.4266940 108.2303115  62.1656147  76.6258089
 109.6347085  61.6004513  76.6140922 112.0444132  71.1064401  79.3463626
 111.3705831  71.4096098  79.9548584 112.4309954  71.9093482  78.9969083
 111.2602589  58.6029532  88.8361296 110.3425150  58.8244479  88.6782984
 111.6762732  58.6775843  87.9773003 112.0437636  60.0020948  83.9663976
 112.7909455  60.5142345  83.6571098 112.3129226  59.6805001  84.8268370
 110.3164287  62.4979489  80.9490930 109.4075506  62.2138522  81.0463400
 110.3459370  62.9178567  80.0894237 115.5483554  66.1086078  84.7182098
 115.0945881  65.2676988  84.7747288 114.9177521  66.7447477  85.0556878
 114.4916474  57.0378064  85.9482765 113.7539230  56.5255451  86.2793008
 114.7443247  56.5978446  85.1366042 113.9916493  67.9462575  85.6531916
 114.2839468  68.5067632  84.9344282 114.5015114  68.2391136  86.4085075
 114.5928101  49.8154316  86.5424535 114.8986978  48.9551680  86.2550450
 115.3180706  50.4071937  86.3423529 100.8852457  60.2185003  84.9306133
 100.6876857  59.6254364  84.2057199 100.3299121  59.9137213  85.6482071
 108.8649181  60.1108109  87.0500726 108.9197790  59.1581946  86.9743202
 108.0540383  60.2667549  87.5342024 110.0140374  64.0388233  78.2879009
 109.5759804  63.3224091  77.8284646 110.7550815  64.2664347  77.7264100
 106.8041541  58.7285169  84.8091105 105.9909406  59.0279340  85.2156297
 107.3000535  58.3340858  85.5265587 108.9550118  68.7242926  86.7425369
 108.9126297  68.9503772  85.8133901 109.8712817  68.4906301  86.8911170
 112.4015752  59.1926994  93.6405998 112.7565140  59.4198467  94.5000464
 113.0487883  59.5245370  93.0183254 118.1313489  62.3145430  84.3455327
 117.9931388  62.5047026  83.4176517 117.7749708  63.0764812  84.8023379
 106.2955615  56.3003525  90.4252340 106.9354995  56.1592284  89.7275303
 105.4633146  56.0138038  90.0490942 118.1582869  64.3821957  89.3566599
 118.5919375  64.2897246  90.2049653 118.8714450  64.3579457  88.7186615
 107.0715919  65.6005955  86.5387332 107.8656518  65.1056275  86.3369907
 106.3607612  65.0723818  86.1755038 111.8910764  67.9824051  90.8899700
 111.9447786  68.5514987  91.6577416 111.0225545  68.1525936  90.5253737
 103.3798683  59.7449037  82.6147085 102.4496271  59.6833492  82.8317047
 103.4756155  59.2224990  81.8183726 103.2984232  56.2703850  85.2025326
 103.5591049  57.1849183  85.0934487 104.1201404  55.8028292  85.3521939
 104.7709157  57.6841607  92.3724151 105.4432211  57.4758969  91.7236800
 103.9438944  57.4863693  91.9329383 119.0198418  64.4245657  91.8899484
 119.2134308  65.3291468  92.1358759 118.9199037  63.9653076  92.7238069
 110.6734729  54.3103548  94.3889812 110.0262644  55.0093497  94.2954288
 111.4435745  54.7439692  94.7566060 114.0813527  64.5752400  97.4640365
 113.9299033  64.3462952  96.5470449 114.0718207  65.5323001  97.4771710
 110.8498863  62.1484313  92.4486631 111.7790923  62.2995472  92.2755599
 110.4289893  62.2368334  91.5935278 109.6487195  66.1734977  90.2185169
 109.5098281  65.8053762  91.0911107 108.8601791  66.6882617  90.0469127
 110.2435347  71.2744074  81.5610706 110.4187103  70.8032117  82.3756328
 109.5568135  71.9009840  81.7891966 111.1992410  65.5516580  87.6074007
 110.8642243  65.5117350  88.5031657 110.6996356  64.8861296  87.1344417
 105.1736654  60.9584210  93.1326588 105.0356452  60.2264449  93.7338127
 106.0841578  60.8693110  92.8510776 114.1351602  62.8972614  77.8811067
 113.5180773  62.1719442  77.7844119 113.6668091  63.6581974  77.5378141
 107.8018955  60.6704169  92.6210268 108.5118574  60.0297361  92.5796886
 107.7588263  60.9217064  93.5436448 115.7905734  67.6071523  95.5416847
 115.7318280  66.9230743  94.8747430 116.1925252  68.3490513  95.0897473
 106.5147889  57.6569387  94.4405907 105.9785246  57.2060126  95.0927503
 105.9264597  57.7915296  93.6976371 104.8096433  74.4233436  88.3350566
 105.0493031  75.0551961  89.0129584 103.9665629  74.0721476  88.6215925
 105.9250148  57.1158038  77.0032371 105.0479614  56.9946839  76.6394617
 106.4007901  56.3244117  76.7511259 115.7923141  65.5711106  93.7730827
 114.9049920  65.2337028  93.8957225 116.3621692  64.8394138  94.0099592
  97.4452288  61.9035198  87.0973878  98.1323328  61.5896928  86.5094893
  97.2900417  62.8076563  86.8241129 102.2487010  56.7925395  91.5258902
 102.1645199  56.1851064  90.7909312 101.4269717  57.2834413  91.5268398
 109.3224294  70.2312559  90.7392070 109.2494466  71.0367530  91.2511374
 108.8801687  70.4304525  89.9140091 109.1114074  69.4684329  84.2494891
 108.3281596  70.0106009  84.3433116 109.8106819  69.9858308  84.6489132
 112.4210724  55.2778958  86.8929097 112.9179424  54.5248921  86.5730167
 111.6497706  55.3143275  86.3272306 120.2740482  60.9819324  88.5347388
 120.2630358  61.8644039  88.1641321 119.4057861  60.6290875  88.3401925
 111.7822978  70.1299393  92.8950228 112.4950950  70.7646858  92.8226130
 111.2913007  70.2263259  92.0790230 113.5040505  64.0350646  84.4667520
 112.5696784  64.1552108  84.2972224 113.6817173  63.1323112  84.2027530
 109.0045693  57.4196341  86.6200781 108.6343480  56.8667382  87.3081687
 109.5004785  56.8154475  86.0675781 116.8913056  59.8767965  85.0017554
 117.3573508  60.7095956  84.9277857 117.3420557  59.4112946  85.7062813
 106.8334891  67.8793836  93.7155799 107.5344351  68.5130319  93.8685193
 106.3630006  68.2208568  92.9551439 114.9589287  66.2211786  82.0003706
 115.2349131  66.1068381  82.9097580 114.0893786  65.8229271  81.9615879
 114.8629719  52.2448552  89.0408456 113.9492799  52.4752779  89.2090662
 115.2922820  52.3286996  89.8922488 114.6336177  60.4338444  91.5408350
 113.9807628  60.6814351  90.8860802 115.0116557  59.6202582  91.2070827
 111.5943351  70.4698137  85.6436520 111.7765746  69.6519793  86.1064272
 112.4176337  70.6865829  85.2061410 111.9285517  69.3966322  82.9051568
 112.4573283  68.8858777  82.2921730 112.1913736  69.0808852  83.7697101
 110.6823750  61.1758255  98.0274387 110.0064387  61.0752384  98.6976762
 111.5051384  61.0197469  98.4910384 102.4302609  67.4130191  90.6486902
 103.0156046  66.6673879  90.7814806 102.2327448  67.7234148  91.5323566
 105.2841265  70.4481439  85.6649344 104.6151640  70.9327566  85.1813384
 105.1454134  70.6950659  86.5792723  97.0220264  59.9835792  89.3691345
  97.0604364  59.4499382  90.1628463  96.5160557  59.4570997  88.7502322
 109.4246533  72.4825182  92.2632003 109.9764841  72.6456804  93.0281088
 109.7652727  73.0729620  91.5912028 104.4011027  54.8300332  92.8653887
 104.4652353  55.6915163  92.4531285 104.3378147  54.2174334  92.1326246
 103.8763299  56.9023465  96.5126922 104.5035338  56.5200542  97.1264446
 103.0191218  56.6837667  96.8782614 114.2757408  67.3086440  98.1180657
 114.8197312  67.9216398  97.6235612 113.6944252  67.8666018  98.6347670
 100.6528842  58.7099894  82.4445276 100.9482283  57.8010572  82.3912330
  99.7516878  58.6887633  82.1226279 112.5614921  70.4307158  89.2495685
 112.4366060  69.6296898  88.7406630 113.2194012  70.9253351  88.7609655
 104.1823089  56.7855890  88.4272825 103.4609675  57.3991858  88.2880298
 104.9716345  57.3213655  88.3489471 114.6249829  68.2316178  90.8775235
 113.6780164  68.1121529  90.8053562 114.9732602  67.3438676  90.9601496
 106.9849402  54.1210317  94.7013477 107.5083804  54.3672613  95.4639786
 106.7661736  54.9530352  94.2816614 102.3816683  56.3913991  82.5684602
 102.0529390  55.5111370  82.3859708 102.7356054  56.3361660  83.4560991
 111.6296262  68.0268894  87.0779587 111.4821225  67.0985602  87.2587157
 112.4549756  68.0488985  86.5936662 105.4958507  56.6786961  82.9360079
 105.8354579  57.2072882  82.2138688 105.9430627  57.0167367  83.7118646
 115.2330384  68.8497453  88.1644460 116.1576932  68.6440314  88.0268911
 115.0645687  68.6013854  89.0733801 108.1901947  55.0624012  92.3863147
 107.8498768  54.2631825  92.7883827 107.4840954  55.3625723  91.8139981
 108.8418419  52.1473324  90.8390470 109.6644489  51.6733803  90.7169361
 109.0856483  52.9263808  91.3389157 107.4826654  55.1761583  81.1353372
 108.2035016  55.5542836  80.6317089 106.8591958  55.8950460  81.2388350
 111.6257777  55.8806732  82.0711704 111.8421391  56.7631370  81.7700533
 111.1451844  55.4892945  81.3417346 106.3656998  58.8392445  88.6482449
 106.2201579  59.1532748  89.5406730 105.8882202  59.4577345  88.0953348
 108.2253381  55.8294993  88.6963339 108.2114950  54.9336086  88.3595636
 108.9425809  55.8365657  89.3301625 110.0779512  56.2632333  90.7416466
 109.8197289  57.1849404  90.7400796 109.5464552  55.8662768  91.4316930
 115.0225700  69.3683120  83.5206551 115.1962578  68.8029543  82.7680404
 115.5154592  70.1684015  83.3386041 100.8402660  61.3797789  91.5870110
 100.2956128  62.1557597  91.7190384 101.7182010  61.7268594  91.4289232
 107.6290277  54.7109373  83.9650909 107.7506188  53.7826019  84.1641796
 107.3392319  54.7248059  83.0529224 110.4981467  52.3964284  87.1017629
 110.5203164  52.4603617  86.1469608 110.9149526  51.5568792  87.2958135
 120.8765091  62.1319543  85.1396851 121.3196238  61.3826868  84.7415974
 119.9991602  62.1229680  84.7570583 116.0100873  68.6849885  80.6203450
 116.7051777  69.3056577  80.8390764 116.3524023  67.8345236  80.8955828
 101.6268682  60.5067686  94.4800267 100.8850418  60.6550321  95.0664897
 101.3061426  60.7675951  93.6167016 117.9092296  66.1349590  82.1490780
 118.4343620  66.4736863  81.4240100 117.8214648  65.1996606  81.9653915
 109.5712345  70.0483664  94.2780657 109.8799471  69.8032811  95.1503357
 110.3687827  70.2530302  93.7899527 109.5932957  72.2021574  86.5086034
 109.1537947  71.7097952  87.2018890 110.3441074  71.6594541  86.2678109
 102.0725296  68.3933114  86.5110662 102.8983316  68.0936886  86.1309305
 101.7219348  67.6240737  86.9600450 107.0406829  67.7459583  88.5808335
 106.4186838  67.0830288  88.2810563 107.7111696  67.7720714  87.8981983
 100.2733901  66.3119441  87.4699595  99.4365809  65.8841615  87.2883597
 100.2457546  66.5051884  88.4070386 107.1131356  56.2241371  98.1740841
 107.1619512  57.1003493  97.7918611 107.6553871  55.6818764  97.6012484
 117.5986202  66.7682494  97.4541978 116.8081746  66.7506633  96.9146478
 117.3619557  67.3070788  98.2091015 117.7184077  63.6174960  94.7674707
 117.7682082  63.4524968  95.7090230 117.6098000  62.7502219  94.3772588
 106.6020336  66.2963506  82.0566796 106.7508456  66.9798970  81.4033469
 107.4086779  66.2768596  82.5716252 115.0087839  59.6005888  96.0834014
 115.9097702  59.4612353  95.7918011 115.0835814  59.7660343  97.0232191
 109.3430645  56.9772743  94.9287200 108.4733954  57.2706309  94.6569788
 109.5790125  57.5613188  95.6494464 119.2202274  66.0371902  95.0116728
 118.9287082  66.4001882  95.8480189 118.6074405  65.3238910  94.8330061
 120.4197956  63.6024782  87.5319299 121.2544848  64.0414586  87.6956859
 120.5557085  63.1263435  86.7127544 117.4689462  61.1604516  93.4796786
 117.9443584  61.3532163  92.6715638 116.5455027  61.2163702  93.2340170
 104.3572969  62.3228684  83.0627865 104.1119011  61.4191014  83.2608075
 104.5268883  62.3245834  82.1207343 112.0469679  53.1952360  92.4452620
 112.5651622  53.9313387  92.1199109 111.6924811  53.5016353  93.2799379
 103.6268616  58.0557041  80.5614026 102.9337861  58.1301396  79.9054062
 103.3820368  57.2917385  81.0835543 112.2982273  49.6152642  87.9653517
 112.5784027  48.9475832  88.5913943 113.0832880  49.8081738  87.4528181
 110.1015741  68.7911636  79.5278543 109.5289708  69.4101824  79.0749015
 110.6748535  69.3410998  80.0618465 116.1691131  58.0370276  91.7125092
 117.1208554  58.1368374  91.7337316 115.9994582  57.2448545  92.2223176
 114.1905511  55.1225860  91.8984493 113.5955443  55.4030872  91.2030982
 113.9055207  55.6119761  92.6701234 113.3213001  69.0748787  80.6587125
 114.2543674  69.0094348  80.8620001 113.2336214  69.9105053  80.2001658
 115.9501018  68.3914657  77.6191073 115.8714649  68.0574520  78.5126831
 116.7710684  68.8836425  77.6182545 118.6479209  61.2576396  90.8267392
 118.6155529  60.3192397  91.0127075 119.2579833  61.3360433  90.0933217
 110.4862540  60.1272449  76.8694596 111.4321644  59.9978657  76.9383014
 110.1076785  59.3887111  77.3464024 118.7973697  58.0487440  90.8725675
 118.2812746  57.2645896  90.6855604 119.6813646  57.7206156  91.0372194
 116.4584424  51.7928455  86.8321488 116.2609245  51.4843543  87.7164819
 117.0684130  52.5190094  86.9619417 110.3701232  64.1790195  98.3295253
 111.2904242  64.3568794  98.5235299 110.3350815  63.2346241  98.1774952
 108.6705457  58.0522426  76.8049481 107.7636912  57.7555538  76.8812195
 108.9481438  57.7552244  75.9383767  99.5883397  59.3728789  87.2548527
  99.2686182  58.5194097  86.9622901  99.0416825  59.5877367  88.0106495
 103.3663305  62.0891230  90.9718034 103.5849315  63.0208338  90.9906068
 103.7789079  61.7299204  91.7572838 110.2867523  52.5959315  82.9593722
 109.4768251  52.2506400  83.3348968 110.9751940  52.2866859  83.5481334
 112.2158071  51.6737362  84.5818019 112.7689110  52.0932815  85.2408042
 112.4528157  50.7473110  84.6240975 108.2391170  57.6624436 100.3620783
 108.1387897  58.6118793 100.2932874 108.0212712  57.3342675  99.4896853
 107.4404242  54.9109361  76.9461460 108.3023406  55.2364259  77.2057277
 107.6254586  54.1240857  76.4334526  99.4571657  62.9931700  89.2241649
  98.7635129  62.5785653  88.7111603 100.2044648  63.0352237  88.6275068
 115.5936878  53.7837887  84.0896683 115.0135547  54.4422691  83.7074736
 115.3272811  52.9615232  83.6784101 114.0440444  53.1842945  86.2918003
 114.5440223  53.2959479  85.4832322 114.6876052  52.8803998  86.9318812
 108.1022440  61.0921575  99.1785844 107.6189522  61.8921935  99.3849733
 108.1883379  61.1029519  98.2253288 101.3708400  62.9249954  87.1007664
 101.3479088  63.0237641  86.1489547 101.6809036  63.7715105  87.4224830
 104.0295778  64.9826109  91.2154278 104.9839031  64.9510052  91.1484210
 103.8308301  64.5216733  92.0304504 104.6195160  63.5527225  93.7825076
 105.4388049  64.0471304  93.8059913 104.8931968  62.6359193  93.7542643
 114.3761756  55.9437978  83.1453031 113.4887611  56.2287628  82.9273226
 114.7915745  55.7831741  82.2980308 117.7276292  55.9684499  86.8607371
 118.5036682  56.4580951  87.1331987 117.0024426  56.3942553  87.3179240
 120.1648851  56.6812118  87.9181311 120.7593342  56.4407854  87.2074619
 120.2375434  55.9619248  88.5454848 102.3846006  70.5245729  88.2324476
 102.2500474  69.7646130  87.6662474 101.9678069  71.2486629  87.7653265
 113.5204969  65.7082652  77.2401051 114.2240820  65.9132655  77.8558707
 112.7967618  66.2759414  77.5050135 114.3502780  61.4592514  83.3603322
 114.2937981  61.9161065  82.5210954 114.9031122  60.6983198  83.1826164
 118.1607586  57.2482245  84.1853441 117.9044520  56.8478881  85.0161649
 117.5360454  57.9626039  84.0603580 122.4719924  59.9878319  86.6924732
 121.9119482  60.0571508  87.4656295 121.8663427  59.8119303  85.9724229
 105.5415132  71.4215046  88.4442919 105.4247516  72.3660478  88.3421609
 104.7207579  71.1188607  88.8328718 115.4291667  66.1465181  79.2899511
 116.2637271  65.7146380  79.1076986 115.2676010  65.9747195  80.2176406
 115.0837559  62.6497295  80.6555851 115.0286363  62.4841566  79.7144295
 114.4583614  63.3573328  80.8118040  99.8730074  57.8865359  94.4817273
 100.5188938  57.3764313  94.9704498  99.6647225  58.6234041  95.0560698
 112.3983466  64.9546207  99.9809414 113.2674626  65.1286859  99.6196048
 111.9190218  65.7740623  99.8585143 108.3933685  52.1505404  80.2341169
 108.3812354  53.0947244  80.3909440 109.2857106  51.9675549  79.9400630
 106.5669646  72.0743308  91.6598847 107.4696893  72.1066918  91.9765342
 106.3407017  71.1443759  91.6745183 108.3223248  70.8274294  88.3208926
 107.3718880  70.8276156  88.2073298 108.6255735  70.0807029  87.8044960
 112.2085804  48.7448180  84.4887106 111.4418200  48.1906667  84.6343788
 112.6196509  48.8170049  85.3501258 104.2127565  55.0332976  98.5792287
 105.0759027  54.6769781  98.7895612 103.6392976  54.6946871  99.2667691
 120.8665648  76.6162261  89.3216213 120.5284160  76.5003325  88.4336748
 121.7355416  76.2153426  89.3017219 116.7252464  78.4697737  85.3113104
 116.1617329  78.3787674  84.5429392 116.6104859  77.6497642  85.7915596
 121.3485431  77.7697112  95.2802418 121.3374072  77.3749911  94.4082922
 121.5106071  77.0363185  95.8736190 114.2716896  79.9648929  88.1497324
 115.0638188  79.6239753  87.7343624 114.5113546  80.0743904  89.0699478
 116.2307650  79.2257842  81.0214703 117.0038526  78.6786829  80.8827579
 116.5833049  80.0902091  81.2329164 118.0692692  80.5534224  94.2281602
 117.7782558  81.4579855  94.1128269 118.7049677  80.5950752  94.9425672
 118.9948899  77.9311073  90.8182962 119.5912471  77.7067095  90.1039925
 119.0523871  77.1895818  91.4208410 118.5673928  75.3850508  78.6533153
 118.8199448  74.8632029  77.8916616 117.6298487  75.2216653  78.7559837
 118.2870216  77.2878614  80.8557528 118.1706474  76.6123517  81.5238612
 118.3972476  76.8010988  80.0389681 120.6301757  76.7488761  84.5604217
 120.2659965  76.2219382  85.2717139 121.4868873  76.3587230  84.3870703
 120.2707244  71.7778661  79.5565566 120.4381647  72.6458897  79.9236037
 120.0804413  71.9405943  78.6326855 116.4795059  76.6909437  87.2568100
 115.5545555  76.5585651  87.4645792 116.7279472  77.4703656  87.7538043
 120.2496465  74.2336318  80.5412233 120.1296090  74.6793369  81.3797713
 119.5549054  74.5821636  79.9825771 113.8403870  76.3342710  88.0911890
 113.9696251  76.5877189  89.0051301 113.1601321  76.9270418  87.7716545
 118.0103357  87.0039960  84.1902364 117.9327387  87.9547785  84.2690844
 117.4065001  86.6585833  84.8477290 120.5020587  74.1767825  96.8463731
 119.7253921  74.7361746  96.8366595 121.1411150  74.6624608  97.3678601
 118.7566959  76.9853279  96.4081698 119.4981644  77.5238323  96.1316521
 118.0503945  77.6119568  96.5653249 120.5853369  74.0655026  92.3787416
 121.4314564  74.4894440  92.5222065 120.5252007  73.4088650  93.0725979
 120.1079076  79.4258018  86.0256233 120.5717421  79.7045721  85.2360856
 119.8435874  78.5241463  85.8429324 117.0003157  78.9729500  88.9635996
 117.5704514  79.4016768  88.3253481 117.5911268  78.6912084  89.6620182
 119.0447962  75.5481170  82.8345798 119.7472005  76.0002214  83.3019725
 118.7128590  74.9064989  83.4625691 117.4928323  74.1392927  97.2097008
 116.8626984  74.8209208  97.4432404 117.3864411  74.0276009  96.2650146
 112.7873296  73.8064723  88.1362932 111.9972350  74.0622252  87.6603042
 113.2784543  74.6213061  88.2414972 114.7388041  74.1709302  85.0946409
 113.9419204  74.2827997  85.6129904 114.5113633  74.5095955  84.2287299
 120.5693709  80.6954006  93.0428923 120.6338141  81.1574413  93.8787095
 119.8604632  80.0651370  93.1711233 111.0710999  74.0595214  90.5677923
 111.3219037  74.9442223  90.8335499 111.6070547  73.8799815  89.7953014
 120.2841726  82.3622113  82.9107903 120.1487401  83.2073649  83.3392751
 120.8251539  82.5641391  82.1473837 116.7709066  68.4413693  99.5722259
 116.3776011  67.8879891 100.2469903 117.5875206  68.7524271  99.9628776
 113.7371124  79.8797551  83.4835829 114.2495644  80.6740801  83.6341393
 114.3893836  79.1823842  83.4169430 115.5466008  82.9963307  85.5658582
 115.7232637  83.9181272  85.3779566 116.3422842  82.6821727  85.9952962
 119.6877027  69.8571572  97.1642515 120.4286740  70.4578725  97.0846978
 119.9194950  69.1149210  96.6060558 114.8318365  75.0427939  95.4420745
 114.7171880  74.1413196  95.7427844 113.9762883  75.2891636  95.0905561
 116.6697324  84.5141481  91.5668924 117.2204749  84.3858544  90.7945918
 115.8308800  84.8136370  91.2163817 120.4664495  80.7792609  95.9113155
 120.9992832  80.0180897  95.6812463 119.9378576  80.4866261  96.6537310
 111.7020040  78.2086205  84.2595399 112.5395262  78.6183214  84.0429107
 111.8798308  77.2685648  84.2295593 121.1831584  70.7210987  85.0064470
 120.3273180  70.3317837  84.8270109 121.5958535  70.8002948  84.1464256
 118.9573616  68.3396060  88.4122212 119.8226613  68.1438868  88.0528101
 119.0251125  68.1106412  89.3391569 121.8317208  79.9078601  83.4231967
 121.3038569  79.1731361  83.1105205 121.3304710  80.6853278  83.1771936
 116.5635935  70.5698268  85.7838579 117.1379687  70.3473449  85.0511772
 117.1506918  70.6386962  86.5367180 116.8905522  72.6002729  79.8034464
 116.0542834  72.9377415  80.1243739 116.7510292  72.4651709  78.8661601
 118.8658603  67.4439517  84.5113648 118.2123015  67.1288534  83.8870263
 118.8239077  66.8215257  85.2373471 119.9769808  77.7258812  76.4266940
 119.0696869  77.4948065  76.6258089 120.4740840  76.9296431  76.6140922
 121.1558041  77.8271407  80.9490930 120.2469260  77.5430439  81.0463400
 121.1853125  78.2470485  80.0894237 111.7246212  75.5476921  84.9306133
 111.5270611  74.9546281  84.2057199 111.1692875  75.2429131  85.6482071
 119.7042935  75.4400027  87.0500726 119.7591545  74.4873864  86.9743202
 118.8934137  75.5959466  87.5342024 120.8534129  79.3680150  78.2879009
 120.4153559  78.6516009  77.8284646 121.5944570  79.5956265  77.7264100
 117.6435295  74.0577087  84.8091105 116.8303161  74.3571257  85.2156297
 118.1394289  73.6632776  85.5265587 119.7943873  84.0534844  86.7425369
 119.7520052  84.2795690  85.8133901 120.7106572  83.8198218  86.8911170
 117.1349370  71.6295442  90.4252340 117.7748749  71.4884202  89.7275303
 116.3026900  71.3429956  90.0490942 117.9109674  80.9297873  86.5387332
 118.7050272  80.4348193  86.3369907 117.2001366  80.4015736  86.1755038
 114.2192437  75.0740955  82.6147085 113.2890025  75.0125410  82.8317047
 114.3149909  74.5516907  81.8183726 114.1377986  71.5995767  85.2025326
 114.3984804  72.5141101  85.0934487 114.9595159  71.1320210  85.3521939
 115.6102912  73.0133525  92.3724151 116.2825965  72.8050887  91.7236800
 114.7832698  72.8155611  91.9329383 121.5128484  69.6395465  94.3889812
 120.8656399  70.3385415  94.2954288 122.2829499  70.0731609  94.7566060
 120.4880950  81.5026895  90.2185169 120.3492035  81.1345679  91.0911107
 119.6995546  82.0174534  90.0469127 121.0829102  86.6035991  81.5610706
 121.2580857  86.1324034  82.3756328 120.3961890  87.2301757  81.7891966
 122.0386165  80.8808498  87.6074007 121.7035997  80.8409267  88.5031657
 121.5390111  80.2153213  87.1344417 116.0130409  76.2876128  93.1326588
 115.8750207  75.5556366  93.7338127 116.9235332  76.1985028  92.8510776
 118.6412710  75.9996087  92.6210268 119.3512328  75.3589279  92.5796886
 118.5982018  76.2508982  93.5436448 117.3541643  72.9861305  94.4405907
 116.8179001  72.5352043  95.0927503 116.7658352  73.1207214  93.6976371
 115.6490187  89.7525354  88.3350566 115.8886785  90.3843878  89.0129584
 114.8059383  89.4013394  88.6215925 116.7643902  72.4449956  77.0032371
 115.8873369  72.3238757  76.6394617 117.2401656  71.6536034  76.7511259
 108.2846043  77.2327116  87.0973878 108.9717082  76.9188846  86.5094893
 108.1294171  78.1368481  86.8241129 113.0880765  72.1217312  91.5258902
 113.0038953  71.5142982  90.7909312 112.2663471  72.6126331  91.5268398
 120.1618049  85.5604476  90.7392070 120.0888220  86.3659448  91.2511374
 119.7195442  85.7596442  89.9140091 119.9507828  84.7976247  84.2494891
 119.1675350  85.3397927  84.3433116 120.6500574  85.3150226  84.6489132
 119.8439447  72.7488259  86.6200781 119.4737235  72.1959299  87.3081687
 120.3398540  72.1446392  86.0675781 117.6728646  83.2085754  93.7155799
 118.3738105  83.8422237  93.8685193 117.2023761  83.5500486  92.9551439
 121.5217505  76.5050172  98.0274387 120.8458142  76.4044302  98.6976762
 122.3445139  76.3489386  98.4910384 113.2696364  82.7422109  90.6486902
 113.8549801  81.9965797  90.7814806 113.0721202  83.0526066  91.5323566
 116.1235019  85.7773356  85.6649344 115.4545394  86.2619484  85.1813384
 115.9847889  86.0242577  86.5792723 107.8614019  75.3127709  89.3691345
 107.8998118  74.7791300  90.1628463 107.3554312  74.7862915  88.7502322
 120.2640288  87.8117100  92.2632003 120.8158596  87.9748721  93.0281088
 120.6046481  88.4021538  91.5912028 115.2404781  70.1592250  92.8653887
 115.3046107  71.0207081  92.4531285 115.1771901  69.5466251  92.1326246
 114.7157054  72.2315382  96.5126922 115.3429092  71.8492460  97.1264446
 113.8584972  72.0129584  96.8782614 111.4922596  74.0391811  82.4445276
 111.7876037  73.1302490  82.3912330 110.5910632  74.0179551  82.1226279
 115.0216843  72.1147808  88.4272825 114.3003429  72.7283776  88.2880298
 115.8110099  72.6505573  88.3489471 117.8243157  69.4502234  94.7013477
 118.3477559  69.6964531  95.4639786 117.6055490  70.2822269  94.2816614
 113.2210438  71.7205909  82.5684602 112.8923144  70.8403288  82.3859708
 113.5749809  71.6653578  83.4560991 116.3352261  72.0078879  82.9360079
 116.6748334  72.5364800  82.2138688 116.7824382  72.3459285  83.7118646
 119.0295702  70.3915930  92.3863147 118.6892522  69.5923743  92.7883827
 118.3234708  70.6917640  91.8139981 119.6812174  67.4765242  90.8390470
 120.5038243  67.0025720  90.7169361 119.9250237  68.2555726  91.3389157
 118.3220408  70.5053500  81.1353372 119.0428771  70.8834753  80.6317089
 117.6985712  71.2242377  81.2388350 117.2050752  74.1684363  88.6482449
 117.0595333  74.4824666  89.5406730 116.7275956  74.7869263  88.0953348
 119.0647135  71.1586911  88.6963339 119.0508704  70.2628004  88.3595636
 119.7819563  71.1657574  89.3301625 120.9173266  71.5924251  90.7416466
 120.6591044  72.5141321  90.7400796 120.3858306  71.1954685  91.4316930
 111.6796415  76.7089707  91.5870110 111.1349883  77.4849515  91.7190384
 112.5575764  77.0560512  91.4289232 118.4684031  70.0401291  83.9650909
 118.5899942  69.1117937  84.1641796 118.1786074  70.0539977  83.0529224
 121.3375222  67.7256201  87.1017629 121.3596918  67.7895534  86.1469608
 121.7543281  66.8860710  87.2958135 112.4662436  75.8359603  94.4800267
 111.7244172  75.9842239  95.0664897 112.1455181  76.0967869  93.6167016
 120.4106099  85.3775582  94.2780657 120.7193226  85.1324728  95.1503357
 121.2081581  85.5822220  93.7899527 120.4326711  87.5313491  86.5086034
 119.9931701  87.0389870  87.2018890 121.1834828  86.9886459  86.2678109
 112.9119050  83.7225032  86.5110662 113.7377070  83.4228804  86.1309305
 112.5613102  82.9532654  86.9600450 117.8800583  83.0751500  88.5808335
 117.2580593  82.4122205  88.2810563 118.5505450  83.1012632  87.8981983
 111.1127655  81.6411358  87.4699595 110.2759563  81.2133533  87.2883597
 111.0851301  81.8343802  88.4070386 117.9525111  71.5533288  98.1740841
 118.0013266  72.4295411  97.7918611 118.4947625  71.0110681  97.6012484
 117.4414090  81.6255424  82.0566796 117.5902211  82.3090888  81.4033469
 118.2480534  81.6060514  82.5716252 120.1824399  72.3064661  94.9287200
 119.3127709  72.5998227  94.6569788 120.4183880  72.8905106  95.6494464
 115.1966723  77.6520601  83.0627865 114.9512765  76.7482931  83.2608075
 115.3662638  77.6537752  82.1207343 114.4662371  73.3848959  80.5614026
 113.7731616  73.4593314  79.9054062 114.2214123  72.6209302  81.0835543
 120.9409496  84.1203554  79.5278543 120.3683463  84.7393741  79.0749015
 121.5142289  84.6702916  80.0618465 121.3256294  75.4564367  76.8694596
 122.2715399  75.3270575  76.9383014 120.9470539  74.7179029  77.3464024
 121.2094987  79.5082113  98.3295253 122.1297996  79.6860712  98.5235299
 121.1744570  78.5638158  98.1774952 119.5099211  73.3814343  76.8049481
 118.6030667  73.0847456  76.8812195 119.7875192  73.0844161  75.9383767
 110.4277152  74.7020707  87.2548527 110.1079936  73.8486015  86.9622901
 109.8810580  74.9169285  88.0106495 114.2057059  77.4183148  90.9718034
 114.4243069  78.3500255  90.9906068 114.6182833  77.0591122  91.7572838
 121.1261277  67.9251233  82.9593722 120.3162005  67.5798318  83.3348968
 121.8145694  67.6158777  83.5481334 119.0784925  72.9916353 100.3620783
 118.9781652  73.9410710 100.2932874 118.8606467  72.6634592  99.4896853
 118.2797996  70.2401278  76.9461460 119.1417160  70.5656177  77.2057277
 118.4648340  69.4532774  76.4334526 110.2965412  78.3223618  89.2241649
 109.6028883  77.9077571  88.7111603 111.0438403  78.3644155  88.6275068
 118.9416195  76.4213492  99.1785844 118.4583276  77.2213852  99.3849733
 119.0277134  76.4321437  98.2253288 112.2102154  78.2541872  87.1007664
 112.1872842  78.3529559  86.1489547 112.5202791  79.1007023  87.4224830
 114.8689532  80.3118027  91.2154278 115.8232786  80.2801969  91.1484210
 114.6702056  79.8508651  92.0304504 115.4588914  78.8819143  93.7825076
 116.2781803  79.3763222  93.8059913 115.7325722  77.9651111  93.7542643
 113.2239761  85.8537646  88.2324476 113.0894229  85.0938047  87.6662474
 112.8071823  86.5778546  87.7653265 116.3808887  86.7506963  88.4442919
 116.2641271  87.6952396  88.3421609 115.5601333  86.4480525  88.8328718
 110.7123829  73.2157277  94.4817273 111.3582692  72.7056231  94.9704498
 110.5040980  73.9525958  95.0560698 119.2327439  67.4797321  80.2341169
 119.2206109  68.4239161  80.3909440 120.1250861  67.2967467  79.9400630
 117.4063401  87.4035225  91.6598847 118.3090648  87.4358836  91.9765342
 117.1800771  86.4735676  91.6745183 119.1617003  86.1566212  88.3208926
 118.2112634  86.1568073  88.2073298 119.4649489  85.4098946  87.8044960
 115.0521320  70.3624894  98.5792287 115.9152781  70.0061699  98.7895612
 114.4786730  70.0238789  99.2667691 121.9104753  89.3887131  90.5677923
 122.1612791  90.2734141  90.8335499 122.4464301  89.2091733  89.7953014
 119.1239797  92.5619034  87.0973878 119.8110837  92.2480764  86.5094893
 118.9687926  93.4660398  86.8241129 118.7007773  90.6419627  89.3691345
 118.7391873  90.1083218  90.1628463 118.1948066  90.1154832  88.7502322
 121.9521410  96.9703276  87.4699595 121.1153318  96.5425451  87.2883597
 121.9245055  97.1635720  88.4070386 121.2670906  90.0312624  87.2548527
 120.9473691  89.1777932  86.9622901 120.7204334  90.2461202  88.0106495
 121.1359166  93.6515536  89.2241649 120.4422638  93.2369489  88.7111603
 121.8832157  93.6936072  88.6275068 121.5517583  88.5449194  94.4817273
 122.1976447  88.0348148  94.9704498 121.3434734  89.2817876  95.0560698
  74.6528341   2.6934412  70.9147670  74.5752370   3.6442237  70.9936151
  74.0489984   2.3480284  71.5722597  72.2915170   5.4419806  75.0595872
  72.5311769   6.0738330  75.7374891  71.4484367   5.0907846  75.3461232
  72.7660002   1.4667808  72.3894651  72.0970378   1.9513936  71.9058691
  72.6272872   1.7137029  73.3038029  76.9065271   3.5011552  78.9877309
  77.4583579   3.6643173  79.7526395  77.2471465   4.0915990  78.3157334
  77.0751694   3.2207943  73.2331340  76.6356685   2.7284322  73.9264197
  77.8259811   2.6780911  72.9923415  69.8664744   1.5432098  74.9569783
  69.7319212   0.7832499  74.3907781  69.4496807   2.2672998  74.4898572
  73.0233870   2.4401415  75.1688225  72.9066254   3.3846848  75.0666916
  72.2026316   2.1374977  75.5574025  74.0488384   3.0929677  78.3844154
  74.9515631   3.1253287  78.7010649  73.8225754   2.1630128  78.3990490
  88.3484386   7.6348630  76.0461520  88.0102898   7.5189695  75.1582054
  89.2174154   7.2339795  76.0262526  84.2071202   9.4884107  72.0358410
  83.6436067   9.3974044  71.2674698  84.0923597   8.6684011  72.5160903
  88.8304169   8.7883482  82.0047725  88.8192810   8.3936280  81.1328229
  88.9924809   8.0549555  82.5981497  81.7535634  10.9835298  74.8742631
  82.5456926  10.6426123  74.4588930  81.9932284  11.0930273  75.7944784
  89.7870760  13.1555074  67.3472875  89.1358740  13.7409155  66.9606889
  90.5815123  13.6861269  67.4067913  83.7126388  10.2444212  67.7460010
  84.4857264   9.6973199  67.6072886  84.0651786  11.1088461  67.9574471
  85.5511430  11.5720594  80.9526909  85.2601296  12.4766225  80.8373575
  86.1868415  11.6137121  81.6670979  86.4767637   8.9497442  77.5428269
  87.0731209   8.7253465  76.8285232  86.5342609   8.2082188  78.1453717
  86.0492665   6.4036878  65.3778460  86.3018186   5.8818399  64.6161923
  85.1117225   6.2403023  65.4805143  91.2646026  10.8445506  67.8841860
  90.6291859  10.9180133  68.5962764  90.9343432  11.4339105  67.2060939
  85.7688954   8.3064984  67.5802835  85.6525212   7.6309887  68.2483919
  85.8791214   7.8197358  66.7634988  88.1120495   7.7675131  71.2849524
  87.7478702   7.2405752  71.9962445  88.9687611   7.3773600  71.1116009
  90.5101315  11.2582009  77.9476703  90.2102038  12.1607048  77.8392510
  90.1652375  10.9914192  78.7997856  83.9613797   7.7095806  73.9813407
  83.0364293   7.5772020  74.1891099  84.2098210   8.4890025  74.4783350
  81.3222608   7.3529080  74.8157196  81.4514989   7.6063559  75.7296608
  80.6420059   7.9456788  74.4961851  85.4922095  18.0226330  70.9147670
  85.4146125  18.9734155  70.9936151  84.8883739  17.6772202  71.5722597
  86.2385697   8.0039648  83.1327004  86.9800382   8.5424692  82.8561828
  85.5322683   8.6305937  83.2898556  91.7141037  10.1468789  81.7299166
  92.1224393   9.7051199  80.9853798  90.9918298   9.5721416  81.9833359
  92.0369851  10.7069980  75.4851455  91.4078714  10.8715694  74.7827523
  91.6495514  11.1211589  76.2562419  95.9159083  11.6424417  72.8395818
  95.2310121  12.0223319  72.2892852  96.0002933  12.2519744  73.5727766
  93.1710015   9.2884376  79.4391162  93.3826910   9.9316136  78.7625543
  93.1239763   8.4546693  78.9713092  87.5897813  10.4444388  72.7501540
  88.0536159  10.7232091  71.9606162  87.3254611   9.5427832  72.5674630
  84.4821894   9.9915869  75.6881303  85.0523251  10.4203138  75.0498788
  85.0730006   9.7098454  76.3865489  86.5266699   6.5667540  69.5591105
  87.2290743   7.0188584  70.0265031  86.1947328   5.9251359  70.1870998
  84.9747061   5.1579297  83.9342314  84.3445721   5.8395577  84.1677711
  84.8683149   5.0462378  82.9895453  80.2692033   4.8251093  74.8608238
  79.4791087   5.0808621  74.3848349  80.7603281   5.6399430  74.9660279
  94.2855843  12.1656332  77.6113519  95.1073287  11.7636519  77.3296201
  94.2818246  12.0624566  78.5629635  82.2206779   5.1895672  71.8191715
  81.4237942   5.3014366  72.3375211  81.9932371   5.5282324  70.9532606
  88.0512446  11.7140375  79.7674230  88.1156879  12.1760782  80.6032402
  87.3423370  11.0837740  79.8956540  78.5529736   5.0781583  77.2923229
  78.8037775   5.9628593  77.5580805  79.0889285   4.8986185  76.5198321
  87.7660464  13.3808483  69.6353210  87.6306139  14.2260018  70.0638058
  88.3070276  13.5827760  68.8719144  81.2189861  10.8983921  70.2081135
  81.7314382  11.6927171  70.3586700  81.8712574  10.2010211  70.1414737
  83.0284746  14.0149677  72.2903888  83.2051374  14.9367642  72.1024872
  83.8241580  13.7008096  72.7198268  82.3137103   6.0614309  82.1666052
  82.1990618   5.1599566  82.4673151  81.4581620   6.3078006  81.8150868
  89.3928940  14.0032049  83.7653552  88.9492795  13.2168428  83.4474457
  90.0546154  14.1911200  83.0997443  84.1516062  15.5327851  78.2914231
  84.7023487  15.4044914  77.5191225  83.3127537  15.8322740  77.9409124
  91.4910178  14.2834849  81.7934953  91.4728654  15.1043730  81.3015223
  92.4130098  14.1588924  82.0185095  87.9483233  11.7978979  82.6358462
  88.4811569  11.0367267  82.4057770  87.4197314  11.5052630  83.3782616
  79.1838778   9.2272575  70.9840706  80.0214000   9.6369583  70.7674413
  79.3617046   8.2872017  70.9540900  96.0537484   9.6480010  68.6077712
  95.2766927   9.3091170  68.1632874  96.7328965   9.6532633  67.9332677
  89.3135945  10.9264971  70.1477274  88.7857307  10.1917731  69.8350511
  88.8123448  11.7039647  69.9017242  94.2928791   9.1213991  75.2644320
  93.6352466   9.8113253  75.3524449  95.0969191   9.5110423  75.6078307
  87.4588545   8.7445181  63.1512247  86.5515607   8.5134435  63.3503396
  87.9559577   7.9482801  63.3386228  90.3656624  17.4542688  66.0708933
  89.6918323  17.7574385  66.6793891  90.7522446  18.2571769  65.7214390
  88.6376779   8.8457776  67.6736237  87.7287998   8.5616809  67.7708707
  88.6671863   9.2656855  66.8139544  93.8696046  12.4564366  71.4427405
  93.4158373  11.6155275  71.4992595  93.2390013  13.0925764  71.7802185
  92.3128986  14.2940862  72.3777223  92.6051960  14.8545919  71.6589588
  92.8227606  14.5869423  73.1330382  79.2064949   6.5663290  71.6551439
  79.0089349   5.9732651  70.9302506  78.6511613   6.2615500  72.3727378
  88.3352867  10.3866520  65.0124316  87.8972297   9.6702379  64.5529953
  89.0763308  10.6142635  64.4509407  87.2762611  15.0721213  73.4670676
  87.2338790  15.2982060  72.5379208  88.1925310  14.8384588  73.6156477
  96.4795361  10.7300244  76.0811906  96.9131868  10.6375533  76.9294960
  97.1926942  10.7057744  75.4431922  85.3928412  11.9484242  73.2632639
  86.1869010  11.4534563  73.0615214  84.6820104  11.4202106  72.9000344
  90.2123256  14.3302338  77.6145006  90.2660278  14.8993274  78.3822722
  89.3438037  14.5004223  77.2499043  81.7011175   6.0927324  69.3392391
  80.7708763   6.0311780  69.5562353  81.7968647   5.5703277  68.5429033
  97.3410911  10.7723944  78.6144791  97.5346801  11.6769755  78.8604066
  97.2411529  10.3131364  79.4483376  92.4026019  10.9230687  84.1885672
  92.2511526  10.6941239  83.2715755  92.3930699  11.8801289  84.2017017
  89.1711356   8.4962600  79.1731938  90.1003416   8.6473760  79.0000905
  88.7502386   8.5846621  78.3180585  87.9699688  12.5213264  76.9430476
  87.8310773  12.1532049  77.8156414  87.1814284  13.0360904  76.7714434
  88.5647839  17.6222361  68.2856012  88.7399595  17.1510404  69.1001635
  87.8780628  18.2488127  68.5137273  89.5204903  11.8994867  74.3319314
  89.1854735  11.8595637  75.2276963  89.0208848  11.2339583  73.8589724
  83.4949147   7.3062497  79.8571895  83.3568945   6.5742736  80.4583434
  84.4054070   7.2171397  79.5756082  92.4564094   9.2450901  64.6056373
  91.8393265   8.5197730  64.5089426  91.9880583  10.0060262  64.2623447
  86.1231447   7.0182456  79.3455574  86.8331066   6.3775649  79.3042193
  86.0800755   7.2695351  80.2681755  94.1118226  13.9549810  82.2662154
  94.0530772  13.2709030  81.5992737  94.5137744  14.6968800  81.8142780
  83.1308925  20.7711724  75.0595872  83.3705523  21.4030248  75.7374891
  82.2878121  20.4199764  75.3461232  94.1135633  11.9189394  80.4976133
  93.2262412  11.5815316  80.6202532  94.6834184  11.1872425  80.7344899
  75.7664780   8.2513485  73.8219185  76.4535820   7.9375215  73.2340200
  75.6112909   9.1554850  73.5486436  87.6436787  16.5790846  77.4637376
  87.5706958  17.3845818  77.9756681  87.2014180  16.7782812  76.6385398
  87.4326566  15.8162616  70.9740198  86.6494088  16.3584296  71.0678422
  88.1319311  16.3336596  71.3734439  90.1035470  16.4777680  79.6195535
  90.8163442  17.1125145  79.5471437  89.6125499  16.5741546  78.8035537
  91.8252997  10.3828933  71.1912827  90.8909276  10.5030395  71.0217531
  92.0029666   9.4801400  70.9272837  85.1547384  14.2272124  80.4401106
  85.8556843  14.8608607  80.5930500  84.6842499  14.5686855  79.6796745
  93.2801780  12.5690073  68.7249013  93.5561623  12.4546668  69.6342887
  92.4106278  12.1707558  68.6861186  89.9155844  16.8176424  72.3681827
  90.0978238  15.9998080  72.8309579  90.7388830  17.0344116  71.9306717
  90.2498009  15.7444609  69.6296875  90.7785775  15.2337064  69.0167037
  90.5126229  15.4287140  70.4942408  89.0036243   7.5236542  84.7519693
  88.3276880   7.4230671  85.4222069  89.8263877   7.3675756  85.2155691
  80.7515102  13.7608479  77.3732209  81.3368539  13.0152167  77.5060113
  80.5539940  14.0712435  78.2568872  83.6053757  16.7959726  72.3894651
  82.9364132  17.2805854  71.9058691  83.4666627  17.0428946  73.3038029
  75.3432756   6.3314079  76.0936652  75.3816856   5.7977670  76.8873770
  74.8373049   5.8049284  75.4747629  87.7459026  18.8303470  78.9877309
  88.2977334  18.9935091  79.7526395  88.0865219  19.4207907  78.3157334
  92.5969900  13.6564727  84.8425964  93.1409804  14.2694685  84.3480919
  92.0156745  14.2144305  85.3592977  78.9741334   5.0578181  69.1690583
  79.2694775   4.1488859  69.1157637  78.0729370   5.0365920  68.8471585
  90.8827413  16.7785445  75.9740991  90.7578552  15.9775185  75.4651937
  91.5406504  17.2731638  75.4854961  92.9462321  14.5794465  77.6020542
  91.9992657  14.4599816  77.5298868  93.2945094  13.6916963  77.6846803
  89.9508755  14.3747181  73.8024894  89.8033717  13.4463889  73.9832464
  90.7762248  14.3967272  73.3181969  93.5542876  15.1975740  74.8889767
  94.4789424  14.9918601  74.7514218  93.3858180  14.9492141  75.7979108
  84.6869490   5.1870732  75.3727756  84.5414071   5.5011035  76.2652037
  84.2094694   5.8055633  74.8198654  93.3438193  15.7161408  70.2451858
  93.5175070  15.1507830  69.4925710  93.8367084  16.5162302  70.0631348
  79.1615152   7.7276077  78.3115417  78.6168620   8.5035885  78.4435691
  80.0394502   8.0746881  78.1534538  94.3313365  15.0328172  67.3448756
  95.0264270  15.6534865  67.5636071  94.6736515  14.1823523  67.6201134
  79.9481174   6.8545973  81.2045574  79.2062910   7.0028608  81.7910204
  79.6273919   7.1154238  80.3412323  96.2304788  12.4827877  68.8736087
  96.7556112  12.8215150  68.1485407  96.1427141  11.5474893  68.6899222
  87.8924837  16.3961951  81.0025964  88.2011963  16.1511098  81.8748663
  88.6900319  16.6008590  80.5144834  87.9145449  18.5499861  73.2331340
  87.4750439  18.0576239  73.9264197  88.6653566  18.0072828  72.9923415
  80.3937788  14.7411402  73.2355968  81.2195808  14.4415173  72.8554612
  80.0431840  13.9719024  73.6845757  85.3619321  14.0937870  75.3053642
  84.7399330  13.4308575  75.0055870  86.0324188  14.1199002  74.6227290
  78.5946393  12.6597728  74.1944902  77.7578301  12.2319902  74.0128903
  78.5670038  12.8530171  75.1315693  95.9198694  13.1160781  84.1787285
  95.1294238  13.0984920  83.6391784  95.6832049  13.6549075  84.9336322
  96.0396569   9.9653247  81.4920014  96.0894574   9.8003255  82.4335536
  95.9310493   9.0980507  81.1017894  84.9232828  12.6441793  68.7812102
  85.0720948  13.3277258  68.1278775  85.7299271  12.6246883  69.2961558
  97.5414766  12.3850189  81.7362035  97.2499574  12.7480170  82.5725496
  96.9286897  11.6717197  81.5575367  82.6785461   8.6706971  69.7873171
  82.4331503   7.7669301  69.9853381  82.8481376   8.6724121  68.8452649
  88.4228234  15.1389924  66.2523850  87.8502201  15.7580111  65.7994322
  88.9961027  15.6889285  66.7863772  91.6425493  15.4227074  67.3832432
  92.5756166  15.3572635  67.5865308  91.5548706  16.2583341  66.9246965
  94.2713510  14.7392944  64.3436380  94.1927142  14.4052808  65.2372138
  95.0923177  15.2314712  64.3427852  88.6913725  10.5268482  85.0540559
  89.6116734  10.7047082  85.2480606  88.6563308   9.5824528  84.9020259
  77.9095890   5.7207076  73.9793834  77.5898674   4.8672384  73.6868208
  77.3629318   5.9355654  74.7351801  81.6875797   8.4369517  77.6963341
  81.9061807   9.3686625  77.7151374  82.1001571   8.0777492  78.4818144
  77.7784150   9.3409988  75.9486956  77.0847621   8.9263940  75.4356910
  78.5257141   9.3830524  75.3520374  86.4234932   7.4399862  85.9031151
  85.9402014   8.2400222  86.1095040  86.5095872   7.4507807  84.9498595
  79.6920892   9.2728241  73.8252970  79.6691580   9.3715929  72.8734854
  80.0021529  10.1193392  74.1470137  82.3508270  11.3304396  77.9399585
  83.3051524  11.2988339  77.8729516  82.1520794  10.8695020  78.7549811
  82.9407652   9.9005513  80.5070383  83.7600541  10.3949591  80.5305220
  83.2144460   8.9837481  80.4787950  80.7058499  16.8724016  74.9569783
  80.5712967  16.1124417  74.3907781  80.2890561  17.5964916  74.4898572
  91.8417462  12.0560939  63.9646358  92.5453312  12.2610942  64.5804014
  91.1180111  12.6237701  64.2295442  83.8627625  17.7693333  75.1688225
  83.7460009  18.7138765  75.0666916  83.0420071  17.4666895  75.5574025
  93.7504159  12.4943469  66.0144818  94.5849763  12.0624667  65.8322293
  93.5888502  12.3225482  66.9421713  93.4050051   8.9975582  67.3801157
  93.3498855   8.8319853  66.4389601  92.7796107   9.7051615  67.5363347
  78.1942566   4.2343646  81.2062580  78.8401430   3.7242600  81.6949805
  77.9859717   4.9712328  81.7806005  90.7195959  11.3024494  86.7054720
  91.5887118  11.4765146  86.3441355  90.2402710  12.1218911  86.5830450
  84.8882139  18.4221595  78.3844154  85.7909385  18.4545205  78.7010649
  84.6619509  17.4922046  78.3990490  86.6435741  17.1752581  75.0454232
  85.6931372  17.1754443  74.9318605  86.9468227  16.4285316  74.5290267
 102.3788434  23.0113120  76.1099995 103.0166844  22.8919867  75.4063335
 102.2609277  23.9593964  76.1687947  99.1878141  22.9640548  76.0461520
  98.8496652  22.8481613  75.1582054 100.0567909  22.5631713  76.0262526
  95.0464956  24.8176024  72.0358410  94.4829821  24.7265961  71.2674698
  94.9317351  23.9975929  72.5160903  99.6697924  24.1175400  82.0047725
  99.6586564  23.7228198  81.1328229  99.8318563  23.3841472  82.5981497
  92.5929388  26.3127216  74.8742631  93.3850680  25.9718041  74.4588930
  92.8326038  26.4222191  75.7944784 100.6264515  28.4846992  67.3472875
  99.9752495  29.0701072  66.9606889 101.4208878  29.0153187  67.4067913
  94.5520142  25.5736129  67.7460010  95.3251018  25.0265116  67.6072886
  94.9045541  26.4380378  67.9574471  96.3905185  26.9012511  80.9526909
  96.0995051  27.8058142  80.8373575  97.0262169  26.9429039  81.6670979
  97.3161392  24.2789360  77.5428269  97.9124964  24.0545382  76.8285232
  97.3736363  23.5374105  78.1453717  96.8886420  21.7328795  65.3778460
  97.1411941  21.2110317  64.6161923  95.9510979  21.5694941  65.4805143
 101.9329703  20.7364574  73.1853203 102.7192792  20.3183997  72.8343620
 102.1968407  21.6410666  73.3534851 102.1039780  26.1737424  67.8841860
 101.4685613  26.2472050  68.5962764 101.7737187  26.7631023  67.2060939
 107.3338130  20.6739807  74.0886181 108.0663302  20.1039024  74.3224011
 106.5777486  20.2861407  74.5292687  96.6082709  23.6356901  67.5802835
  96.4918967  22.9601805  68.2483919  96.7184969  23.1489275  66.7634988
  98.9514250  23.0967048  71.2849524  98.5872457  22.5697669  71.9962445
  99.8081366  22.7065517  71.1116009 104.8563550  14.3861381  78.5480790
 104.5246875  15.2556792  78.3242005 104.2609164  14.0697665  79.2274820
  98.5919737  18.1256948  66.2810872  98.7594139  18.9937184  66.6481343
  98.4016906  18.2884230  65.3572162 101.3495070  26.5873927  77.9476703
 101.0495793  27.4898966  77.8392510 101.0046129  26.3206110  78.7997856
  94.8007551  23.0387724  73.9813407  93.8758048  22.9063938  74.1891099
  95.0491964  23.8181943  74.4783350 104.7492214  19.1056467  75.6274140
 103.8409091  19.0371876  75.3332901 104.6979809  19.5828412  76.4555966
  98.5708957  20.5814606  67.2657539  98.4508583  21.0271656  68.1043019
  97.8761546  20.9299923  66.7071077  92.1616362  22.6820997  74.8157196
  92.2908743  22.9355476  75.7296608  91.4813814  23.2748705  74.4961851
  96.3315850  33.3518247  70.9147670  96.2539879  34.3026072  70.9936151
  95.7277493  33.0064120  71.5722597  98.8233079  20.5246113  83.5709037
  98.0466413  21.0840033  83.5611902  99.4623642  21.0102896  84.0923907
 106.6153860  17.3072906  77.4052014 105.9728240  17.6005439  76.7591809
 106.1108788  17.1925826  78.2105211 104.2694024  21.0536079  68.0937873
 105.1811880  21.2863465  67.9185571 103.7603671  21.6373123  67.5312952
  97.0779452  23.3331566  83.1327004  97.8194136  23.8716610  82.8561828
  96.3716437  23.9597855  83.2898556 102.5534791  25.4760707  81.7299166
 102.9618147  25.0343117  80.9853798 101.8312053  24.9013334  81.9833359
  98.9065861  20.4133313  79.1032723  99.7527057  20.8372727  79.2467372
  98.8464499  19.7566938  79.7971286 102.8763606  26.0361897  75.4851455
 102.2472468  26.2007611  74.7827523 102.4889268  26.4503507  76.2562419
 106.7552838  26.9716335  72.8395818 106.0703876  27.3515236  72.2892852
 106.8396687  27.5811662  73.5727766 102.0565307  18.0737682  80.7613896
 101.8126239  18.8279742  80.2248172 102.3325237  18.4523029  81.5961143
 104.0103769  24.6176294  79.4391162 104.2220665  25.2608054  78.7625543
 103.9633518  23.7838611  78.9713092 101.6129998  17.2294115  76.3427734
 100.7514477  17.5275368  76.6344472 101.6392433  17.4464514  75.4108767
  98.4291568  25.7736305  72.7501540  98.8929913  26.0524008  71.9606162
  98.1648366  24.8719750  72.5674630  95.3215649  25.3207787  75.6881303
  95.8917006  25.7495055  75.0498788  95.9123761  25.0390372  76.3865489
  97.3660454  21.8959458  69.5591105  98.0684497  22.3480501  70.0265031
  97.0341082  21.2543276  70.1870998  95.8140815  20.4871214  83.9342314
  95.1839476  21.1687495  84.1677711  95.7076903  20.3754296  82.9895453
  91.1085788  20.1543010  74.8608238  90.3184842  20.4100539  74.3848349
  91.5997035  20.9691348  74.9660279 105.1249597  27.4948249  77.6113519
 105.9467041  27.0928437  77.3296201 105.1212000  27.3916484  78.5629635
  93.0600533  20.5187590  71.8191715  92.2631696  20.6306284  72.3375211
  92.8326125  20.8574242  70.9532606  98.8906201  27.0432293  79.7674230
  98.9550633  27.5052700  80.6032402  98.1817125  26.4129658  79.8956540
  89.3923491  20.4073501  77.2923229  89.6431529  21.2920511  77.5580805
  89.9283039  20.2278102  76.5198321 113.2155590  23.8386998  73.9598491
 112.4619299  23.2694396  73.8042495 113.3503132  23.8049662  74.9069125
  98.6054218  28.7100400  69.6353210  98.4699893  29.5551936  70.0638058
  99.1464031  28.9119678  68.8719144  95.0921558  14.7891980  86.2967565
  94.6988504  14.2358179  86.9715210  95.9087698  15.1002559  86.6874083
  92.0583616  26.2275838  70.2081135  92.5708136  27.0219089  70.3586700
  92.7106329  25.5302129  70.1414737  93.8678501  29.3441595  72.2903888
  94.0445129  30.2659559  72.1024872  94.6635334  29.0300014  72.7198268
  98.0089519  16.2049859  83.8887822  98.7499232  16.8057012  83.8092284
  98.2407442  15.4627497  83.3305864  93.1530857  21.3906226  82.1666052
  93.0384372  20.4891484  82.4673151  92.2975375  21.6369923  81.8150868
 100.2322695  29.3323967  83.7653552  99.7886549  28.5460345  83.4474457
 100.8939908  29.5203117  83.0997443  94.9909816  30.8619768  78.2914231
  95.5417241  30.7336832  77.5191225  94.1521292  31.1614657  77.9409124
 102.3303933  29.6126767  81.7934953 102.3122408  30.4335648  81.3015223
 103.2523853  29.4880842  82.0185095  98.7876987  27.1270896  82.6358462
  99.3205324  26.3659184  82.4057770  98.2591068  26.8344548  83.3782616
 101.9546682  12.2330962  78.1652104 101.6110951  13.1232604  78.0891214
 102.3225645  12.0432620  77.3021689  90.0232533  24.5564493  70.9840706
  90.8607755  24.9661501  70.7674413  90.2010800  23.6163935  70.9540900
 101.9196965  22.2239573  66.6724539 101.4043588  22.9944178  66.9112926
 101.6474273  21.5504709  67.2957600  99.5044076  17.0689274  71.7309777
  98.6485672  16.6796124  71.5515416  99.9171028  17.1481235  70.8709563
 101.0343222  14.6035617  76.1301337 100.5308018  14.5665752  75.3169142
 101.3273829  15.5128360  76.1897994  97.2786108  14.6874347  75.1367519
  98.1439105  14.4917156  74.7773408  97.3463617  14.4584699  76.0636875
 106.8931239  24.9771928  68.6077712 106.1160682  24.6383087  68.1632874
 107.5722720  24.9824551  67.9332677 101.7083268  20.0966665  68.4984320
 101.4033404  20.4112815  69.3494463 102.6613710  20.1748085  68.5411653
 100.1529700  26.2556889  70.1477274  99.6251061  25.5209648  69.8350511
  99.6517203  27.0331565  69.9017242 105.1322546  24.4505909  75.2644320
 104.4746220  25.1405171  75.3524449 105.9362945  24.8402341  75.6078307
  94.8848427  16.9176555  72.5083885  95.4592179  16.6951736  71.7757078
  95.4719410  16.9865249  73.2612487 103.9428005  22.8050282  73.3148262
 104.4559886  23.4380274  73.8169972 104.5929228  22.2051477  72.9491622
  95.2118014  18.9481016  66.5279771  94.3755327  19.2855703  66.8489045
  95.0722784  18.8129996  65.5906908  97.1871095  13.7917804  71.2358955
  96.5335507  13.4766821  70.6115570  97.1451569  13.1693544  71.9618778
  98.2982300  24.0737099  63.1512247  97.3909362  23.8426352  63.3503396
  98.7953332  23.2774718  63.3386228 101.2050379  32.7834606  66.0708933
 100.5312078  33.0866303  66.6793891 101.5916201  33.5863686  65.7214390
 100.4208835  20.2799737  75.5606602  99.5031397  20.5014684  75.4028291
 100.8368979  20.3546048  74.7018310 101.2043883  21.6791153  70.6909283
 101.9515702  22.1912550  70.3816405 101.4735473  21.3575206  71.5513676
  99.4770533  24.1749694  67.6736237  98.5681753  23.8908727  67.7708707
  99.5065617  24.5948772  66.8139544 104.7089801  27.7856283  71.4427405
 104.2552128  26.9447193  71.4992595 104.0783768  28.4217682  71.7802185
 103.6522720  18.7148269  72.6728072 102.9145477  18.2025656  73.0038315
 103.9049494  18.2748651  71.8611349 103.1522740  29.6232780  72.3777223
 103.4445714  30.1837837  71.6589588 103.6621361  29.9161341  73.1330382
  90.0458704  21.8955208  71.6551439  89.8483104  21.3024569  70.9302506
  89.4905368  21.5907418  72.3727378  98.0255427  21.7878314  73.7746032
  98.0804037  20.8352151  73.6988509  97.2146629  21.9437753  74.2587331
  99.1746621  25.7158437  65.0124316  98.7366051  24.9994296  64.5529953
  99.9157062  25.9434552  64.4509407  95.9647787  20.4055374  71.5336411
  95.1515653  20.7049545  71.9401603  96.4606782  20.0111063  72.2510893
  98.1156365  30.4013131  73.4670676  98.0732544  30.6273977  72.5379208
  99.0319064  30.1676506  73.6156477 101.5621999  20.8697199  80.3651305
 101.9171387  21.0968672  81.2245771 102.2094130  21.2015575  79.7428560
 107.2919736  23.9915634  71.0700634 107.1537635  24.1817230  70.1421823
 106.9355955  24.7535017  71.5268685  95.4561862  17.9773730  77.1497646
  96.0961241  17.8362489  76.4520609  94.6239393  17.6908243  76.7736248
 107.3189116  26.0592162  76.0811906 107.7525622  25.9667451  76.9294960
 108.0320696  26.0349662  75.4431922  96.2322166  27.2776160  73.2632639
  97.0262765  26.7826480  73.0615214  95.5213858  26.7494023  72.9000344
 101.0517010  29.6594256  77.6145006 101.1054033  30.2285192  78.3822722
 100.1831792  29.8296141  77.2499043  92.5404929  21.4219242  69.3392391
  91.6102518  21.3603697  69.5562353  92.6362401  20.8995195  68.5429033
  92.4590479  17.9474055  71.9270633  92.7197296  18.8619388  71.8179793
  93.2807651  17.4798497  72.0767246  93.9315404  19.3611812  79.0969457
  94.6038457  19.1529174  78.4482106  93.1045190  19.1633898  78.6574690
 108.1804665  26.1015862  78.6144791 108.3740555  27.0061673  78.8604066
 108.0805283  25.6423281  79.4483376  99.8340976  15.9873753  81.1135118
  99.1868891  16.6863702  81.0199595 100.6041991  16.4209897  81.4811367
 103.2419774  26.2522605  84.1885672 103.0905280  26.0233157  83.2715755
 103.2324453  27.2093206  84.2017017 100.0105110  23.8254518  79.1731938
 100.9397170  23.9765677  79.0000905  99.5896140  23.9138538  78.3180585
  98.8093442  27.8505182  76.9430476  98.6704528  27.4823966  77.8156414
  98.0208038  28.3652821  76.7714434  99.4041594  32.9514279  68.2856012
  99.5793350  32.4802322  69.1001635  98.7174382  33.5780045  68.5137273
 100.3598657  27.2286785  74.3319314 100.0248490  27.1887555  75.2276963
  99.8602603  26.5631501  73.8589724  94.3342901  22.6354415  79.8571895
  94.1962699  21.9034654  80.4583434  95.2447825  22.5463315  79.5756082
 103.2957849  24.5742819  64.6056373 102.6787019  23.8489647  64.5089426
 102.8274337  25.3352179  64.2623447  96.9625202  22.3474374  79.3455574
  97.6724820  21.7067566  79.3042193  96.9194510  22.5987269  80.2681755
 104.9511980  29.2841727  82.2662154 104.8924527  28.6000948  81.5992737
 105.3531499  30.0260717  81.8142780  95.6754136  19.3339592  81.1651214
  95.1391493  18.8830330  81.8172810  95.0870844  19.4685501  80.4221678
  93.9702679  36.1003641  75.0595872  94.2099277  36.7322165  75.7374891
  93.1271876  35.7491681  75.3461232  95.0856395  18.7928243  63.7277677
  94.2085861  18.6717044  63.3639924  95.5614148  18.0014322  63.4756566
 104.9529388  27.2481311  80.4976133 104.0656167  26.9107233  80.6202532
 105.5227939  26.5164343  80.7344899  86.6058535  23.5805403  73.8219185
  87.2929575  23.2667133  73.2340200  86.4506664  24.4846768  73.5486436
  91.4093257  18.4695600  78.2504208  91.3251446  17.8621269  77.5154618
  90.5875963  18.9604618  78.2513705  98.4830541  31.9082764  77.4637376
  98.4100713  32.7137735  77.9756681  98.0407934  32.1074730  76.6385398
  98.2720321  31.1454534  70.9740198  97.4887843  31.6876214  71.0678422
  98.9713066  31.6628513  71.3734439 101.5816971  16.9549163  73.6174403
 102.0785670  16.2019126  73.2975474 100.8103952  16.9913480  73.0517613
 109.4346728  22.6589529  75.2592695 109.4236605  23.5414244  74.8886628
 108.5664108  22.3061080  75.0647232 100.9429225  31.8069598  79.6195535
 101.6557197  32.4417063  79.5471437 100.4519253  31.9033464  78.8035537
 102.6646752  25.7120850  71.1912827 101.7303030  25.8322313  71.0217531
 102.8423420  24.8093317  70.9272837  98.1651940  19.0966546  73.3446088
  97.7949727  18.5437587  74.0326994  98.6611032  18.4924680  72.7921088
 106.0519303  21.5538170  71.7262861 106.5179755  22.3866161  71.6523164
 106.5026803  21.0883151  72.4308119  95.9941138  29.5564041  80.4401106
  96.6950598  30.1900524  80.5930500  95.5236253  29.8978773  79.6796745
 104.1195534  27.8981991  68.7249013 104.3955378  27.7838586  69.6342887
 103.2500033  27.4999476  68.6861186 104.0235966  13.9218757  75.7653762
 103.1099045  14.1522984  75.9335969 104.4529067  14.0057201  76.6167795
 103.7942424  22.1108649  78.2653656 103.1413874  22.3584556  77.6106109
 104.1722804  21.2972787  77.9316134 100.7549598  32.1468342  72.3681827
 100.9371993  31.3289998  72.8309579 101.5782584  32.3636034  71.9306717
 101.0891764  31.0736527  69.6296875 101.6179530  30.5628982  69.0167037
 101.3519983  30.7579057  70.4942408  99.8429997  22.8528460  84.7519693
  99.1670634  22.7522589  85.4222069 100.6657631  22.6967673  85.2155691
  91.5908856  29.0900396  77.3732209  92.1762293  28.3444084  77.5060113
  91.3933695  29.4004353  78.2568872  94.4447511  32.1251644  72.3894651
  93.7757887  32.6097771  71.9058691  94.3060381  32.3720864  73.3038029
  86.1826511  21.6605996  76.0936652  86.2210610  21.1269587  76.8873770
  85.6766804  21.1341202  75.4747629  98.5852780  34.1595387  78.9877309
  99.1371088  34.3227009  79.7526395  98.9258974  34.7499825  78.3157334
  93.5617273  16.5070537  79.5899194  93.6258600  17.3685368  79.1776592
  93.4984394  15.8944539  78.8571553  93.0369546  18.5793670  83.2372228
  93.6641585  18.1970747  83.8509753  92.1797465  18.3607871  83.6027921
 103.4363654  28.9856645  84.8425964 103.9803558  29.5986603  84.3480919
 102.8550499  29.5436223  85.3592977  89.8135089  20.3870099  69.1690583
  90.1088530  19.4780777  69.1157637  88.9123124  20.3657838  68.8471585
 101.7221167  32.1077363  75.9740991 101.5972307  31.3067103  75.4651937
 102.3800258  32.6023556  75.4854961  93.3429336  18.4626095  75.1518132
  92.6215921  19.0762063  75.0125605  94.1322591  18.9983860  75.0734778
 103.7856076  29.9086383  77.6020542 102.8386411  29.7891734  77.5298868
 104.1338849  29.0208881  77.6846803  96.1455649  15.7980522  81.4258783
  96.6690051  16.0442818  82.1885093  95.9267982  16.6300557  81.0061921
  91.5422930  18.0684196  69.2929908  91.2135636  17.1881575  69.1105014
  91.8962301  18.0131865  70.1806297 100.7902509  29.7039099  73.8024894
 100.6427471  28.7755806  73.9832464 101.6156003  29.7259190  73.3181969
  94.6564753  18.3557166  69.6605386  94.9960826  18.8843087  68.9383994
  95.1036874  18.6937572  70.4363952 104.3936631  30.5267658  74.8889767
 105.3183178  30.3210519  74.7514218 104.2251934  30.2784059  75.7979108
  97.3508194  16.7394217  79.1108454  97.0105014  15.9402030  79.5129134
  96.6447200  17.0395928  78.5385287  98.0024666  13.8243529  77.5635777
  98.8250735  13.3504007  77.4414667  98.2462729  14.6034013  78.0634463
  96.6432900  16.8531788  67.8598679  97.3641263  17.2313040  67.3562396
  96.0198205  17.5720665  67.9633657 100.7864023  17.5576937  68.7957011
 101.0027638  18.4401575  68.4945839 100.3058090  17.1663150  68.0662653
  95.5263245  20.5162650  75.3727756  95.3807825  20.8302953  76.2652037
  95.0488448  21.1347550  74.8198654  97.3859628  17.5065198  75.4208645
  97.3721196  16.6106291  75.0840943  98.1032056  17.5135862  76.0546931
  99.2385758  17.9402538  77.4661773  98.9803536  18.8619609  77.4646103
  98.7070799  17.5432973  78.1562237 104.1831947  31.0453325  70.2451858
 104.3568825  30.4799748  69.4925710 104.6760838  31.8454220  70.0631348
  90.0008907  23.0567994  78.3115417  89.4562375  23.8327802  78.4435691
  90.8788257  23.4038799  78.1534538  96.7896524  16.3879578  70.6896215
  96.9112435  15.4596224  70.8887103  96.4998566  16.4018264  69.7774531
  99.6587714  14.0734489  73.8262935  99.6809411  14.1373822  72.8714915
 100.0755773  13.2338997  74.0203441 110.0371338  23.8089748  71.8642158
 110.4802484  23.0597073  71.4661281 109.1597849  23.7999885  71.4815890
 105.1707120  30.3620090  67.3448756 105.8658024  30.9826782  67.5636071
 105.5130270  29.5115441  67.6201134  90.7874929  22.1837891  81.2045574
  90.0456665  22.3320526  81.7910204  90.4667673  22.4446156  80.3412323
 107.0698543  27.8119795  68.8736087 107.5949867  28.1507068  68.1485407
 106.9820895  26.8766810  68.6899222  98.7318591  31.7253869  81.0025964
  99.0405718  31.4803016  81.8748663  99.5294073  31.9300507  80.5144834
  98.7539203  33.8791778  73.2331340  98.3144194  33.3868157  73.9264197
  99.5047320  33.3364746  72.9923415  91.2331542  30.0703319  73.2355968
  92.0589562  29.7707091  72.8554612  90.8825594  29.3010942  73.6845757
  96.2013076  29.4229788  75.3053642  95.5793085  28.7600493  75.0055870
  96.8717942  29.4490919  74.6227290  89.4340147  27.9889646  74.1944902
  88.5972056  27.5611820  74.0128903  89.4063793  28.1822089  75.1315693
  96.2737603  17.9011576  84.8986148  96.3225759  18.7773698  84.5163918
  96.8160117  17.3588969  84.3257791 106.7592449  28.4452699  84.1787285
 105.9687992  28.4276838  83.6391784 106.5225803  28.9840992  84.9336322
 106.8790324  25.2945165  81.4920014 106.9288329  25.1295173  82.4335536
 106.7704247  24.4272424  81.1017894  95.7626582  27.9733711  68.7812102
  95.9114703  28.6569175  68.1278775  96.5693026  27.9538801  69.2961558
 104.1694086  21.2776093  82.8079320 105.0703949  21.1382558  82.5163318
 104.2442061  21.4430548  83.7477498  98.5036892  18.6542948  81.6532507
  97.6340201  18.9476514  81.3815095  98.7396372  19.2383393  82.3739770
 108.3808521  27.7142107  81.7362035 108.0893329  28.0772087  82.5725496
 107.7680652  27.0009115  81.5575367 109.5804203  25.2794986  74.2564605
 110.4151094  25.7184791  74.4202166 109.7163332  24.8033640  73.4372851
 106.6295709  22.8374721  80.2042093 107.1049830  23.0302368  79.3960944
 105.7061274  22.8933907  79.9585477  93.5179215  23.9998888  69.7873171
  93.2725257  23.0961218  69.9853381  93.6875130  24.0016039  68.8452649
 101.2075925  14.8722565  79.1697927 101.7257869  15.6083592  78.8444416
 100.8531058  15.1786558  80.0044686  92.7874863  19.7327246  67.2859333
  92.0944108  19.8071601  66.6299369  92.5426615  18.9687590  67.8080850
  99.2621988  30.4681841  66.2523850  98.6895955  31.0872028  65.7994322
  99.8354782  31.0181203  66.7863772 105.3297378  19.7140481  78.4370399
 106.2814801  19.8138579  78.4582623 105.1600828  18.9218750  78.9468483
 103.3511757  16.7996065  78.6229800 102.7561689  17.0801077  77.9276288
 103.0661454  17.2889966  79.3946541 102.4819248  30.7518991  67.3832432
 103.4149921  30.6864553  67.5865308 102.3942461  31.5875258  66.9246965
 105.1107264  30.0684862  64.3436380 105.0320896  29.7344725  65.2372138
 105.9316931  30.5606630  64.3427852 107.8085456  22.9346601  77.5512698
 107.7761776  21.9962602  77.7372382 108.4186079  23.0130638  76.8178523
  99.6468787  21.8042654  63.5939902 100.5927891  21.6748862  63.6628320
  99.2683031  21.0657316  64.0709331 107.9579944  19.7257645  77.5970982
 107.4418993  18.9416101  77.4100910 108.8419893  19.3976361  77.7617501
 105.6190671  13.4698660  73.5566794 105.4215492  13.1613748  74.4410126
 106.2290377  14.1960299  73.6864724 113.6262006  23.9962608  76.6918735
 114.3565394  23.7347896  77.2526438 113.0168951  23.2591330  76.7320803
 111.7077303  22.1370470  77.2893186 110.9810466  22.0026435  76.6809678
 111.2924590  22.4447299  78.0949904  99.5307479  25.8560400  85.0540559
 100.4510489  26.0338999  85.2480606  99.4957062  24.9116446  84.9020259
  97.8311704  19.7292630  63.5294788  96.9243159  19.4325743  63.6057501
  98.1087685  19.4322449  62.6629074  88.7489644  21.0498994  73.9793834
  88.4292428  20.1964302  73.6868208  88.2023072  21.2647572  74.7351801
  92.5269552  23.7661435  77.6963341  92.7455561  24.6978543  77.7151374
  92.9395325  23.4069409  78.4818144  99.4473769  14.2729520  69.6839029
  98.6374498  13.9276605  70.0594275 100.1358186  13.9637064  70.2726640
 101.3764318  13.3507567  71.3063326 101.9295356  13.7703020  71.9653349
 101.6134404  12.4243315  71.3486282  97.3997417  19.3394641  87.0866089
  97.2994144  20.2888998  87.0178181  97.1818959  19.0112880  86.2142160
  96.6010488  16.5879566  63.6706767  97.4629652  16.9134464  63.9302584
  96.7860832  15.8011062  63.1579833  88.6177904  24.6701905  75.9486956
  87.9241375  24.2555858  75.4356910  89.3650895  24.7122442  75.3520374
 104.7543125  15.4608092  70.8141990 104.1741794  16.1192896  70.4320042
 104.4879057  14.6385437  70.4029407 103.2046691  14.8613150  73.0163310
 103.7046469  14.9729684  72.2077629 103.8482299  14.5574203  73.6564119
  97.2628687  22.7691779  85.9031151  96.7795769  23.5692140  86.1095040
  97.3489626  22.7799724  84.9498595  90.5314647  24.6020159  73.8252970
  90.5085335  24.7007846  72.8734854  90.8415283  25.4485310  74.1470137
  93.1902024  26.6596314  77.9399585  94.1445278  26.6280256  77.8729516
  92.9914548  26.1986938  78.7549811  93.7801407  25.2297430  80.5070383
  94.5994296  25.7241509  80.5305220  94.0538214  24.3129398  80.4787950
 103.5368003  17.6208182  69.8698338 102.6493858  17.9057833  69.6518533
 103.9521992  17.4601946  69.0225615 106.8882539  17.6454703  73.5852677
 107.6642929  18.1351156  73.8577294 106.1630673  18.0712758  74.0424547
 109.3255098  18.3582323  74.6426618 109.9199588  18.1178059  73.9319926
 109.3981681  17.6389453  75.2700154  91.5452253  32.2015934  74.9569783
  91.4106721  31.4416335  74.3907781  91.1284316  32.9256833  74.4898572
 102.6811216  27.3852857  63.9646358 103.3847066  27.5902860  64.5804014
 101.9573865  27.9529619  64.2295442 103.5109027  23.1362718  70.0848628
 103.4544228  23.5931270  69.2456261 104.0637369  22.3753403  69.9071471
 107.3213832  18.9252450  70.9098748 107.0650767  18.5249086  71.7406955
 106.6966700  19.6396244  70.7848887 111.6326170  21.6648524  73.4170039
 111.0725728  21.7341713  74.1901601 111.0269674  21.4889508  72.6969535
  94.7021379  33.0985251  75.1688225  94.5853763  34.0430683  75.0666916
  93.8813825  32.7958812  75.5574025 104.5897914  27.8235386  66.0144818
 105.4243518  27.3916585  65.8322293 104.4282257  27.6517400  66.9421713
 104.2443806  24.3267500  67.3801157 104.1892610  24.1611771  66.4389601
 103.6189861  25.0343533  67.5363347  89.0336321  19.5635564  81.2062580
  89.6795184  19.0534518  81.6949805  88.8253472  20.3004246  81.7806005
 101.5589713  26.6316412  86.7054720 102.4280873  26.8057064  86.3441355
 101.0796464  27.4510828  86.5830450  97.5539931  13.8275609  66.9586476
  97.5418601  14.7717449  67.1154747  98.4463353  13.6445754  66.6645937
  95.7275893  33.7513513  78.3844154  96.6303140  33.7837123  78.7010649
  95.5013263  32.8213963  78.3990490  97.4829495  32.5044499  75.0454232
  96.5325126  32.5046361  74.9318605  97.7861981  31.7577234  74.5290267
  93.3733812  16.7103181  85.3037594  94.2365273  16.3539986  85.5140918
  92.7999222  16.3717076  85.9912998 113.2182189  38.3405037  76.1099995
 113.8560599  38.2211785  75.4063335 113.1003032  39.2885881  76.1687947
 110.0271895  38.2932466  76.0461520 109.6890407  38.1773530  75.1582054
 110.8961663  37.8923631  76.0262526 105.8858711  40.1467942  72.0358410
 105.3223576  40.0557879  71.2674698 105.7711106  39.3267846  72.5160903
 110.5091678  39.4467317  82.0047725 110.4980319  39.0520116  81.1328229
 110.6712317  38.7133390  82.5981497 103.4323143  41.6419134  74.8742631
 104.2244435  41.3009958  74.4588930 103.6719793  41.7514109  75.7944784
 111.4658269  43.8138910  67.3472875 110.8146249  44.3992990  66.9606889
 112.2602632  44.3445105  67.4067913 105.3913897  40.9028047  67.7460010
 106.1644773  40.3557034  67.6072886 105.7439295  41.7672296  67.9574471
 107.2298939  42.2304429  80.9526909 106.9388805  43.1350060  80.8373575
 107.8655924  42.2720957  81.6670979 108.1555146  39.6081278  77.5428269
 108.7518718  39.3837300  76.8285232 108.2130118  38.8666023  78.1453717
 107.7280174  37.0620713  65.3778460 107.9805695  36.5402234  64.6161923
 106.7904734  36.8986858  65.4805143 112.7723457  36.0656491  73.1853203
 113.5586546  35.6475914  72.8343620 113.0362162  36.9702584  73.3534851
 112.9433535  41.5029342  67.8841860 112.3079368  41.5763968  68.5962764
 112.6130941  42.0922940  67.2060939 118.1731884  36.0031725  74.0886181
 118.9057056  35.4330941  74.3224011 117.4171240  35.6153325  74.5292687
 107.4476463  38.9648819  67.5802835 107.3312721  38.2893722  68.2483919
 107.5578723  38.4781193  66.7634988 109.7908004  38.4258966  71.2849524
 109.4266211  37.8989587  71.9962445 110.6475120  38.0357435  71.1116009
 115.6957305  29.7153299  78.5480790 115.3640630  30.5848710  78.3242005
 115.1002918  29.3989583  79.2274820 109.4313491  33.4548866  66.2810872
 109.5987893  34.3229102  66.6481343 109.2410660  33.6176147  65.3572162
 112.1888824  41.9165845  77.9476703 111.8889547  42.8190883  77.8392510
 111.8439884  41.6498028  78.7997856 105.6401306  38.3679641  73.9813407
 104.7151802  38.2355856  74.1891099 105.8885719  39.1473861  74.4783350
 115.5885968  34.4348385  75.6274140 114.6802845  34.3663793  75.3332901
 115.5373564  34.9120330  76.4555966 109.4102712  35.9106523  67.2657539
 109.2902337  36.3563574  68.1043019 108.7155300  36.2591841  66.7071077
 103.0010117  38.0112915  74.8157196 103.1302498  38.2647394  75.7296608
 102.3207568  38.6040623  74.4961851 107.1709604  48.6810165  70.9147670
 107.0933634  49.6317990  70.9936151 106.5671248  48.3356037  71.5722597
 109.6626834  35.8538030  83.5709037 108.8860168  36.4131951  83.5611902
 110.3017397  36.3394813  84.0923907 117.4547614  32.6364823  77.4052014
 116.8121995  32.9297356  76.7591809 116.9502543  32.5217744  78.2105211
 115.1087778  36.3827996  68.0937873 116.0205634  36.6155383  67.9185571
 114.5997425  36.9665041  67.5312952 107.9173206  38.6623484  83.1327004
 108.6587890  39.2008528  82.8561828 107.2110192  39.2889773  83.2898556
 113.3928546  40.8052624  81.7299166 113.8011902  40.3635035  80.9853798
 112.6705807  40.2305252  81.9833359 109.7459616  35.7425231  79.1032723
 110.5920811  36.1664645  79.2467372 109.6858253  35.0858855  79.7971286
 113.7157360  41.3653815  75.4851455 113.0866223  41.5299529  74.7827523
 113.3283022  41.7795424  76.2562419 117.5946592  42.3008253  72.8395818
 116.9097630  42.6807154  72.2892852 117.6790442  42.9103579  73.5727766
 112.8959061  33.4029599  80.7613896 112.6519993  34.1571660  80.2248172
 113.1718992  33.7814947  81.5961143 114.8497524  39.9468212  79.4391162
 115.0614419  40.5899972  78.7625543 114.8027272  39.1130528  78.9713092
 112.4523753  32.5586032  76.3427734 111.5908232  32.8567286  76.6344472
 112.4786188  32.7756431  75.4108767 109.2685322  41.1028223  72.7501540
 109.7323668  41.3815926  71.9606162 109.0042120  40.2011668  72.5674630
 106.1609403  40.6499704  75.6881303 106.7310760  41.0786973  75.0498788
 106.7517515  40.3682289  76.3865489 108.2054208  37.2251375  69.5591105
 108.9078252  37.6772419  70.0265031 107.8734837  36.5835194  70.1870998
 106.6534570  35.8163132  83.9342314 106.0233230  36.4979413  84.1677711
 106.5470658  35.7046214  82.9895453 101.9479542  35.4834928  74.8608238
 101.1578596  35.7392457  74.3848349 102.4390790  36.2983266  74.9660279
 115.9643352  42.8240167  77.6113519 116.7860796  42.4220354  77.3296201
 115.9605755  42.7208401  78.5629635 103.8994288  35.8479507  71.8191715
 103.1025451  35.9598201  72.3375211 103.6719880  36.1866159  70.9532606
 109.7299955  42.3724210  79.7674230 109.7944388  42.8344618  80.6032402
 109.0210879  41.7421575  79.8956540 100.2317245  35.7365418  77.2923229
 100.4825284  36.6212428  77.5580805 100.7676794  35.5570020  76.5198321
 109.4447973  44.0392318  69.6353210 109.3093648  44.8843854  70.0638058
 109.9857785  44.2411596  68.8719144 105.9315313  30.1183898  86.2967565
 105.5382258  29.5650096  86.9715210 106.7481453  30.4294476  86.6874083
 102.8977370  41.5567756  70.2081135 103.4101891  42.3511006  70.3586700
 103.5500083  40.8594046  70.1414737 104.7072255  44.6733512  72.2903888
 104.8838883  45.5951477  72.1024872 105.5029089  44.3591931  72.7198268
 108.8483274  31.5341777  83.8887822 109.5892987  32.1348930  83.8092284
 109.0801196  30.7919415  83.3305864 103.9924612  36.7198144  82.1666052
 103.8778127  35.8183401  82.4673151 103.1369129  36.9661841  81.8150868
 111.0716449  44.6615884  83.7653552 110.6280304  43.8752263  83.4474457
 111.7333663  44.8495035  83.0997443 105.8303571  46.1911686  78.2914231
 106.3810996  46.0628749  77.5191225 104.9915046  46.4906575  77.9409124
 113.1697687  44.9418684  81.7934953 113.1516163  45.7627565  81.3015223
 114.0917607  44.8172760  82.0185095 109.6270742  42.4562814  82.6358462
 110.1599078  41.6951102  82.4057770 109.0984823  42.1636466  83.3782616
 112.7940437  27.5622880  78.1652104 112.4504706  28.4524521  78.0891214
 113.1619399  27.3724537  77.3021689 100.8626287  39.8856410  70.9840706
 101.7001509  40.2953419  70.7674413 101.0404555  38.9455852  70.9540900
 112.7590719  37.5531491  66.6724539 112.2437343  38.3236096  66.9112926
 112.4868028  36.8796627  67.2957600 110.3437830  32.3981192  71.7309777
 109.4879427  32.0088042  71.5515416 110.7564782  32.4773153  70.8709563
 111.8736977  29.9327535  76.1301337 111.3701773  29.8957670  75.3169142
 112.1667584  30.8420278  76.1897994 108.1179863  30.0166265  75.1367519
 108.9832860  29.8209073  74.7773408 108.1857372  29.7876616  76.0636875
 117.7324993  40.3063846  68.6077712 116.9554436  39.9675005  68.1632874
 118.4116474  40.3116469  67.9332677 112.5477022  35.4258583  68.4984320
 112.2427158  35.7404732  69.3494463 113.5007465  35.5040003  68.5411653
 110.9923454  41.5848806  70.1477274 110.4644816  40.8501566  69.8350511
 110.4910957  42.3623483  69.9017242 115.9716300  39.7797827  75.2644320
 115.3139975  40.4697088  75.3524449 116.7756700  40.1694259  75.6078307
 105.7242182  32.2468473  72.5083885 106.2985934  32.0243654  71.7757078
 106.3113164  32.3157167  73.2612487 114.7821759  38.1342200  73.3148262
 115.2953641  38.7672191  73.8169972 115.4322983  37.5343395  72.9491622
 106.0511769  34.2772934  66.5279771 105.2149081  34.6147620  66.8489045
 105.9116539  34.1421913  65.5906908 108.0264850  29.1209722  71.2358955
 107.3729262  28.8058739  70.6115570 107.9845324  28.4985462  71.9618778
 109.1376054  39.4029017  63.1512247 108.2303116  39.1718270  63.3503396
 109.6347086  38.6066636  63.3386228 112.0444133  48.1126524  66.0708933
 111.3705832  48.4158221  66.6793891 112.4309955  48.9155604  65.7214390
 111.2602590  35.6091655  75.5606602 110.3425151  35.8306602  75.4028291
 111.6762734  35.6837966  74.7018310 112.0437638  37.0083071  70.6909283
 112.7909457  37.5204468  70.3816405 112.3129227  36.6867123  71.5513676
 110.3164288  39.5041611  67.6736237 109.4075507  39.2200644  67.7708707
 110.3459372  39.9240690  66.8139544 115.5483555  43.1148201  71.4427405
 115.0945882  42.2739111  71.4992595 114.9177522  43.7509599  71.7802185
 114.4916475  34.0440187  72.6728072 113.7539232  33.5317573  73.0038315
 114.7443248  33.6040569  71.8611349 113.9916495  44.9524698  72.3777223
 114.2839469  45.5129755  71.6589588 114.5015115  45.2453259  73.1330382
 114.5928102  26.8216439  73.2669841 114.8986979  25.9613802  72.9795756
 115.3180707  27.4134059  73.0668835 100.8852458  37.2247126  71.6551439
 100.6876858  36.6316486  70.9302506 100.3299122  36.9199336  72.3727378
 108.8649182  37.1170232  73.7746032 108.9197792  36.1644068  73.6988509
 108.0540384  37.2729671  74.2587331 110.0140376  41.0450355  65.0124316
 109.5759806  40.3286214  64.5529953 110.7550817  41.2726470  64.4509407
 106.8041542  35.7347292  71.5336411 105.9909407  36.0341462  71.9401603
 107.3000536  35.3402981  72.2510893 108.9550120  45.7305049  73.4670676
 108.9126299  45.9565895  72.5379208 109.8712819  45.4968423  73.6156477
 112.4015754  36.1989116  80.3651305 112.7565141  36.4260589  81.2245771
 113.0487885  36.5307493  79.7428560 118.1313490  39.3207552  71.0700634
 117.9931389  39.5109148  70.1421823 117.7749709  40.0826935  71.5268685
 106.2955617  33.3065647  77.1497646 106.9354996  33.1654406  76.4520609
 105.4633147  33.0200161  76.7736248 118.1582870  41.3884079  76.0811906
 118.5919377  41.2959368  76.9294960 118.8714451  41.3641580  75.4431922
 107.0715921  42.6068078  73.2632639 107.8656519  42.1118398  73.0615214
 106.3607613  42.0785941  72.9000344 111.8910765  44.9886173  77.6145006
 111.9447787  45.5577110  78.3822722 111.0225546  45.1588058  77.2499043
 103.3798684  36.7511159  69.3392391 102.4496272  36.6895615  69.5562353
 103.4756156  36.2287112  68.5429033 103.2984233  33.2765972  71.9270633
 103.5591050  34.1911306  71.8179793 104.1201405  32.8090415  72.0767246
 104.7709158  34.6903729  79.0969457 105.4432212  34.4821092  78.4482106
 103.9438945  34.4925815  78.6574690 119.0198420  41.4307780  78.6144791
 119.2134310  42.3353590  78.8604066 118.9199038  40.9715199  79.4483376
 110.6734730  31.3165670  81.1135118 110.0262645  32.0155620  81.0199595
 111.4435746  31.7501814  81.4811367 114.0813528  41.5814523  84.1885672
 113.9299035  41.3525074  83.2715755 114.0718208  42.5385124  84.2017017
 110.8498865  39.1546435  79.1731938 111.7790925  39.3057595  79.0000905
 110.4289895  39.2430456  78.3180585 109.6487197  43.1797100  76.9430476
 109.5098282  42.8115884  77.8156414 108.8601793  43.6944739  76.7714434
 110.2435348  48.2806196  68.2856012 110.4187104  47.8094239  69.1001635
 109.5568137  48.9071962  68.5137273 111.1992412  42.5578702  74.3319314
 110.8642244  42.5179472  75.2276963 110.6996357  41.8923418  73.8589724
 105.1736656  37.9646332  79.8571895 105.0356454  37.2326571  80.4583434
 106.0841579  37.8755233  79.5756082 114.1351603  39.9034737  64.6056373
 113.5180774  39.1781565  64.5089426 113.6668092  40.6644097  64.2623447
 107.8018956  37.6766292  79.3455574 108.5118575  37.0359484  79.3042193
 107.7588264  37.9279187  80.2681755 115.7905735  44.6133645  82.2662154
 115.7318281  43.9292865  81.5992737 116.1925253  45.3552635  81.8142780
 106.5147890  34.6631510  81.1651214 105.9785247  34.2122248  81.8172810
 105.9264599  34.7977419  80.4221678 104.8096434  51.4295559  75.0595872
 105.0493032  52.0614083  75.7374891 103.9665630  51.0783599  75.3461232
 105.9250149  34.1220161  63.7277677 105.0479616  34.0008962  63.3639924
 106.4007902  33.3306239  63.4756566 115.7923142  42.5773229  80.4976133
 114.9049921  42.2399151  80.6202532 116.3621693  41.8456260  80.7344899
  97.4452289  38.9097321  73.8219185  98.1323329  38.5959051  73.2340200
  97.2900418  39.8138685  73.5486436 102.2487011  33.7987517  78.2504208
 102.1645200  33.1913187  77.5154618 101.4269718  34.2896536  78.2513705
 109.3224296  47.2374681  77.4637376 109.2494467  48.0429653  77.9756681
 108.8801689  47.4366647  76.6385398 109.1114075  46.4746451  70.9740198
 108.3281597  47.0168132  71.0678422 109.8106820  46.9920431  71.3734439
 112.4210725  32.2841081  73.6174403 112.9179425  31.5311043  73.2975474
 111.6497707  32.3205398  73.0517613 120.2740483  37.9881446  75.2592695
 120.2630359  38.8706162  74.8886628 119.4057862  37.6352997  75.0647232
 111.7822979  47.1361515  79.6195535 112.4950951  47.7708980  79.5471437
 111.2913008  47.2325381  78.8035537 113.5040506  41.0412768  71.1912827
 112.5696785  41.1614231  71.0217531 113.6817175  40.1385235  70.9272837
 109.0045694  34.4258464  73.3446088 108.6343482  33.8729504  74.0326994
 109.5004787  33.8216597  72.7921088 116.8913057  36.8830087  71.7262861
 117.3573510  37.7158079  71.6523164 117.3420558  36.4175069  72.4308119
 106.8334893  44.8855959  80.4401106 107.5344352  45.5192442  80.5930500
 106.3630008  45.2270690  79.6796745 114.9589289  43.2273909  68.7249013
 115.2349132  43.1130503  69.6342887 114.0893787  42.8291394  68.6861186
 114.8629720  29.2510674  75.7653762 113.9492800  29.4814901  75.9335969
 115.2922822  29.3349118  76.6167795 114.6336179  37.4400566  78.2653656
 113.9807629  37.6876474  77.6106109 115.0116559  36.6264705  77.9316134
 111.5943353  47.4760260  72.3681827 111.7765747  46.6581915  72.8309579
 112.4176339  47.6927952  71.9306717 111.9285518  46.4028445  69.6296875
 112.4573284  45.8920899  69.0167037 112.1913738  46.0870975  70.4942408
 110.6823752  38.1820377  84.7519693 110.0064389  38.0814507  85.4222069
 111.5051386  38.0259591  85.2155691 102.4302611  44.4192314  77.3732209
 103.0156048  43.6736002  77.5060113 102.2327449  44.7296271  78.2568872
 105.2841266  47.4543561  72.3894651 104.6151641  47.9389689  71.9058691
 105.1454136  47.7012782  73.3038029  97.0220265  36.9897914  76.0936652
  97.0604365  36.4561505  76.8873770  96.5160558  36.4633120  75.4747629
 109.4246535  49.4887305  78.9877309 109.9764843  49.6518926  79.7526395
 109.7652728  50.0791743  78.3157334 104.4011028  31.8362455  79.5899194
 104.4652354  32.6977286  79.1776592 104.3378148  31.2236456  78.8571553
 103.8763300  33.9085587  83.2372228 104.5035339  33.5262665  83.8509753
 103.0191219  33.6899789  83.6027921 114.2757409  44.3148562  84.8425964
 114.8197313  44.9278521  84.3480919 113.6944254  44.8728141  85.3592977
 100.6528843  35.7162016  69.1690583 100.9482284  34.8072695  69.1157637
  99.7516879  35.6949756  68.8471585 112.5614922  47.4369280  75.9740991
 112.4366061  46.6359020  75.4651937 113.2194013  47.9315474  75.4854961
 104.1823090  33.7918013  75.1518132 103.4609676  34.4053981  75.0125605
 104.9716346  34.3275778  75.0734778 114.6249830  45.2378300  77.6020542
 113.6780166  45.1183652  77.5298868 114.9732603  44.3500799  77.6846803
 106.9849404  31.1272439  81.4258783 107.5083805  31.3734736  82.1885093
 106.7661737  31.9592474  81.0061921 102.3816685  33.3976114  69.2929908
 102.0529391  32.5173493  69.1105014 102.7356055  33.3423783  70.1806297
 111.6296264  45.0331017  73.8024894 111.4821226  44.1047724  73.9832464
 112.4549757  45.0551107  73.3181969 105.4958508  33.6849084  69.6605386
 105.8354580  34.2135005  68.9383994 105.9430628  34.0229490  70.4363952
 115.2330385  45.8559575  74.8889767 116.1576933  45.6502437  74.7514218
 115.0645689  45.6075977  75.7979108 108.1901949  32.0686135  79.1108454
 107.8498769  31.2693948  79.5129134 107.4840955  32.3687845  78.5385287
 108.8418420  29.1535447  77.5635777 109.6644490  28.6795925  77.4414667
 109.0856484  29.9325931  78.0634463 107.4826655  32.1823705  67.8598679
 108.2035017  32.5604958  67.3562396 106.8591959  32.9012582  67.9633657
 111.6257778  32.8868854  68.7957011 111.8421392  33.7693492  68.4945839
 111.1451845  32.4955068  68.0662653 106.3656999  35.8454568  75.3727756
 106.2201580  36.1594871  76.2652037 105.8882203  36.4639468  74.8198654
 108.2253382  32.8357116  75.4208645 108.2114951  31.9398209  75.0840943
 108.9425810  32.8427779  76.0546931 110.0779513  33.2694456  77.4661773
 109.8197291  34.1911526  77.4646103 109.5464553  32.8724890  78.1562237
 115.0225702  46.3745243  70.2451858 115.1962579  45.8091665  69.4925710
 115.5154593  47.1746138  70.0631348 100.8402661  38.3859912  78.3115417
 100.2956129  39.1619720  78.4435691 101.7182011  38.7330716  78.1534538
 107.6290278  31.7171496  70.6896215 107.7506189  30.7888142  70.8887103
 107.3392320  31.7310182  69.7774531 110.4981468  29.4026406  73.8262935
 110.5203165  29.4665739  72.8714915 110.9149527  28.5630915  74.0203441
 120.8765093  39.1381666  71.8642158 121.3196239  38.3888991  71.4661281
 119.9991603  39.1291802  71.4815890 116.0100874  45.6912007  67.3448756
 116.7051779  46.3118700  67.5636071 116.3524024  44.8407359  67.6201134
 101.6268683  37.5129808  81.2045574 100.8850419  37.6612444  81.7910204
 101.3061428  37.7738074  80.3412323 117.9092297  43.1411713  68.8736087
 118.4343621  43.4798986  68.1485407 117.8214650  42.2058728  68.6899222
 109.5712346  47.0545786  81.0025964 109.8799472  46.8094933  81.8748663
 110.3687828  47.2592425  80.5144834 109.5932958  49.2083696  73.2331340
 109.1537948  48.7160075  73.9264197 110.3441075  48.6656664  72.9923415
 102.0725297  45.3995237  73.2355968 102.8983317  45.0999009  72.8554612
 101.7219349  44.6302859  73.6845757 107.0406830  44.7521705  75.3053642
 106.4186839  44.0892410  75.0055870 107.7111697  44.7782837  74.6227290
 100.2733902  43.3181563  74.1944902  99.4365810  42.8903738  74.0128903
 100.2457547  43.5114007  75.1315693 107.1131358  33.2303493  84.8986148
 107.1619513  34.1065616  84.5163918 107.6553872  32.6880886  84.3257791
 117.5986203  43.7744616  84.1787285 116.8081747  43.7568755  83.6391784
 117.3619558  44.3132910  84.9336322 117.7184078  40.6237083  81.4920014
 117.7682083  40.4587090  82.4335536 117.6098002  39.7564342  81.1017894
 106.6020337  43.3025629  68.7812102 106.7508457  43.9861093  68.1278775
 107.4086780  43.2830719  69.2961558 115.0087841  36.6068011  82.8079320
 115.9097703  36.4674476  82.5163318 115.0835815  36.7722466  83.7477498
 109.3430646  33.9834866  81.6532507 108.4733955  34.2768432  81.3815095
 109.5790126  34.5675311  82.3739770 119.2202275  43.0434024  81.7362035
 118.9287083  43.4064005  82.5725496 118.6074406  42.3301033  81.5575367
 120.4197957  40.6086904  74.2564605 121.2544849  41.0476708  74.4202166
 120.5557086  40.1325557  73.4372851 117.4689463  38.1666639  80.2042093
 117.9443585  38.3594285  79.3960944 116.5455029  38.2225825  79.9585477
 104.3572970  39.3290806  69.7873171 104.1119012  38.4253136  69.9853381
 104.5268885  39.3307957  68.8452649 112.0469680  30.2014483  79.1697927
 112.5651624  30.9375509  78.8444416 111.6924813  30.5078476  80.0044686
 103.6268617  35.0619164  67.2859333 102.9337862  35.1363519  66.6299369
 103.3820369  34.2979507  67.8080850 112.2982274  26.6214765  74.6898824
 112.5784028  25.9537954  75.3159250 113.0832881  26.8143861  74.1773487
 110.1015743  45.7973759  66.2523850 109.5289710  46.4163946  65.7994322
 110.6748536  46.3473121  66.7863772 116.1691132  35.0432399  78.4370399
 117.1208555  35.1430497  78.4582623 115.9994583  34.2510668  78.9468483
 114.1905512  32.1287982  78.6229800 113.5955444  32.4092995  77.9276288
 113.9055209  32.6181883  79.3946541 113.3213002  46.0810909  67.3832432
 114.2543675  46.0156471  67.5865308 113.2336215  46.9167176  66.9246965
 115.9501019  45.3976779  64.3436380 115.8714650  45.0636643  65.2372138
 116.7710686  45.8898547  64.3427852 118.6479210  38.2638519  77.5512698
 118.6155530  37.3254519  77.7372382 119.2579834  38.3422555  76.8178523
 110.4862541  37.1334572  63.5939902 111.4321646  37.0040780  63.6628320
 110.1076786  36.3949234  64.0709331 118.7973699  35.0549562  77.5970982
 118.2812747  34.2708019  77.4100910 119.6813647  34.7268279  77.7617501
 116.4584426  28.7990578  73.5566794 116.2609247  28.4905666  74.4410126
 117.0684131  29.5252217  73.6864724 110.3701234  41.1852318  85.0540559
 111.2904243  41.3630917  85.2480606 110.3350817  40.2408363  84.9020259
 108.6705458  35.0584548  63.5294788 107.7636914  34.7617661  63.6057501
 108.9481439  34.7614366  62.6629074  99.5883399  36.3790912  73.9793834
  99.2686183  35.5256220  73.6868208  99.0416827  36.5939490  74.7351801
 103.3663306  39.0953353  77.6963341 103.5849316  40.0270460  77.7151374
 103.7789080  38.7361327  78.4818144 110.2867524  29.6021438  69.6839029
 109.4768252  29.2568523  70.0594275 110.9751941  29.2928982  70.2726640
 112.2158072  28.6799485  71.3063326 112.7689111  29.0994938  71.9653349
 112.4528159  27.7535233  71.3486282 108.2391171  34.6686558  87.0866089
 108.1387898  35.6180915  87.0178181 108.0212713  34.3404797  86.2142160
 107.4404243  31.9171483  63.6706767 108.3023407  32.2426382  63.9302584
 107.6254587  31.1302979  63.1579833  99.4571659  39.9993823  75.9486956
  98.7635130  39.5847776  75.4356910 100.2044650  40.0414360  75.3520374
 115.5936879  30.7900010  70.8141990 115.0135548  31.4484814  70.4320042
 115.3272812  29.9677354  70.4029407 114.0440446  30.1905068  73.0163310
 114.5440224  30.3021602  72.2077629 114.6876054  29.8866120  73.6564119
 108.1022441  38.0983697  85.9031151 107.6189523  38.8984057  86.1095040
 108.1883380  38.1091642  84.9498595 101.3708401  39.9312077  73.8252970
 101.3479089  40.0299764  72.8734854 101.6809038  40.7777228  74.1470137
 104.0295779  41.9888232  77.9399585 104.9839032  41.9572174  77.8729516
 103.8308303  41.5278856  78.7549811 104.6195161  40.5589348  80.5070383
 105.4388050  41.0533427  80.5305220 104.8931969  39.6421316  80.4787950
 114.3761757  32.9500100  69.8698338 113.4887612  33.2349751  69.6518533
 114.7915746  32.7893864  69.0225615 117.7276293  32.9746621  73.5852677
 118.5036684  33.4643074  73.8577294 117.0024428  33.4004675  74.0424547
 120.1648852  33.6874240  74.6426618 120.7593343  33.4469976  73.9319926
 120.2375436  32.9681371  75.2700154 102.3846008  47.5307851  74.9569783
 102.2500476  46.7708252  74.3907781 101.9678070  48.2548751  74.4898572
 113.5204971  42.7144775  63.9646358 114.2240821  42.9194777  64.5804014
 112.7967620  43.2821537  64.2295442 114.3502781  38.4654636  70.0848628
 114.2937982  38.9223188  69.2456261 114.9031123  37.7045321  69.9071471
 118.1607587  34.2544368  70.9098748 117.9044521  33.8541004  71.7406955
 117.5360455  34.9688162  70.7848887 122.4719925  36.9940441  73.4170039
 121.9119483  37.0633631  74.1901601 121.8663428  36.8181426  72.6969535
 105.5415134  48.4277168  75.1688225 105.4247518  49.3722601  75.0666916
 104.7207580  48.1250730  75.5574025 115.4291668  43.1527304  66.0144818
 116.2637272  42.7208503  65.8322293 115.2676011  42.9809318  66.9421713
 115.0837560  39.6559417  67.3801157 115.0286364  39.4903689  66.4389601
 114.4583616  40.3635450  67.5363347  99.8730075  34.8927482  81.2062580
 100.5188939  34.3826436  81.6949805  99.6647226  35.6296163  81.7806005
 112.3983468  41.9608329  86.7054720 113.2674627  42.1348982  86.3441355
 111.9190219  42.7802746  86.5830450 108.3933686  29.1567526  66.9586476
 108.3812356  30.1009366  67.1154747 109.2857108  28.9737672  66.6645937
 106.5669648  49.0805430  78.3844154 107.4696894  49.1129040  78.7010649
 106.3407018  48.1505881  78.3990490 108.3223250  47.8336417  75.0454232
 107.3718881  47.8338278  74.9318605 108.6255736  47.0869151  74.5290267
 112.2085805  25.7510303  71.2132413 111.4418201  25.1968790  71.3589095
 112.6196510  25.8232172  72.0746564 104.2127566  32.0395099  85.3037594
 105.0759028  31.6831904  85.5140918 103.6392977  31.7008994  85.9912998
 120.8665650  53.6224383  76.0461520 120.5284161  53.5065448  75.1582054
 121.7355418  53.2215548  76.0262526 116.7252465  55.4759860  72.0358410
 116.1617330  55.3849797  71.2674698 116.6104860  54.6559764  72.5160903
 121.3485433  54.7759235  82.0047725 121.3374073  54.3812033  81.1328229
 121.5106072  54.0425308  82.5981497 114.2716897  56.9711051  74.8742631
 115.0638189  56.6301876  74.4588930 114.5113547  57.0806026  75.7944784
 116.2307651  56.2319965  67.7460010 117.0038527  55.6848952  67.6072886
 116.5833050  57.0964214  67.9574471 118.0692694  57.5596347  80.9526909
 117.7782560  58.4641978  80.8373575 118.7049678  57.6012874  81.6670979
 118.9948901  54.9373195  77.5428269 119.5912473  54.7129218  76.8285232
 119.0523872  54.1957941  78.1453717 118.5673929  52.3912631  65.3778460
 118.8199450  51.8694152  64.6161923 117.6298488  52.2278776  65.4805143
 118.2870218  54.2940737  67.5802835 118.1706476  53.6185640  68.2483919
 118.3972478  53.8073111  66.7634988 120.6301759  53.7550884  71.2849524
 120.2659966  53.2281505  71.9962445 121.4868874  53.3649353  71.1116009
 120.2707246  48.7840783  66.2810872 120.4381648  49.6521020  66.6481343
 120.0804415  48.9468065  65.3572162 116.4795060  53.6971559  73.9813407
 115.5545557  53.5647773  74.1891099 116.7279473  54.4765778  74.4783350
 120.2496466  51.2398441  67.2657539 120.1296092  51.6855492  68.1043019
 119.5549055  51.5883759  66.7071077 113.8403871  53.3404833  74.8157196
 113.9696252  53.5939312  75.7296608 113.1601323  53.9332541  74.4961851
 118.0103359  64.0102083  70.9147670 117.9327388  64.9609908  70.9936151
 117.4065002  63.6647955  71.5722597 120.5020588  51.1829948  83.5709037
 119.7253922  51.7423868  83.5611902 121.1411151  51.6686731  84.0923907
 118.7566961  53.9915401  83.1327004 119.4981645  54.5300445  82.8561828
 118.0503946  54.6181690  83.2898556 120.5853370  51.0717149  79.1032723
 121.4314566  51.4956562  79.2467372 120.5252008  50.4150773  79.7971286
 120.1079077  56.4320141  72.7501540 120.5717422  56.7107844  71.9606162
 119.8435875  55.5303585  72.5674630 117.0003158  55.9791622  75.6881303
 117.5704515  56.4078891  75.0498788 117.5911270  55.6974207  76.3865489
 119.0447963  52.5543293  69.5591105 119.7472006  53.0064337  70.0265031
 118.7128591  51.9127112  70.1870998 117.4928324  51.1455050  83.9342314
 116.8626985  51.8271330  84.1677711 117.3864412  51.0338131  82.9895453
 112.7873297  50.8126846  74.8608238 111.9972351  51.0684374  74.3848349
 113.2784544  51.6275184  74.9660279 114.7388042  51.1771425  71.8191715
 113.9419205  51.2890119  72.3375211 114.5113634  51.5158077  70.9532606
 120.5693710  57.7016128  79.7674230 120.6338142  58.1636535  80.6032402
 119.8604634  57.0713493  79.8956540 111.0711000  51.0657336  77.2923229
 111.3219038  51.9504346  77.5580805 111.6070548  50.8861938  76.5198321
 120.2841727  59.3684236  69.6353210 120.1487402  60.2135771  70.0638058
 120.8251540  59.5703513  68.8719144 116.7709067  45.4475815  86.2967565
 116.3776013  44.8942014  86.9715210 117.5875207  45.7586394  86.6874083
 113.7371125  56.8859674  70.2081135 114.2495645  57.6802924  70.3586700
 114.3893838  56.1885964  70.1414737 115.5466010  60.0025430  72.2903888
 115.7232638  60.9243395  72.1024872 116.3422843  59.6883849  72.7198268
 119.6877028  46.8633695  83.8887822 120.4286741  47.4640848  83.8092284
 119.9194951  46.1211332  83.3305864 114.8318366  52.0490062  82.1666052
 114.7171881  51.1475319  82.4673151 113.9762884  52.2953759  81.8150868
 116.6697325  61.5203604  78.2914231 117.2204750  61.3920667  77.5191225
 115.8308801  61.8198493  77.9409124 120.4664496  57.7854732  82.6358462
 120.9992833  57.0243020  82.4057770 119.9378577  57.4928383  83.3782616
 111.7020042  55.2148328  70.9840706 112.5395264  55.6245336  70.7674413
 111.8798309  54.2747770  70.9540900 121.1831585  47.7273109  71.7309777
 120.3273181  47.3379960  71.5515416 121.5958537  47.8065070  70.8709563
 118.9573617  45.3458182  75.1367519 119.8226614  45.1500991  74.7773408
 119.0251126  45.1168534  76.0636875 121.8317209  56.9140724  70.1477274
 121.3038570  56.1793484  69.8350511 121.3304711  57.6915400  69.9017242
 116.5635936  47.5760390  72.5083885 117.1379688  47.3535572  71.7757078
 117.1506919  47.6449085  73.2612487 116.8905523  49.6064851  66.5279771
 116.0542836  49.9439538  66.8489045 116.7510293  49.4713831  65.5906908
 118.8658604  44.4501639  71.2358955 118.2123016  44.1350656  70.6115570
 118.8239078  43.8277380  71.9618778 119.9769809  54.7320934  63.1512247
 119.0696871  54.5010188  63.3503396 120.4740841  53.9358554  63.3386228
 121.1558042  54.8333529  67.6736237 120.2469262  54.5492562  67.7708707
 121.1853126  55.2532608  66.8139544 111.7246213  52.5539043  71.6551439
 111.5270613  51.9608404  70.9302506 111.1692877  52.2491253  72.3727378
 119.7042936  52.4462150  73.7746032 119.7591546  51.4935986  73.6988509
 118.8934138  52.6021589  74.2587331 120.8534130  56.3742273  65.0124316
 120.4153560  55.6578132  64.5529953 121.5944571  56.6018388  64.4509407
 117.6435296  51.0639209  71.5336411 116.8303162  51.3633380  71.9401603
 118.1394291  50.6694898  72.2510893 119.7943874  61.0596966  73.4670676
 119.7520053  61.2857813  72.5379208 120.7106573  60.8260341  73.6156477
 117.1349371  48.6357565  77.1497646 117.7748750  48.4946324  76.4520609
 116.3026902  48.3492078  76.7736248 117.9109675  57.9359995  73.2632639
 118.7050273  57.4410316  73.0615214 117.2001367  57.4077859  72.9000344
 114.2192438  52.0803077  69.3392391 113.2890027  52.0187533  69.5562353
 114.3149910  51.5579030  68.5429033 114.1377988  48.6057890  71.9270633
 114.3984805  49.5203223  71.8179793 114.9595160  48.1382333  72.0767246
 115.6102913  50.0195647  79.0969457 116.2825966  49.8113009  78.4482106
 114.7832699  49.8217733  78.6574690 121.5128485  46.6457588  81.1135118
 120.8656400  47.3447538  81.0199595 122.2829500  47.0793732  81.4811367
 120.4880951  58.5089017  76.9430476 120.3492037  58.1407802  77.8156414
 119.6995547  59.0236657  76.7714434 121.0829103  63.6098114  68.2856012
 121.2580859  63.1386157  69.1001635 120.3961891  64.2363880  68.5137273
 122.0386166  57.8870620  74.3319314 121.7035999  57.8471390  75.2276963
 121.5390112  57.2215336  73.8589724 116.0130410  53.2938250  79.8571895
 115.8750208  52.5618489  80.4583434 116.9235334  53.2047150  79.5756082
 118.6412711  53.0058209  79.3455574 119.3512329  52.3651402  79.3042193
 118.5982019  53.2571104  80.2681755 117.3541645  49.9923427  81.1651214
 116.8179002  49.5414166  81.8172810 116.7658353  50.1269336  80.4221678
 115.6490188  66.7587477  75.0595872 115.8886786  67.3906001  75.7374891
 114.8059385  66.4075517  75.3461232 116.7643904  49.4512079  63.7277677
 115.8873370  49.3300880  63.3639924 117.2401657  48.6598157  63.4756566
 108.2846044  54.2389238  73.8219185 108.9717084  53.9250969  73.2340200
 108.1294173  55.1430603  73.5486436 113.0880766  49.1279435  78.2504208
 113.0038955  48.5205105  77.5154618 112.2663472  49.6188453  78.2513705
 120.1618050  62.5666599  77.4637376 120.0888222  63.3721571  77.9756681
 119.7195443  62.7658565  76.6385398 119.9507830  61.8038369  70.9740198
 119.1675352  62.3460049  71.0678422 120.6500575  62.3212349  71.3734439
 119.8439449  49.7550382  73.3446088 119.4737236  49.2021422  74.0326994
 120.3398541  49.1508515  72.7921088 117.6728647  60.2147877  80.4401106
 118.3738107  60.8484360  80.5930500 117.2023762  60.5562608  79.6796745
 121.5217506  53.5112295  84.7519693 120.8458143  53.4106424  85.4222069
 122.3445140  53.3551509  85.2155691 113.2696365  59.7484232  77.3732209
 113.8549802  59.0027920  77.5060113 113.0721204  60.0588188  78.2568872
 116.1235020  62.7835479  72.3894651 115.4545396  63.2681607  71.9058691
 115.9847890  63.0304699  73.3038029 107.8614020  52.3189832  76.0936652
 107.8998119  51.7853423  76.8873770 107.3554313  51.7925037  75.4747629
 120.2640289  64.8179223  78.9877309 120.8158597  64.9810844  79.7526395
 120.6046482  65.4083660  78.3157334 115.2404782  47.1654372  79.5899194
 115.3046109  48.0269203  79.1776592 115.1771903  46.5528374  78.8571553
 114.7157055  49.2377505  83.2372228 115.3429094  48.8554582  83.8509753
 113.8584974  49.0191707  83.6027921 111.4922598  51.0453934  69.1690583
 111.7876039  50.1364612  69.1157637 110.5910633  51.0241673  68.8471585
 115.0216845  49.1209931  75.1518132 114.3003430  49.7345898  75.0125605
 115.8110100  49.6567695  75.0734778 117.8243158  46.4564357  81.4258783
 118.3477560  46.7026654  82.1885093 117.6055491  47.2884392  81.0061921
 113.2210439  48.7268032  69.2929908 112.8923145  47.8465411  69.1105014
 113.5749810  48.6715700  70.1806297 116.3352262  49.0141001  69.6605386
 116.6748335  49.5426923  68.9383994 116.7824383  49.3521408  70.4363952
 119.0295703  47.3978052  79.1108454 118.6892523  46.5985865  79.5129134
 118.3234709  47.6979763  78.5385287 119.6812175  44.4827365  77.5635777
 120.5038244  44.0087843  77.4414667 119.9250238  45.2617848  78.0634463
 118.3220409  47.5115623  67.8598679 119.0428772  47.8896876  67.3562396
 117.6985714  48.2304500  67.9633657 117.2050754  51.1746485  75.3727756
 117.0595334  51.4886788  76.2652037 116.7275957  51.7931386  74.8198654
 119.0647137  48.1649033  75.4208645 119.0508705  47.2690127  75.0840943
 119.7819565  48.1719697  76.0546931 120.9173267  48.5986373  77.4661773
 120.6591045  49.5203444  77.4646103 120.3858308  48.2016808  78.1562237
 111.6796416  53.7151830  78.3115417 111.1349884  54.4911638  78.4435691
 112.5575766  54.0622634  78.1534538 118.4684033  47.0463414  70.6896215
 118.5899944  46.1180060  70.8887103 118.1786075  47.0602099  69.7774531
 121.3375223  44.7318324  73.8262935 121.3596920  44.7957657  72.8714915
 121.7543282  43.8922833  74.0203441 112.4662438  52.8421726  81.2045574
 111.7244174  52.9904361  81.7910204 112.1455182  53.1029992  80.3412323
 120.4106100  62.3837704  81.0025964 120.7193227  62.1386851  81.8748663
 121.2081582  62.5884343  80.5144834 120.4326712  64.5375614  73.2331340
 119.9931703  64.0451992  73.9264197 121.1834829  63.9948581  72.9923415
 112.9119051  60.7287155  73.2355968 113.7377071  60.4290926  72.8554612
 112.5613103  59.9594777  73.6845757 117.8800585  60.0813623  75.3053642
 117.2580594  59.4184328  75.0055870 118.5505451  60.1074755  74.6227290
 111.1127656  58.6473481  74.1944902 110.2759565  58.2195655  74.0128903
 111.0851302  58.8405924  75.1315693 117.9525112  48.5595411  84.8986148
 118.0013268  49.4357534  84.5163918 118.4947626  48.0172804  84.3257791
 117.4414091  58.6317546  68.7812102 117.5902212  59.3153011  68.1278775
 118.2480535  58.6122636  69.2961558 120.1824400  49.3126783  81.6532507
 119.3127710  49.6060349  81.3815095 120.4183881  49.8967228  82.3739770
 115.1966724  54.6582724  69.7873171 114.9512766  53.7545054  69.9853381
 115.3662639  54.6599874  68.8452649 114.4662372  50.3911081  67.2859333
 113.7731617  50.4655436  66.6299369 114.2214124  49.6271425  67.8080850
 120.9409497  61.1265677  66.2523850 120.3683464  61.7455864  65.7994322
 121.5142291  61.6765038  66.7863772 121.3256295  52.4626489  63.5939902
 122.2715400  52.3332698  63.6628320 120.9470540  51.7241151  64.0709331
 121.2094988  56.5144236  85.0540559 122.1297997  56.6922835  85.2480606
 121.1744571  55.5700281  84.9020259 119.5099213  50.3876466  63.5294788
 118.6030668  50.0909579  63.6057501 119.7875194  50.0906284  62.6629074
 110.4277153  51.7082829  73.9793834 110.1079937  50.8548137  73.6868208
 109.8810581  51.9231407  74.7351801 114.2057061  54.4245270  77.6963341
 114.4243070  55.3562378  77.7151374 114.6182834  54.0653245  78.4818144
 121.1261278  44.9313356  69.6839029 120.3162007  44.5860440  70.0594275
 121.8145695  44.6220899  70.2726640 119.0784926  49.9978476  87.0866089
 118.9781653  50.9472833  87.0178181 118.8606468  49.6696715  86.2142160
 118.2797997  47.2463401  63.6706767 119.1417161  47.5718299  63.9302584
 118.4648341  46.4594897  63.1579833 110.2965413  55.3285741  75.9486956
 109.6028884  54.9139693  75.4356910 111.0438404  55.3706277  75.3520374
 118.9416196  53.4275615  85.9031151 118.4583278  54.2275975  86.1095040
 119.0277135  53.4383560  84.9498595 112.2102156  55.2603994  73.8252970
 112.1872844  55.3591682  72.8734854 112.5202792  56.1069145  74.1470137
 114.8689533  57.3180149  77.9399585 115.8232787  57.2864092  77.8729516
 114.6702057  56.8570773  78.7549811 115.4588916  55.8881266  80.5070383
 116.2781805  56.3825344  80.5305220 115.7325723  54.9713234  80.4787950
 113.2239762  62.8599769  74.9569783 113.0894230  62.1000170  74.3907781
 112.8071824  63.5840669  74.4898572 116.3808888  63.7569086  75.1688225
 116.2641272  64.7014518  75.0666916 115.5601334  63.4542648  75.5574025
 110.7123830  50.2219399  81.2062580 111.3582693  49.7118353  81.6949805
 110.5040981  50.9588081  81.7806005 119.2327440  44.4859444  66.9586476
 119.2206110  45.4301284  67.1154747 120.1250862  44.3029589  66.6645937
 117.4063402  64.4097348  78.3844154 118.3090649  64.4420958  78.7010649
 117.1800772  63.4797799  78.3990490 119.1617004  63.1628334  75.0454232
 118.2112635  63.1630196  74.9318605 119.4649490  62.4161069  74.5290267
 115.0521321  47.3687016  85.3037594 115.9152782  47.0123821  85.5140918
 114.4786731  47.0300911  85.9912998 121.9104754  66.3949254  77.2923229
 122.1612793  67.2796264  77.5580805 122.4464303  66.2153855  76.5198321
 119.1239798  69.5681156  73.8219185 119.8110838  69.2542886  73.2340200
 118.9687927  70.4722521  73.5486436 118.7007774  67.6481750  76.0936652
 118.7391874  67.1145340  76.8873770 118.1948067  67.1216955  75.4747629
 121.9521411  73.9765399  74.1944902 121.1153319  73.5487573  74.0128903
 121.9245056  74.1697842  75.1315693 121.2670908  67.0374747  73.9793834
 120.9473692  66.1840055  73.6868208 120.7204336  67.2523325  74.7351801
 121.1359168  70.6577658  75.9486956 120.4422639  70.2431611  75.4356910
 121.8832159  70.6998195  75.3520374 121.5517584  65.5511317  81.2062580
 122.1976448  65.0410271  81.6949805 121.3434735  66.2879999  81.7806005
  96.3315851  10.3580370  57.6392977  96.2539881  11.3088195  57.7181458
  95.7277494  10.0126242  58.2967903  93.9702681  13.1065764  61.7841179
  94.2099279  13.7384288  62.4620198  93.1271877  12.7553804  62.0706538
  94.4447513   9.1313766  59.1139958  93.7757888   9.6159894  58.6303998
  94.3060382   9.3782987  60.0283336  98.5852781  11.1657510  65.7122616
  99.1371089  11.3289131  66.4771701  98.9258975  11.7561948  65.0402641
  98.7539205  10.8853901  59.9576647  98.3144195  10.3930280  60.6509504
  99.5047322  10.3426869  59.7168722  91.5452255   9.2078056  61.6815089
  91.4106722   8.4478457  61.1153087  91.1284317   9.9318956  61.2143878
  94.7021380  10.1047373  61.8933532  94.5853765  11.0492806  61.7912222
  93.8813827   9.8020935  62.2819331  95.7275895  10.7575635  65.1089460
  96.6303141  10.7899245  65.4255955  95.5013265   9.8276086  65.1235796
 110.0271896  15.2994588  62.7706826 109.6890408  15.1835653  61.8827361
 110.8961664  14.8985753  62.7507832 105.8858712  17.1530065  58.7603717
 105.3223577  17.0620002  57.9920005 105.7711107  16.3329969  59.2406210
 110.5091679  16.4529440  68.7293032 110.4980320  16.0582238  67.8573535
 110.6712319  15.7195513  69.3226803 103.4323144  18.6481256  61.5987938
 104.2244436  18.3072081  61.1834237 103.6719794  18.7576231  62.5190091
 111.4658271  20.8201032  54.0718182 110.8146250  21.4055113  53.6852196
 112.2602634  21.3507227  54.1313219 105.3913898  17.9090169  54.4705316
 106.1644774  17.3619157  54.3318192 105.7439297  18.7734419  54.6819778
 107.2298940  19.2366552  67.6772216 106.9388806  20.1412183  67.5618882
 107.8655925  19.2783079  68.3916285 108.1555147  16.6143400  64.2673575
 108.7518720  16.3899423  63.5530538 108.2130119  15.8728146  64.8699023
 107.7280176  14.0682836  52.1023766 107.9805696  13.5464357  51.3407229
 106.7904735  13.9048981  52.2050450 112.9433536  18.5091464  54.6087166
 112.3079369  18.5826091  55.3208071 112.6130942  19.0985063  53.9306246
 107.4476464  15.9710942  54.3048141 107.3312723  15.2955845  54.9729226
 107.5578724  15.4843315  53.4880294 109.7908005  15.4321089  58.0094830
 109.4266213  14.9051710  58.7207752 110.6475121  15.0419558  57.8361316
 112.1888826  18.9227967  64.6722009 111.8889549  19.8253006  64.5637817
 111.8439885  18.6560150  65.5243162 105.6401307  15.3741764  60.7058714
 104.7151803  15.2417978  60.9136406 105.8885720  16.1535983  61.2028656
 103.0010118  15.0175038  61.5402503 103.1302499  15.2709517  62.4541915
 102.3207569  15.6102746  61.2207158 107.1709605  25.6872288  57.6392977
 107.0933635  26.6380113  57.7181458 106.5671249  25.3418160  58.2967903
 107.9173207  15.6685606  69.8572311 108.6587892  16.2070650  69.5807135
 107.2110193  16.2951895  70.0143863 113.3928547  17.8114747  68.4544472
 113.8011903  17.3697157  67.7099105 112.6705809  17.2367374  68.7078665
 113.7157362  18.3715937  62.2096761 113.0866224  18.5361652  61.5072829
 113.3283024  18.7857547  62.9807725 117.5946594  19.3070375  59.5641125
 116.9097632  19.6869277  59.0138158 117.6790443  19.9165702  60.2973073
 114.8497525  16.9530334  66.1636469 115.0614420  17.5962094  65.4870850
 114.8027273  16.1192651  65.6958399 109.2685324  18.1090346  59.4746846
 109.7323669  18.3878049  58.6851469 109.0042122  17.2073790  59.2919937
 106.1609405  17.6561827  62.4126610 106.7310762  18.0849095  61.7744094
 106.7517516  17.3744412  63.1110795 108.2054210  14.2313498  56.2836412
 108.9078253  14.6834542  56.7510338 107.8734838  13.5897317  56.9116305
 106.6534571  12.8225255  70.6587621 106.0233232  13.5041535  70.8923018
 106.5470659  12.7108336  69.7140759 101.9479544  12.4897051  61.5853545
 101.1578598  12.7454579  61.1093656 102.4390791  13.3045388  61.6905586
 115.9643353  19.8302290  64.3358826 116.7860797  19.4282477  64.0541508
 115.9605756  19.7270524  65.2874942 103.8994289  12.8541630  58.5437022
 103.1025452  12.9660324  59.0620517 103.6719881  13.1928282  57.6777912
 109.7299957  19.3786333  66.4919536 109.7944389  19.8406740  67.3277708
 109.0210880  18.7483698  66.6201846 100.2317247  12.7427541  64.0168536
 100.4825285  13.6274551  64.2826112 100.7676795  12.5632143  63.2443628
 109.4447974  21.0454441  56.3598517 109.3093649  21.8905976  56.7883365
 109.9857787  21.2473718  55.5964451 102.8977372  18.5629879  56.9326442
 103.4101892  19.3573129  57.0832007 103.5500084  17.8656169  56.8660043
 104.7072256  21.6795635  59.0149195 104.8838885  22.6013600  58.8270179
 105.5029090  21.3654054  59.4443575 103.9924613  13.7260267  68.8911358
 103.8778128  12.8245524  69.1918457 103.1369131  13.9723963  68.5396175
 111.0716451  21.6678007  70.4898859 110.6280305  20.8814386  70.1719763
 111.7333664  21.8557158  69.8242750 105.8303572  23.1973809  65.0159537
 106.3810997  23.0690872  64.2436531 104.9915048  23.4968698  64.6654430
 113.1697689  21.9480807  68.5180260 113.1516164  22.7689688  68.0260529
 114.0917609  21.8234882  68.7430401 109.6270743  19.4624936  69.3603768
 110.1599080  18.7013225  69.1303076 109.0984824  19.1698588  70.1027923
 100.8626288  16.8918533  57.7086012 101.7001510  17.3015541  57.4919720
 101.0404556  15.9517975  57.6786206 117.7324995  17.3125968  55.3323019
 116.9554437  16.9737128  54.8878181 118.4116476  17.3178591  54.6577984
 110.9923456  18.5910929  56.8722581 110.4644817  17.8563689  56.5595818
 110.4910958  19.3685605  56.6262549 115.9716302  16.7859949  61.9889627
 115.3139976  17.4759211  62.0769755 116.7756701  17.1756381  62.3323613
 109.1376056  16.4091139  49.8757554 108.2303117  16.1780393  50.0748703
 109.6347088  15.6128758  50.0631535 112.0444135  25.1188646  52.7954240
 111.3705833  25.4220343  53.4039198 112.4309957  25.9217727  52.4459697
 110.3164289  16.5103734  54.3981544 109.4075508  16.2262767  54.4954013
 110.3459373  16.9302813  53.5384850 115.5483557  20.1210324  58.1672711
 115.0945884  19.2801233  58.2237902 114.9177523  20.7571722  58.5047491
 113.9916496  21.9586820  59.1022529 114.2839470  22.5191877  58.3834895
 114.5015116  22.2515381  59.8575688 100.8852460  14.2309248  58.3796746
 100.6876859  13.6378609  57.6547812 100.3299124  13.9261458  59.0972685
 110.0140377  18.0512478  51.7369622 109.5759807  17.3348337  51.2775260
 110.7550818  18.2788593  51.1754714 108.9550121  22.7367171  60.1915983
 108.9126300  22.9628018  59.2624515 109.8712820  22.5030546  60.3401784
 118.1582871  18.3946202  62.8057212 118.5919378  18.3021491  63.6540266
 118.8714452  18.3703702  62.1677228 107.0715922  19.6130200  59.9877945
 107.8656520  19.1180520  59.7860520 106.3607614  19.0848063  59.6245651
 111.8910766  21.9948296  64.3390313 111.9447789  22.5639232  65.1068029
 111.0225548  22.1650181  63.9744350 103.3798685  13.7573282  56.0637698
 102.4496273  13.6957738  56.2807660 103.4756157  13.2349235  55.2674339
 119.0198421  18.4369902  65.3390098 119.2134311  19.3415713  65.5849373
 118.9199039  17.9777322  66.1728683 114.0813530  18.5876645  70.9130978
 113.9299036  18.3587197  69.9961062 114.0718209  19.5447247  70.9262323
 110.8498866  16.1608558  65.8977245 111.7790926  16.3119718  65.7246212
 110.4289896  16.2492579  65.0425891 109.6487198  20.1859222  63.6675782
 109.5098283  19.8178007  64.5401720 108.8601794  20.7006862  63.4959740
 110.2435350  25.2868319  55.0101319 110.4187105  24.8156362  55.8246942
 109.5568138  25.9134085  55.2382580 111.1992413  19.5640825  61.0564620
 110.8642246  19.5241595  61.9522270 110.6996359  18.8985541  60.5835030
 105.1736657  14.9708455  66.5817201 105.0356455  14.2388694  67.1828740
 106.0841580  14.8817355  66.3001389 114.1351605  16.9096859  51.3301680
 113.5180775  16.1843688  51.2334732 113.6668093  17.6706220  50.9868754
 107.8018958  14.6828414  66.0700881 108.5118576  14.0421607  66.0287499
 107.7588266  14.9341309  66.9927062 115.7905736  21.6195768  68.9907460
 115.7318282  20.9354988  68.3238043 116.1925255  22.3614758  68.5388086
 104.8096435  28.4357682  61.7841179 105.0493033  29.0676206  62.4620198
 103.9665631  28.0845722  62.0706538 115.7923143  19.5835352  67.2221440
 114.9049922  19.2461273  67.3447839 116.3621695  18.8518383  67.4590205
  97.4452291  15.9159443  60.5464491  98.1323330  15.6021173  59.9585507
  97.2900419  16.8200808  60.2731743 109.3224297  24.2436804  64.1882683
 109.2494468  25.0491776  64.7001988 108.8801690  24.4428770  63.3630704
 109.1114077  23.4808574  57.6985505 108.3281598  24.0230254  57.7923729
 109.8106822  23.9982554  58.0979746 111.7822980  24.1423638  66.3440842
 112.4950953  24.7771103  66.2716743 111.2913009  24.2387504  65.5280844
 113.5040507  18.0474891  57.9158133 112.5696786  18.1676353  57.7462838
 113.6817176  17.1447357  57.6518143 106.8334894  21.8918082  67.1646413
 107.5344353  22.5254564  67.3175807 106.3630009  22.2332813  66.4042052
 114.9589290  20.2336031  55.4494320 115.2349134  20.1192626  56.3588194
 114.0893789  19.8353516  55.4106493 111.5943354  24.4822382  59.0927133
 111.7765748  23.6644038  59.5554885 112.4176340  24.6990074  58.6552023
 111.9285519  23.4090567  56.3542182 112.4573286  22.8983022  55.7412344
 112.1913739  23.0933097  57.2187715 110.6823753  15.1882500  71.4765000
 110.0064390  15.0876629  72.1467375 111.5051387  15.0321714  71.9400997
 102.4302612  21.4254437  64.0977515 103.0156049  20.6798124  64.2305419
 102.2327450  21.7358393  64.9814179 105.2841267  24.4605684  59.1139958
 104.6151642  24.9451812  58.6303998 105.1454137  24.7074904  60.0283336
  97.0220267  13.9960037  62.8181958  97.0604366  13.4623627  63.6119076
  96.5160560  13.4695242  62.1992936 109.4246536  26.4949427  65.7122616
 109.9764844  26.6581049  66.4771701 109.7652729  27.0853865  65.0402641
 114.2757410  21.3210685  71.5671270 114.8197314  21.9340643  71.0726225
 113.6944255  21.8790263  72.0838283 100.6528844  12.7224139  55.8935890
 100.9482285  11.8134817  55.8402943  99.7516880  12.7011878  55.5716892
 112.5614923  24.4431403  62.6986298 112.4366063  23.6421143  62.1897244
 113.2194014  24.9377596  62.2100268 114.6249831  22.2440423  64.3265848
 113.6780167  22.1245774  64.2544175 114.9732605  21.3562921  64.4092110
 111.6296265  22.0393139  60.5270200 111.4821227  21.1109847  60.7077770
 112.4549758  22.0613230  60.0427276 115.2330387  22.8621698  61.6135073
 116.1576934  22.6564559  61.4759524 115.0645690  22.6138099  62.5224415
 106.3657000  12.8516690  62.0973062 106.2201581  13.1656993  62.9897344
 105.8882204  13.4701590  61.5443961 115.0225703  23.3807365  56.9697165
 115.1962580  22.8153788  56.2171017 115.5154594  24.1808260  56.7876655
 100.8402663  15.3922035  65.0360723 100.2956131  16.1681843  65.1680998
 101.7182012  15.7392839  64.8779845 116.0100875  22.6974130  54.0694063
 116.7051780  23.3180823  54.2881378 116.3524025  21.8469481  54.3446441
 101.6268684  14.5191931  67.9290880 100.8850421  14.6674566  68.5155511
 101.3061429  14.7800196  67.0657630 117.9092298  20.1473835  55.5981394
 118.4343623  20.4861108  54.8730714 117.8214651  19.2120851  55.4144528
 109.5712347  24.0607909  67.7271270 109.8799474  23.8157056  68.5993970
 110.3687829  24.2654548  67.2390141 109.5932959  26.2145819  59.9576647
 109.1537949  25.7222197  60.6509504 110.3441076  25.6718786  59.7168722
 102.0725298  22.4057360  59.9601275 102.8983318  22.1061131  59.5799918
 101.7219350  21.6364982  60.4091064 107.0406831  21.7583828  62.0298949
 106.4186841  21.0954533  61.7301176 107.7111698  21.7844960  61.3472596
 100.2733903  20.3243686  60.9190209  99.4365812  19.8965860  60.7374210
 100.2457549  20.5176129  61.8561000 117.5986204  20.7806739  70.9032592
 116.8081748  20.7630878  70.3637091 117.3619559  21.3195033  71.6581628
 117.7184080  17.6299205  68.2165320 117.7682084  17.4649213  69.1580843
 117.6098003  16.7626464  67.8263201 106.6020338  20.3087751  55.5057409
 106.7508459  20.9923216  54.8524082 107.4086782  20.2892841  56.0206865
 119.2202276  20.0496147  68.4607342 118.9287085  20.4126127  69.2970803
 118.6074408  19.3363155  68.2820674 104.3572971  16.3352929  56.5118478
 104.1119013  15.4315259  56.7098688 104.5268886  16.3370079  55.5697956
 110.1015744  22.8035882  52.9769157 109.5289711  23.4226069  52.5239628
 110.6748537  23.3535243  53.5109078 113.3213004  23.0873032  54.1077739
 114.2543677  23.0218593  54.3110614 113.2336216  23.9229299  53.6492271
 115.9501020  22.4038902  51.0681686 115.8714652  22.0698766  51.9617444
 116.7710687  22.8960670  51.0673159 110.3701235  18.1914440  71.7785866
 111.2904244  18.3693039  71.9725912 110.3350818  17.2470486  71.6265565
  99.5883400  13.3853034  60.7039141  99.2686184  12.5318342  60.4113515
  99.0416828  13.6001612  61.4597108 103.3663307  16.1015475  64.4208647
 103.5849317  17.0332583  64.4396681 103.7789081  15.7423450  65.2063451
  99.4571660  17.0055946  62.6732262  98.7635131  16.5909898  62.1602217
 100.2044651  17.0476482  62.0765681 108.1022443  15.1045820  72.6276458
 107.6189524  15.9046180  72.8340347 108.1883382  15.1153765  71.6743902
 101.3708402  16.9374199  60.5498277 101.3479090  17.0361887  59.5980160
 101.6809039  17.7839350  60.8715443 104.0295780  18.9950354  64.6644892
 104.9839034  18.9634297  64.5974823 103.8308304  18.5340978  65.4795117
 104.6195162  17.5651470  67.2315689 105.4388051  18.0595549  67.2550526
 104.8931970  16.6483439  67.2033257 102.3846009  24.5369974  61.6815089
 102.2500477  23.7770375  61.1153087 101.9678071  25.2610874  61.2143878
 113.5204972  19.7206897  50.6891665 114.2240822  19.9256900  51.3049320
 112.7967621  20.2883659  50.9540748 105.5415135  25.4339291  61.8933532
 105.4247519  26.3784723  61.7912222 104.7207581  25.1312852  62.2819331
 115.4291669  20.1589427  52.7390125 116.2637273  19.7270625  52.5567600
 115.2676012  19.9871440  53.6667019 115.0837562  16.6621540  54.1046464
 115.0286365  16.4965811  53.1634908 114.4583617  17.3697573  54.2608654
  99.8730077  11.8989604  67.9307886 100.5188940  11.3888558  68.4195111
  99.6647228  12.6358286  68.5051311 112.3983469  18.9670452  73.4300027
 113.2674628  19.1411104  73.0686662 111.9190220  19.7864869  73.3075756
 106.5669649  26.0867553  65.1089460 107.4696896  26.1191163  65.4255955
 106.3407019  25.1568004  65.1235796 108.3223251  24.8398539  61.7699539
 107.3718882  24.8400401  61.6563911 108.6255737  24.0931274  61.2535574
 120.8665651  30.6286506  62.7706826 120.5284162  30.5127571  61.8827361
 121.7355419  30.2277671  62.7507832 116.7252466  32.4821982  58.7603717
 116.1617332  32.3911919  57.9920005 116.6104862  31.6621887  59.2406210
 121.3485434  31.7821358  68.7293032 121.3374075  31.3874156  67.8573535
 121.5106073  31.0487430  69.3226803 114.2716898  33.9773174  61.5987938
 115.0638190  33.6363999  61.1834237 114.5113549  34.0868149  62.5190091
 116.2307652  33.2382087  54.4705316 117.0038528  32.6911074  54.3318192
 116.5833051  34.1026336  54.6819778 118.0692695  34.5658469  67.6772216
 117.7782561  35.4704100  67.5618882 118.7049679  34.6074997  68.3916285
 118.9948902  31.9435318  64.2673575 119.5912474  31.7191340  63.5530538
 119.0523873  31.2020063  64.8699023 118.5673930  29.3974753  52.1023766
 118.8199451  28.8756275  51.3407229 117.6298489  29.2340899  52.2050450
 118.2870219  31.3002859  54.3048141 118.1706477  30.6247763  54.9729226
 118.3972479  30.8135233  53.4880294 120.6301760  30.7613006  58.0094830
 120.2659967  30.2343627  58.7207752 121.4868876  30.3711475  57.8361316
 120.2707247  25.7902906  53.0056179 120.4381649  26.6583142  53.3726650
 120.0804416  25.9530188  52.0817468 116.4795061  30.7033682  60.7058714
 115.5545558  30.5709896  60.9136406 116.7279475  31.4827901  61.2028656
 120.2496468  28.2460563  53.9902846 120.1296093  28.6917614  54.8288326
 119.5549056  28.5945881  53.4316384 113.8403873  30.3466955  61.5402503
 113.9696254  30.6001434  62.4541915 113.1601324  30.9394663  61.2207158
 118.0103360  41.0164205  57.6392977 117.9327389  41.9672030  57.7181458
 117.4065003  40.6710078  58.2967903 120.5020590  28.1892071  70.2954344
 119.7253924  28.7485991  70.2857209 121.1411153  28.6748854  70.8169214
 118.7566962  30.9977524  69.8572311 119.4981646  31.5362568  69.5807135
 118.0503947  31.6243813  70.0143863 120.5853372  28.0779271  65.8278029
 121.4314567  28.5018685  65.9712678 120.5252009  27.4212896  66.5216592
 120.1079078  33.4382263  59.4746846 120.5717424  33.7169966  58.6851469
 119.8435876  32.5365708  59.2919937 117.0003159  32.9853745  62.4126610
 117.5704516  33.4141013  61.7744094 117.5911271  32.7036329  63.1110795
 119.0447964  29.5605416  56.2836412 119.7472007  30.0126459  56.7510338
 118.7128593  28.9189234  56.9116305 117.4928326  28.1517172  70.6587621
 116.8626986  28.8333453  70.8923018 117.3864414  28.0400254  69.7140759
 112.7873298  27.8188968  61.5853545 111.9972352  28.0746497  61.1093656
 113.2784545  28.6337306  61.6905586 114.7388043  28.1833547  58.5437022
 113.9419207  28.2952242  59.0620517 114.5113636  28.5220200  57.6777912
 120.5693711  34.7078251  66.4919536 120.6338144  35.1698658  67.3277708
 119.8604635  34.0775616  66.6201846 111.0711001  28.0719459  64.0168536
 111.3219039  28.9566469  64.2826112 111.6070549  27.8924060  63.2443628
 120.2841729  36.3746358  56.3598517 120.1487403  37.2197894  56.7883365
 120.8251541  36.5765636  55.5964451 116.7709068  22.4537938  73.0212872
 116.3776014  21.9004137  73.6960516 117.5875209  22.7648517  73.4119390
 113.7371126  33.8921796  56.9326442 114.2495647  34.6865046  57.0832007
 114.3893839  33.1948087  56.8660043 115.5466011  37.0087553  59.0149195
 115.7232639  37.9305517  58.8270179 116.3422844  36.6945972  59.4443575
 119.6877029  23.8695817  70.6133129 120.4286743  24.4702970  70.5337591
 119.9194952  23.1273455  70.0551171 114.8318367  29.0552184  68.8911358
 114.7171882  28.1537442  69.1918457 113.9762885  29.3015881  68.5396175
 116.6697326  38.5265726  65.0159537 117.2204751  38.3982790  64.2436531
 115.8308802  38.8260615  64.6654430 120.4664497  34.7916854  69.3603768
 120.9992834  34.0305142  69.1303076 119.9378578  34.4990506  70.1027923
 111.7020043  32.2210451  57.7086012 112.5395265  32.6307459  57.4919720
 111.8798311  31.2809893  57.6786206 121.1831586  24.7335232  58.4555084
 120.3273182  24.3442082  58.2760722 121.5958538  24.8127193  57.5954869
 118.9573619  22.3520305  61.8612825 119.8226615  22.1563114  61.5018715
 119.0251127  22.1230657  62.7882182 121.8317210  33.9202847  56.8722581
 121.3038572  33.1855606  56.5595818 121.3304713  34.6977523  56.6262549
 116.5635938  24.5822513  59.2329192 117.1379690  24.3597694  58.5002385
 117.1506920  24.6511207  59.9857793 116.8905525  26.6126974  53.2525077
 116.0542837  26.9501660  53.5734352 116.7510294  26.4775954  52.3152214
 118.8658605  21.4563762  57.9604261 118.2123018  21.1412779  57.3360876
 118.8239079  20.8339502  58.6864084 119.9769810  31.7383057  49.8757554
 119.0696872  31.5072310  50.0748703 120.4740842  30.9420676  50.0631535
 121.1558044  31.8395652  54.3981544 120.2469263  31.5554685  54.4954013
 121.1853127  32.2594730  53.5384850 111.7246214  29.5601166  58.3796746
 111.5270614  28.9670527  57.6547812 111.1692878  29.2553376  59.0972685
 119.7042938  29.4524272  60.4991339 119.7591547  28.4998109  60.4233816
 118.8934140  29.6083711  60.9832637 120.8534131  33.3804395  51.7369622
 120.4153561  32.6640254  51.2775260 121.5944572  33.6080510  51.1754714
 117.6435298  28.0701332  58.2581718 116.8303163  28.3695503  58.6646910
 118.1394292  27.6757021  58.9756200 119.7943875  38.0659089  60.1915983
 119.7520054  38.2919935  59.2624515 120.7106574  37.8322464  60.3401784
 117.1349372  25.6419688  63.8742953 117.7748752  25.5008447  63.1765916
 116.3026903  25.3554201  63.4981555 117.9109676  34.9422118  59.9877945
 118.7050275  34.4472438  59.7860520 117.2001369  34.4139981  59.6245651
 114.2192440  29.0865200  56.0637698 113.2890028  29.0249655  56.2807660
 114.3149912  28.5641153  55.2674339 114.1377989  25.6120013  58.6515940
 114.3984806  26.5265346  58.5425100 114.9595161  25.1444455  58.8012552
 115.6102914  27.0257770  65.8214764 116.2825968  26.8175132  65.1727413
 114.7832701  26.8279856  65.3819996 121.5128486  23.6519711  67.8380425
 120.8656401  24.3509660  67.7444901 122.2829502  24.0855855  68.2056673
 120.4880952  35.5151140  63.6675782 120.3492038  35.1469924  64.5401720
 119.6995548  36.0298779  63.4959740 121.0829104  40.6160236  55.0101319
 121.2580860  40.1448280  55.8246942 120.3961892  41.2426003  55.2382580
 122.0386167  34.8932743  61.0564620 121.7036000  34.8533513  61.9522270
 121.5390113  34.2277459  60.5835030 116.0130411  30.3000373  66.5817201
 115.8750209  29.5680612  67.1828740 116.9235335  30.2109273  66.3001389
 118.6412712  30.0120332  66.0700881 119.3512331  29.3713524  66.0287499
 118.5982020  30.2633227  66.9927062 117.3541646  26.9985550  67.8896520
 116.8179003  26.5476288  68.5418117 116.7658354  27.1331459  67.1466985
 115.6490190  43.7649599  61.7841179 115.8886788  44.3968123  62.4620198
 114.8059386  43.4137639  62.0706538 116.7643905  26.4574201  50.4522984
 115.8873371  26.3363002  50.0885231 117.2401658  25.6660280  50.2001873
 108.2846045  31.2451361  60.5464491 108.9717085  30.9313091  59.9585507
 108.1294174  32.1492726  60.2731743 113.0880767  26.1341558  64.9749515
 113.0038956  25.5267227  64.2399925 112.2663474  26.6250576  64.9759011
 120.1618051  39.5728722  64.1882683 120.0888223  40.3783693  64.7001988
 119.7195444  39.7720688  63.3630704 119.9507831  38.8100492  57.6985505
 119.1675353  39.3522172  57.7923729 120.6500576  39.3274471  58.0979746
 119.8439450  26.7612504  60.0691395 119.4737237  26.2083545  60.7572300
 120.3398542  26.1570638  59.5166395 117.6728648  37.2209999  67.1646413
 118.3738108  37.8546482  67.3175807 117.2023763  37.5624731  66.4042052
 121.5217507  30.5174418  71.4765000 120.8458144  30.4168547  72.1467375
 122.3445141  30.3613631  71.9400997 113.2696366  36.7546354  64.0977515
 113.8549803  36.0090042  64.2305419 113.0721205  37.0650311  64.9814179
 116.1235022  39.7897602  59.1139958 115.4545397  40.2743729  58.6303998
 115.9847891  40.0366822  60.0283336 107.8614021  29.3251954  62.8181958
 107.8998121  28.7915545  63.6119076 107.3554314  28.7987160  62.1992936
 120.2640290  41.8241345  65.7122616 120.8158598  41.9872967  66.4771701
 120.6046484  42.4145783  65.0402641 115.2404784  24.1716495  66.3144501
 115.3046110  25.0331326  65.9021898 115.1771904  23.5590497  65.5816859
 114.7157056  26.2439627  69.9617535 115.3429095  25.8616705  70.5755059
 113.8584975  26.0253829  70.3273227 111.4922599  28.0516057  55.8935890
 111.7876040  27.1426735  55.8402943 110.5910635  28.0303796  55.5716892
 115.0216846  26.1272053  61.8763438 114.3003432  26.7408021  61.7370912
 115.8110102  26.6629818  61.7980084 117.8243159  23.4626480  68.1504090
 118.3477561  23.7088776  68.9130399 117.6055493  24.2946514  67.7307227
 113.2210440  25.7330154  56.0175215 112.8923147  24.8527533  55.8350321
 113.5749811  25.6777823  56.9051604 116.3352264  26.0203124  56.3850693
 116.6748336  26.5489045  55.6629301 116.7824384  26.3583530  57.1609259
 119.0295704  24.4040175  65.8353761 118.6892525  23.6047988  66.2374441
 118.3234711  24.7041886  65.2630594 119.6812176  21.4889487  64.2881084
 120.5038246  21.0149965  64.1659974 119.9250240  22.2679971  64.7879770
 118.3220411  24.5177746  54.5843985 119.0428773  24.8958998  54.0807702
 117.6985715  25.2366622  54.6878963 117.2050755  28.1808608  62.0973062
 117.0595336  28.4948911  62.9897344 116.7275959  28.7993508  61.5443961
 119.0647138  25.1711156  62.1453952 119.0508707  24.2752249  61.8086250
 119.7819566  25.1781820  62.7792238 120.9173269  25.6048496  64.1907079
 120.6591046  26.5265567  64.1891410 120.3858309  25.2078931  64.8807543
 111.6796417  30.7213952  65.0360723 111.1349885  31.4973760  65.1680998
 112.5575767  31.0684757  64.8779845 118.4684034  24.0525536  57.4141522
 118.5899945  23.1242182  57.6132409 118.1786076  24.0664222  56.5019837
 121.3375224  21.7380447  60.5508242 121.3596921  21.8019780  59.5960221
 121.7543283  20.8984955  60.7448748 112.4662439  29.8483849  67.9290880
 111.7244175  29.9966484  68.5155511 112.1455183  30.1092114  67.0657630
 120.4106102  39.3899827  67.7271270 120.7193228  39.1448974  68.5993970
 121.2081584  39.5946465  67.2390141 120.4326714  41.5437736  59.9576647
 119.9931704  41.0514115  60.6509504 121.1834831  41.0010704  59.7168722
 112.9119053  37.7349277  59.9601275 113.7377073  37.4353049  59.5799918
 112.5613105  36.9656900  60.4091064 117.8800586  37.0875745  62.0298949
 117.2580595  36.4246450  61.7301176 118.5505453  37.1136877  61.3472596
 111.1127658  35.6535604  60.9190209 110.2759566  35.2257778  60.7374210
 111.0851303  35.8468047  61.8561000 117.9525113  25.5657533  71.6231455
 118.0013269  26.4419656  71.2409224 118.4947628  25.0234927  71.0503098
 117.4414093  35.6379669  55.5057409 117.5902213  36.3215133  54.8524082
 118.2480536  35.6184759  56.0206865 120.1824402  26.3188906  68.3777813
 119.3127711  26.6122472  68.1060402 120.4183882  26.9029351  69.0985077
 115.1966726  31.6644846  56.5118478 114.9512768  30.7607176  56.7098688
 115.3662640  31.6661997  55.5697956 114.4662373  27.3973204  54.0104639
 113.7731618  27.4717559  53.3544675 114.2214125  26.6333548  54.5326156
 120.9409498  38.1327799  52.9769157 120.3683465  38.7517986  52.5239628
 121.5142292  38.6827161  53.5109078 121.3256297  29.4688612  50.3185209
 122.2715401  29.3394820  50.3873627 120.9470542  28.7303274  50.7954637
 121.2094989  33.5206358  71.7785866 122.1297999  33.6984957  71.9725912
 121.1744572  32.5762403  71.6265565 119.5099214  27.3938588  50.2540094
 118.6030669  27.0971701  50.3302808 119.7875195  27.0968406  49.3874380
 110.4277154  28.7144952  60.7039141 110.1079939  27.8610260  60.4113515
 109.8810582  28.9293530  61.4597108 114.2057062  31.4307393  64.4208647
 114.4243072  32.3624501  64.4396681 114.6182836  31.0715367  65.2063451
 121.1261280  21.9375478  56.4084336 120.3162008  21.5922563  56.7839582
 121.8145697  21.6283022  56.9971947 119.0784927  27.0040599  73.8111396
 118.9781654  27.9534956  73.7423487 118.8606469  26.6758837  72.9387466
 118.2797999  24.2525524  50.3952073 119.1417163  24.5780422  50.6547891
 118.4648343  23.4657020  49.8825139 110.2965414  32.3347863  62.6732262
 109.6028886  31.9201816  62.1602217 111.0438405  32.3768400  62.0765681
 118.9416197  30.4337737  72.6276458 118.4583279  31.2338098  72.8340347
 119.0277136  30.4445682  71.6743902 112.2102157  32.2666117  60.5498277
 112.1872845  32.3653804  59.5980160 112.5202793  33.1131268  60.8715443
 114.8689535  34.3242272  64.6644892 115.8232788  34.2926214  64.5974823
 114.6702058  33.8632896  65.4795117 115.4588917  32.8943388  67.2315689
 116.2781806  33.3887467  67.2550526 115.7325725  31.9775356  67.2033257
 113.2239763  39.8661892  61.6815089 113.0894231  39.1062292  61.1153087
 112.8071826  40.5902791  61.2143878 116.3808889  40.7631209  61.8933532
 116.2641274  41.7076641  61.7912222 115.5601336  40.4604770  62.2819331
 110.7123831  27.2281522  67.9307886 111.3582695  26.7180476  68.4195111
 110.5040982  27.9650204  68.5051311 119.2327442  21.4921567  53.6831782
 119.2206111  22.4363407  53.8400053 120.1250863  21.3091712  53.3891244
 117.4063403  41.4159470  65.1089460 118.3090650  41.4483081  65.4255955
 117.1800774  40.4859921  65.1235796 119.1617005  40.1690457  61.7699539
 118.2112637  40.1692319  61.6563911 119.4649492  39.4223192  61.2535574
 115.0521322  24.3749139  72.0282900 115.9152784  24.0185944  72.2386225
 114.4786733  24.0363034  72.7158305 121.9104756  43.4011376  64.0168536
 122.1612794  44.2858386  64.2826112 122.4464304  43.2215978  63.2443628
 119.1239800  46.5743279  60.5464491 119.8110839  46.2605009  59.9585507
 118.9687928  47.4784643  60.2731743 118.7007776  44.6543872  62.8181958
 118.7391875  44.1207463  63.6119076 118.1948069  44.1279078  62.1992936
 121.9521412  50.9827521  60.9190209 121.1153320  50.5549696  60.7374210
 121.9245058  51.1759965  61.8561000 121.2670909  44.0436869  60.7039141
 120.9473693  43.1902178  60.4113515 120.7204337  44.2585448  61.4597108
 121.1359169  47.6639781  62.6732262 120.4422640  47.2493734  62.1602217
 121.8832160  47.7060317  62.0765681 121.5517586  42.5573440  67.9307886
 122.1976449  42.0472394  68.4195111 121.3434737  43.2942121  68.5051311
 118.0103361  18.0226328  44.3638284 117.9327391  18.9734153  44.4426764
 117.4065005  17.6772200  45.0213210 115.6490191  20.7711722  48.5086486
 115.8886789  21.4030246  49.1865504 114.8059387  20.4199762  48.7951845
 116.1235023  16.7959724  45.8385264 115.4545398  17.2805852  45.3549304
 115.9847893  17.0428945  46.7528643 120.2640292  18.8303468  52.4367923
 120.8158600  18.9935089  53.2017008 120.6046485  19.4207906  51.7647947
 120.4326715  18.5499859  46.6821953 119.9931705  18.0576238  47.3754810
 121.1834832  18.0072827  46.4414029 113.2239765  16.8724014  48.4060396
 113.0894233  16.1124415  47.8398394 112.8071827  17.5964914  47.9389185
 116.3808891  17.7693331  48.6178839 116.2641275  18.7138764  48.5157529
 115.5601337  17.4666893  49.0064638 117.4063405  18.4221593  51.8334767
 118.3090651  18.4545203  52.1501262 117.1800775  17.4922044  51.8481103
 121.9104757  20.4073499  50.7413843 122.1612795  21.2920509  51.0071418
 122.4464305  20.2278100  49.9688934 119.1239801  23.5805401  47.2709798
 119.8110841  23.2667131  46.6830813 118.9687930  24.4846766  46.9977049
 118.7007777  21.6605995  49.5427265 118.7391876  21.1269585  50.3364383
 118.1948070  21.1341200  48.9238242 121.9521413  27.9889644  47.6435515
 121.1153322  27.5611818  47.4619516 121.9245059  28.1822087  48.5806306
 121.2670910  21.0498992  47.4284447 120.9473694  20.1964300  47.1358821
 120.7204338  21.2647570  48.1842415 121.1359170  24.6701904  49.3977569
 120.4422641  24.2555856  48.8847523 121.8832161  24.7122440  48.8010988
 121.5517587  19.5635562  54.6553193 122.1976450  19.0534516  55.1440418
 121.3434738  20.3004244  55.2296618  25.3294092  63.4418445 119.1727703
  24.6555791  63.7450142 119.7812661  25.7159914  64.2447525 118.8233160
  27.4201562  55.2326658 117.7075144  26.8030733  54.5073486 117.6108196
  26.9518051  55.9936018 117.3642218  29.2950833  61.0203929 120.4467527
  29.9901738  61.6410621 120.6654841  29.6373983  60.1699280 120.7219905
  23.3865702  61.1265680 119.3542620  22.8139669  61.7455867 118.9013092
  23.9598495  61.6765042 119.8882542  26.6062961  61.4102830 120.4851202
  27.5393634  61.3448392 120.6884078  26.5186174  62.2459097 120.0265735
  29.2350978  60.7268701 117.4455150  29.1564610  60.3928564 118.3390908
  30.0560645  61.2190469 117.4446622  26.8054930  58.0436696 117.0665128
  27.5090780  58.2486699 117.6822784  26.0817579  58.6113458 117.3314212
  28.7141627  58.4819225 119.1163588  29.5487231  58.0500424 118.9341063
  28.5525970  58.3101239 120.0440483  37.3425902  68.9988876 129.2118765
  37.9804312  68.8795624 128.5082105  37.2246745  69.9469720 129.2706717
  34.1515609  68.9516304 129.1480290  33.8134120  68.8357369 128.2600825
  35.0205377  68.5507470 129.1281296  30.0102424  70.8051781 125.1377181
  29.4467289  70.7141718 124.3693469  29.8954819  69.9851685 125.6179673
  35.5901983  74.4722749 120.4491646  34.9389963  75.0576829 120.0625660
  36.3846346  75.0028944 120.5086683  29.5157610  71.5611886 120.8478780
  30.2888486  71.0140873 120.7091656  29.8683009  72.4256135 121.0593241
  31.8523888  67.7204552 118.4797230  32.1049409  67.1986073 117.7180693
  30.9148447  67.5570697 118.5823914  36.8967171  66.7240330 126.2871973
  37.6830260  66.3059753 125.9362390  37.1605875  67.6286422 126.4553622
  37.0677248  72.1613181 120.9860630  36.4323081  72.2347807 121.6981535
  36.7374655  72.7506779 120.3079709  42.2975598  66.6615563 127.1904952
  43.0300770  66.0914780 127.4242781  41.5414954  66.2737164 127.6311457
  31.5720177  69.6232658 120.6821605  31.4556435  68.9477561 121.3502689
  31.6822437  69.1365032 119.8653758  33.9151718  69.0842805 124.3868294
  33.5509925  68.5573426 125.0981216  34.7718834  68.6941274 124.2134780
  33.5557205  64.1132705 119.3829643  33.7231607  64.9812941 119.7500114
  33.3654374  64.2759986 118.4590932  36.3132538  72.5749684 131.0495473
  36.0133261  73.4774722 130.9411280  35.9683597  72.3081867 131.9016626
  39.7129682  65.0932224 128.7292910  38.8046559  65.0247632 128.4351671
  39.6617277  65.5704169 129.5574736  33.5346425  66.5690362 120.3676310
  33.4146051  67.0147413 121.2061790  32.8399014  66.9175680 119.8089848
  31.2953318  79.3394004 124.0166441  31.2177347  80.2901829 124.0954921
  30.6914961  78.9939876 124.6741367  39.2331492  67.0411835 121.1956644
  40.1449348  67.2739222 121.0204341  38.7241139  67.6248880 120.6331722
  37.8401074  72.0237654 128.5870225  37.2109936  72.1883368 127.8846293
  37.4526736  72.4379263 129.3581189  41.7190306  72.9592092 125.9414589
  41.0341344  73.3390993 125.3911622  41.8034155  73.5687418 126.6746537
  33.3929036  71.7612062 125.8520310  33.8567381  72.0399765 125.0624933
  33.1285834  70.8595506 125.6693401  32.3297922  67.8835214 122.6609875
  33.0321965  68.3356258 123.1283802  31.9978550  67.2419033 123.2889768
  40.0887065  73.4824006 130.7132290  40.9104509  73.0804193 130.4314971
  40.0849468  73.3792240 131.6648405  48.1793058  69.8262755 127.0617261
  47.4256767  69.2570153 126.9061266  48.3140600  69.7925419 128.0087896
  33.5691686  74.6976157 122.7371980  33.4337361  75.5427693 123.1656828
  34.1101499  74.8995434 121.9737914  27.0221084  72.2151595 123.3099906
  27.5345604  73.0094845 123.4605470  27.6743797  71.5177885 123.2433507
  28.8315969  75.3317351 125.3922659  29.0082597  76.2535316 125.2043643
  29.6272802  75.0175770 125.8217039  24.9870001  70.5440249 124.0859476
  25.8245223  70.9537258 123.8693184  25.1648268  69.6039691 124.0559670
  36.8834433  68.2115330 119.7743309  36.3681056  68.9819934 120.0131696
  36.6111741  67.5380466 120.3976371  34.4681544  63.0565031 124.8328547
  33.6123140  62.6671881 124.6534186  34.8808496  63.1356991 123.9728333
  41.8568707  70.9647684 121.7096483  41.0798150  70.6258844 121.2651645
  42.5360188  70.9700308 121.0351448  36.6720736  66.0842422 121.6003090
  36.3670872  66.3988571 122.4513233  37.6251178  66.1623842 121.6430423
  35.1167168  72.2432645 123.2496044  34.5888529  71.5085405 122.9369282
  34.6154671  73.0207322 123.0036013  40.0960014  70.4381666 128.3663091
  39.4383688  71.1280927 128.4543219  40.9000413  70.8278098 128.7097077
  38.9065473  68.7926038 126.4167032  39.4197354  69.4256030 126.9188742
  39.5566697  68.1927234 126.0510392  30.1755483  64.9356773 119.6298541
  29.3392795  65.2731459 119.9507816  30.0360252  64.8005752 118.6925678
  33.2619768  70.0612856 116.2531017  32.3546830  69.8302109 116.4522166
  33.7590800  69.2650475 116.4404999  36.1687847  78.7710363 119.1727703
  35.4949546  79.0742059 119.7812661  36.5553669  79.5739443 118.8233160
  36.1681351  67.6666910 123.7928053  36.9153170  68.1788307 123.4835175
  36.4372941  67.3450962 124.6532447  34.4408001  70.1625450 120.7755007
  33.5319221  69.8784483 120.8727477  34.4703085  70.5824529 119.9158314
  39.6727269  73.7732040 124.5446175  39.2189596  72.9322950 124.6011365
  39.0421236  74.4093438 124.8820955  38.6160188  64.7024026 125.7746842
  37.8782945  64.1901412 126.1057085  38.8686962  64.2624408 124.9630119
  38.1160208  75.6108537 125.4795993  38.4083182  76.1713594 124.7608359
  38.6258829  75.9037098 126.2349152  32.9892895  67.7754071 126.8764803
  33.0441505  66.8227907 126.8007279  32.1784097  67.9313510 127.3606101
  34.1384089  71.7034194 118.1143086  33.7003519  70.9870053 117.6548723
  34.8794530  71.9310309 117.5528177  30.9285255  66.3931131 124.6355182
  30.1153121  66.6925301 125.0420374  31.4244250  65.9986819 125.3529664
  33.0793833  76.3888888 126.5689446  33.0370012  76.6149734 125.6397978
  33.9956532  76.1552262 126.7175247  42.2557204  69.9791391 124.1719404
  42.1175103  70.1692987 123.2440594  41.8993423  70.7410774 124.6287456
  42.2826584  72.0467918 129.1830676  42.7163090  71.9543207 130.0313730
  42.9958164  72.0225419 128.5450692  31.1959634  73.2651917 126.3651409
  31.9900233  72.7702237 126.1633984  30.4851326  72.7369780 126.0019115
  36.0154479  75.6470012 130.7163777  36.0691501  76.2160949 131.4841493
  35.1469260  75.8171897 130.3517814  27.5042398  67.4094998 122.4411162
  26.5739986  67.3479454 122.6581124  27.5999870  66.8870951 121.6447803
  43.1442133  72.0891619 131.7163561  43.3378023  72.9937429 131.9622836
  43.0442751  71.6299038 132.5502146  33.7730910  73.8380939 130.0449246
  33.6341996  73.4699723 130.9175184  32.9845506  74.3528578 129.8733204
  34.3679062  78.9390035 121.3874783  34.5430818  78.4678078 122.2020405
  33.6811850  79.5655801 121.6156043  35.3236125  73.2162541 127.4338084
  34.9885958  73.1763311 128.3295734  34.8240071  72.5507257 126.9608494
  38.2595317  70.5618576 117.7075144  37.6424487  69.8365404 117.6108196
  37.7911805  71.3227936 117.3642218  30.0493863  64.7804000 116.8296448
  29.1723329  64.6592801 116.4658694  30.5251616  63.9890078 116.5775336
  33.2357789  77.1330290 124.0758968  32.4525311  77.6751971 124.1697193
  33.9350534  77.6504270 124.4753209  36.5454439  62.9424920 126.7193174
  37.0423138  62.1894882 126.3994244  35.7741420  62.9789236 126.1536383
  44.3984196  68.6465285 128.3611465  44.3874073  69.5290001 127.9905398
  43.5301576  68.2936836 128.1666002  37.6284220  71.6996607 124.2931597
  36.6940498  71.8198070 124.1236301  37.8060888  70.7969074 124.0291607
  41.0156771  67.5413926 124.8281631  41.4817223  68.3741918 124.7541934
  41.4664271  67.0758908 125.5326890  39.0833002  73.8857748 121.8267783
  39.3592846  73.7714342 122.7361657  38.2137501  73.4875232 121.7879956
  35.7187066  78.1344098 125.4700597  35.9009461  77.3165754 125.9328349
  36.5420052  78.3511791 125.0325487  36.0529232  77.0612284 122.7315645
  36.5816998  76.5504738 122.1185807  36.3157451  76.7454814 123.5961178
  24.7772557  66.3745855 122.2709353  25.0725998  65.4656534 122.2176407
  23.8760592  66.3533595 121.9490356  36.6858635  78.0953119 129.0759762
  36.5609775  77.2942859 128.5670707  37.3437726  78.5899313 128.5873732
  38.7493544  75.8962139 130.7039312  37.8023879  75.7767491 130.6317639
  39.0976317  75.0084637 130.7865573  26.5060398  64.0559953 122.3948679
  26.1773104  63.1757332 122.2123785  26.8599769  64.0007622 123.2825068
  35.7539977  75.6914856 126.9043664  35.6064939  74.7631563 127.0851234
  36.5793471  75.7134946 126.4200739  29.6202221  64.3432923 122.7624156
  29.9598294  64.8718844 122.0402765  30.0674342  64.6813329 123.5382723
  39.3574099  76.5143414 127.9908537  40.2820646  76.3086276 127.8532988
  39.1889402  76.2659816 128.8997878  31.6070368  62.8407544 120.9617449
  32.3278731  63.2188797 120.4581166  30.9835673  63.5596421 121.0652427
  35.7501491  63.5452693 121.8975781  35.9665106  64.4277331 121.5964610
  35.2695559  63.1538907 121.1681423  39.1469415  77.0329082 123.3470628
  39.3206293  76.4675504 122.5944481  39.6398306  77.8329977 123.1650118
  31.7533992  62.3755335 123.7914986  31.8749903  61.4471981 123.9905873
  31.4636034  62.3894021 122.8793301  45.0008806  69.7965505 124.9660928
  45.4439952  69.0472830 124.5680051  44.1235317  69.7875641 124.5834660
  40.1344588  76.3495846 120.4467527  40.8295492  76.9702539 120.6654841
  40.4767738  75.4991197 120.7219905  42.0336011  73.7995552 121.9754857
  42.5587335  74.1382824 121.2504177  41.9458363  72.8642567 121.7917992
  33.7176671  79.8667535 126.3350111  33.2781662  79.3743914 127.0282967
  34.4684788  79.3240503 126.0942186  30.7264051  73.9609467 121.8830873
  30.8752171  74.6444932 121.2297546  31.5330494  73.9414557 122.3980329
  43.3445989  73.7017863 134.8380805  43.0530797  74.0647844 135.6744266
  42.7318120  72.9884872 134.6594138  44.5441671  71.2670743 127.3583376
  45.3788562  71.7060547 127.5220936  44.6800800  70.7909396 126.5391621
  28.4816683  69.9874645 122.8891942  28.2362725  69.0836975 123.0872152
  28.6512598  69.9891796 121.9471420  27.7512331  65.7203003 120.3878103
  27.0581576  65.7947358 119.7318139  27.5064083  64.9563346 120.9099620
  34.2259456  76.4557598 119.3542620  33.6533423  77.0747785 118.9013092
  34.7992250  77.0056960 119.8882542  37.4456716  76.7394748 120.4851202
  38.3787389  76.6740310 120.6884078  37.3579929  77.5751015 120.0265735
  40.0744732  76.0560618 117.4455150  39.9958364  75.7220482 118.3390908
  40.8954399  76.5482386 117.4446622  42.7722924  68.9222358 130.6531469
  42.7399244  67.9838358 130.8391152  43.3823547  69.0006394 129.9197294
  34.6106255  67.7918411 116.6958673  35.5565359  67.6624619 116.7647091
  34.2320499  67.0533073 117.1728101  48.5899474  69.9838365 129.7937505
  49.3202862  69.7223653 130.3545209  47.9806419  69.2467086 129.8339573
  46.6714771  68.1246227 130.3911957  45.9447934  67.9902192 129.7828448
  46.2562058  68.4323056 131.1968675  32.7949172  65.7168387 116.6313558
  31.8880627  65.4201500 116.7076272  33.0725153  65.4198205 115.7647844
  34.4111237  60.2605277 122.7857799  33.6011966  59.9152362 123.1613045
  35.0995654  59.9512820 123.3745411  31.5647956  62.5755322 116.7725537
  32.4267120  62.9010221 117.0321354  31.7498300  61.7886818 116.2598603
  39.7180593  61.4483849 123.9160760  39.1379262  62.1068653 123.5338813
  39.4516525  60.6261193 123.5048178  38.5005471  63.6083939 122.9717108
  37.6131326  63.8933590 122.7537303  38.9159460  63.4477702 122.1244385
  41.8520007  63.6330460 126.6871448  42.6280397  64.1226913 126.9596064
  41.1268141  64.0588514 127.1443317  44.2892566  64.3458079 127.7445388
  44.8837056  64.1053815 127.0338697  44.3619149  63.6265210 128.3718925
  37.6448684  73.3728614 117.0665128  38.3484534  73.5778616 117.6822784
  36.9211333  73.9405376 117.3314212  38.4746495  69.1238475 123.1867399
  38.4181696  69.5807026 122.3475031  39.0274837  68.3629160 123.0090241
  42.2851300  64.9128207 124.0117518  42.0288235  64.5124843 124.8425726
  41.6604169  65.6272001 123.8867657  46.5963638  67.6524280 126.5188809
  46.0363196  67.7217469 127.2920372  45.9907142  67.4765265 125.7988306
  39.5535382  73.8111143 119.1163588  40.3880986  73.3792341 118.9341063
  39.3919725  73.6393157 120.0440483  39.2081274  70.3143256 120.4819928
  39.1530078  70.1487528 119.5408372  38.5827329  71.0219289 120.6382117
  32.5177399  59.8151365 120.0605246  32.5056069  60.7593205 120.2173517
  33.4100821  59.6321511 119.7664707  44.9909363  84.2808222 129.1480290
  44.6527875  84.1649287 128.2600825  45.8599131  83.8799387 129.1281296
  40.8496179  86.1343699 125.1377181  40.2861044  86.0433636 124.3693469
  40.7348574  85.3143603 125.6179673  46.4295737  89.8014666 120.4491646
  45.7783717  90.3868747 120.0625660  47.2240100  90.3320861 120.5086683
  40.3551365  86.8903803 120.8478780  41.1282241  86.3432791 120.7091656
  40.7076763  87.7548053 121.0593241  42.6917642  83.0496470 118.4797230
  42.9443163  82.5277991 117.7180693  41.7542202  82.8862615 118.5823914
  47.7360925  82.0532248 126.2871973  48.5224014  81.6351671 125.9362390
  47.9999630  82.9578340 126.4553622  47.9071003  87.4905098 120.9860630
  47.2716836  87.5639725 121.6981535  47.5768409  88.0798697 120.3079709
  53.1369352  81.9907481 127.1904952  53.8694524  81.4206698 127.4242781
  52.3808708  81.6029082 127.6311457  42.4113931  84.9524576 120.6821605
  42.2950189  84.2769479 121.3502689  42.5216191  84.4656949 119.8653758
  44.7545472  84.4134723 124.3868294  44.3903679  83.8865344 125.0981216
  45.6112588  84.0233192 124.2134780  50.6594773  75.7029055 131.6499560
  50.3278098  76.5724466 131.4260775  50.0640386  75.3865339 132.3293591
  44.3950959  79.4424622 119.3829643  44.5625361  80.3104859 119.7500114
  44.2048128  79.6051904 118.4590932  40.6038774  84.3555398 127.0832177
  39.6789270  84.2231612 127.2909869  40.8523187  85.1349617 127.5802120
  44.3740180  81.8982280 120.3676310  44.2539805  82.3439331 121.2061790
  43.6792768  82.2467597 119.8089848  42.1347072  94.6685922 124.0166441
  42.0571102  95.6193747 124.0954921  41.5308716  94.3231794 124.6741367
  50.0725246  82.3703753 121.1956644  50.9843102  82.6031140 121.0204341
  49.5634893  82.9540797 120.6331722  47.4161221  78.5461789 129.4446504
  46.5545700  78.8443043 129.7363242  47.4423656  78.7632188 128.5127537
  44.2322790  87.0903980 125.8520310  44.6961136  87.3691683 125.0624933
  43.9679588  86.1887424 125.6693401  41.1246871  86.6375461 128.7900073
  41.6948228  87.0662729 128.1517558  41.7154983  86.3558046 129.4884259
  43.1691676  83.2127132 122.6609875  43.8715720  83.6648176 123.1283802
  42.8372305  82.5710951 123.2889768  36.9117010  81.4710685 127.9627009
  36.1216064  81.7268213 127.4867119  37.4028258  82.2859022 128.0679049
  38.8631756  81.8355264 124.9210486  38.0662919  81.9473958 125.4393981
  38.6357348  82.1741916 124.0551376  44.4085441  90.0268075 122.7371980
  44.2731116  90.8719610 123.1656828  44.9495253  90.2287352 121.9737914
  37.8614838  87.5443513 123.3099906  38.3739359  88.3386763 123.4605470
  38.5137551  86.8469803 123.2433507  39.6709723  90.6609269 125.3922659
  39.8476351  91.5827234 125.2043643  40.4666557  90.3467688 125.8217039
  47.7577905  73.5498636 131.2670874  47.4142174  74.4400278 131.1909985
  48.1256867  73.3600294 130.4040459  35.8263755  85.8732167 124.0859476
  36.6638977  86.2829175 123.8693184  36.0042023  84.9331609 124.0559670
  47.7228187  83.5407248 119.7743309  47.2074811  84.3111852 120.0131696
  47.4505496  82.8672384 120.3976371  45.3075298  78.3856948 124.8328547
  44.4516895  77.9963799 124.6534186  45.7202250  78.4648909 123.9728333
  46.8374445  75.9203292 129.2320107  46.3339241  75.8833427 128.4187912
  47.1305052  76.8296034 129.2916764  43.0817331  76.0042021 128.2386289
  43.9470328  75.8084830 127.8792178  43.1494840  75.7752373 129.1655646
  52.6962461  86.2939602 121.7096483  51.9191904  85.9550762 121.2651645
  53.3753942  86.2992225 121.0351448  47.5114490  81.4134340 121.6003090
  47.2064626  81.7280489 122.4513233  48.4644933  81.4915759 121.6430423
  45.9560922  87.5724563 123.2496044  45.4282284  86.8377323 122.9369282
  45.4548425  88.3499239 123.0036013  40.6879650  78.2344229 125.6102656
  41.2623402  78.0119411 124.8775849  41.2750632  78.3032924 126.3631257
  49.7459227  84.1217956 126.4167032  50.2591109  84.7547948 126.9188742
  50.3960451  83.5219152 126.0510392  41.0149237  80.2648690 119.6298541
  40.1786549  80.6023377 119.9507816  40.8754007  80.1297670 118.6925678
  42.9902318  75.1085478 124.3377725  42.3366730  74.7934495 123.7134340
  42.9482792  74.4861219 125.0637548  44.1013522  85.3904773 116.2531017
  43.1940584  85.1594027 116.4522166  44.5984554  84.5942392 116.4404999
  47.0081601  94.1002280 119.1727703  46.3343300  94.4033977 119.7812661
  47.3947423  94.9031361 118.8233160  46.2240058  81.5967412 128.6625373
  45.3062619  81.8182359 128.5047061  46.6400202  81.6713722 127.8037080
  47.0075106  82.9958827 123.7928053  47.7546925  83.5080225 123.4835175
  47.2766695  82.6742880 124.6532447  45.2801756  85.4917368 120.7755007
  44.3712975  85.2076401 120.8727477  45.3096840  85.9116447 119.9158314
  49.4553943  80.0315944 125.7746842  48.7176700  79.5193330 126.1057085
  49.7080716  79.5916325 124.9630119  49.5565570  72.8092196 126.3688612
  49.8624447  71.9489559 126.0814527  50.2818175  73.4009816 126.1687606
  35.8489926  83.2122882 124.7570210  35.6514326  82.6192243 124.0321276
  35.2936590  82.9075092 125.4746148  43.8286650  83.1045989 126.8764803
  43.8835260  82.1519825 126.8007279  43.0177852  83.2605428 127.3606101
  44.9777844  87.0326112 118.1143086  44.5397274  86.3161971 117.6548723
  45.7188285  87.2602227 117.5528177  41.7679010  81.7223048 124.6355182
  40.9546875  82.0217219 125.0420374  42.2638004  81.3278737 125.3529664
  53.0950958  85.3083309 124.1719404  52.9568857  85.4984905 123.2440594
  52.7387177  86.0702692 124.6287456  41.2593085  79.2941404 130.2516417
  41.8992464  79.1530163 129.5539380  40.4270615  79.0075917 129.8755019
  42.0353389  88.5943834 126.3651409  42.8293987  88.0994154 126.1633984
  41.3245081  88.0661697 126.0019115  38.3436152  82.7386916 122.4411162
  37.4133740  82.6771372 122.6581124  38.4393624  82.2162869 121.6447803
  38.2621701  79.2641729 125.0289403  38.5228518  80.1787062 124.9198564
  39.0838873  78.7966171 125.1786016  45.2072817  94.2681953 121.3874783
  45.3824572  93.7969996 122.2020405  44.5205605  94.8947719 121.6156043
  49.0989071  85.8910493 117.7075144  48.4818242  85.1657322 117.6108196
  48.6305560  86.6519854 117.3642218  40.8887617  80.1095918 116.8296448
  40.0117084  79.9884718 116.4658694  41.3645370  79.3181996 116.5775336
  44.0751543  92.4622208 124.0758968  43.2919065  93.0043888 124.1697193
  44.7744288  92.9796188 124.4753209  47.3848193  78.2716837 126.7193174
  47.8816893  77.5186800 126.3994244  46.6135175  78.3081154 126.1536383
  48.4677974  87.0288525 124.2931597  47.5334253  87.1489987 124.1236301
  48.6454643  86.1260991 124.0291607  43.9683162  80.4134220 126.4464858
  43.5980950  79.8605261 127.1345764  44.4642255  79.8092354 125.8939858
  51.8550525  82.8705844 124.8281631  52.3210978  83.7033836 124.7541934
  52.3058026  82.4050826 125.5326890  49.9226757  89.2149665 121.8267783
  50.1986600  89.1006260 122.7361657  49.0531255  88.8167150 121.7879956
  49.8267188  75.2386431 128.8672533  48.9130268  75.4690658 129.0354739
  50.2560290  75.3224875 129.7186565  46.8922986  92.3904201 122.7315645
  47.4210752  91.8796656 122.1185807  47.1551206  92.0746731 123.5961178
  39.3648496  77.8238211 132.6917964  39.4289822  78.6853042 132.2795362
  39.3015616  77.2112213 131.9590323  35.6166311  81.7037773 122.2709353
  35.9119752  80.7948451 122.2176407  34.7154347  81.6825512 121.9490356
  39.1460558  79.7793769 128.2536902  38.4247144  80.3929737 128.1144375
  39.9353814  80.3151534 128.1753548  37.3454153  79.3851871 122.3948679
  37.0166859  78.5049249 122.2123785  37.6993523  79.3299539 123.2825068
  40.4595976  79.6724840 122.7624156  40.7992048  80.2010762 122.0402765
  40.9068096  80.0105246 123.5382723  43.1539417  78.0561891 132.2127224
  42.8136237  77.2569704 132.6147904  42.4478423  78.3563602 131.6404058
  43.8055888  75.1411204 130.6654547  44.6281958  74.6671682 130.5433438
  44.0493952  75.9201687 131.1653234  42.4464123  78.1699462 120.9617449
  43.1672485  78.5480715 120.4581166  41.8229427  78.8888339 121.0652427
  46.5895246  78.8744611 121.8975781  46.8058860  79.7569249 121.5964610
  46.1089313  78.4830824 121.1681423  41.3294467  81.8330324 128.4746526
  41.1839048  82.1470627 129.3670807  40.8519671  82.4515224 127.9217425
  43.1890850  78.8232872 128.5227416  43.1752419  77.9273965 128.1859713
  43.9063278  78.8303536 129.1565702  45.0416981  79.2570212 130.5680543
  44.7834759  80.1787283 130.5664873  44.5102021  78.8600647 131.2581007
  42.5927746  77.7047252 123.7914986  42.7143657  76.7763899 123.9905873
  42.3029788  77.7185938 122.8793301  45.4618936  75.3902163 126.9281706
  45.4840633  75.4541496 125.9733685  45.8786995  74.5506672 127.1222212
  50.9738342  91.6787764 120.4467527  51.6689247  92.2994457 120.6654841
  51.3161492  90.8283115 120.7219905  52.8729765  89.1287469 121.9754857
  53.3981089  89.4674742 121.2504177  52.7852118  88.1934485 121.7917992
  41.5657805  89.2901385 121.8830873  41.7145925  89.9736850 121.2297546
  42.3724248  89.2706475 122.3980329  39.3210438  85.3166563 122.8891942
  39.0756480  84.4128893 123.0872152  39.4906353  85.3183713 121.9471420
  47.0107148  76.1890239 132.2716697  47.5289092  76.9251266 131.9463186
  46.6562281  76.4954232 133.1063456  38.5906086  81.0494920 120.3878103
  37.8975330  81.1239275 119.7318139  38.3457837  80.2855264 120.9099620
  47.2619742  72.6090522 127.7917594  47.5421496  71.9413711 128.4178020
  48.0470349  72.8019617 127.2792258  45.0653211  91.7849516 119.3542620
  44.4927178  92.4039703 118.9013092  45.6386004  92.3348877 119.8882542
  48.2850470  92.0686666 120.4851202  49.2181143  92.0032227 120.6884078
  48.1973683  92.9042933 120.0265735  50.9138487  91.3852536 117.4455150
  50.8352119  91.0512400 118.3390908  51.7348154  91.8774304 117.4446622
  45.4500009  83.1210328 116.6958673  46.3959114  82.9916536 116.7647091
  45.0714254  82.3824990 117.1728101  51.4221894  74.7866334 126.6585565
  51.2246715  74.4781423 127.5428896  52.0321599  75.5127973 126.7883494
  43.6342926  81.0460305 116.6313558  42.7274382  80.7493417 116.7076272
  43.9118907  80.7490123 115.7647844  45.2504992  75.5897194 122.7857799
  44.4405720  75.2444279 123.1613045  45.9389409  75.2804738 123.3745411
  47.1795540  74.6675241 124.4082096  47.7326579  75.0870695 125.0672119
  47.4165627  73.7410989 124.4505052  42.4041711  77.9047240 116.7725537
  43.2660875  78.2302138 117.0321354  42.5892055  77.1178736 116.2598603
  50.5574347  76.7775766 123.9160760  49.9773016  77.4360570 123.5338813
  50.2910280  75.9553111 123.5048178  49.0077914  76.1780824 126.1182080
  49.5077692  76.2897359 125.3096399  49.6513522  75.8741877 126.7582889
  49.3399225  78.9375857 122.9717108  48.4525080  79.2225507 122.7537303
  49.7553214  78.7769620 122.1244385  52.6913761  78.9622378 126.6871448
  53.4674152  79.4518830 126.9596064  51.9661896  79.3880432 127.1443317
  55.1286320  79.6749997 127.7445388  55.7230811  79.4345733 127.0338697
  55.2012904  78.9557128 128.3718925  48.4842439  88.7020531 117.0665128
  49.1878289  88.9070534 117.6822784  47.7605088  89.2697293 117.3314212
  49.3140249  84.4530393 123.1867399  49.2575450  84.9098944 122.3475031
  49.8668592  83.6921077 123.0090241  53.1245055  80.2420125 124.0117518
  52.8681989  79.8416760 124.8425726  52.4997923  80.9563918 123.8867657
  50.3929136  89.1403061 119.1163588  51.2274740  88.7084259 118.9341063
  50.2313479  88.9685074 120.0440483  50.0475028  85.6435174 120.4819928
  49.9923832  85.4779445 119.5408372  49.4221084  86.3511207 120.6382117
  43.3571154  75.1443283 120.0605246  43.3449824  76.0885123 120.2173517
  44.2494576  74.9613428 119.7664707  47.1723273  71.7386060 124.3151183
  46.4055669  71.1844546 124.4607865  47.5833978  71.8107928 125.1765335
  51.8542992  95.5940608 119.6298541  51.0180304  95.9315294 119.9507816
  51.7147761  95.4589588 118.6925678  51.7281372  95.4387835 116.8296448
  50.8510838  95.3176636 116.4658694  52.2039125  94.6473914 116.5775336
  49.4299840  96.3786838 120.3878103  48.7369085  96.4531193 119.7318139
  49.1851592  95.6147182 120.9099620  54.4736681  96.3752222 116.6313558
  53.5668136  96.0785335 116.7076272  54.7512662  96.0782040 115.7647844
  53.2435465  93.2339158 116.7725537  54.1054629  93.5594056 117.0321354
  53.4285809  92.4470653 116.2598603  54.1964908  90.4735201 120.0605246
  54.1843578  91.4177041 120.2173517  55.0888330  90.2905346 119.7664707
  25.3294094  40.4480568 105.8973010  24.6555792  40.7512264 106.5057968
  25.7159916  41.2509648 105.5478467  27.4201564  32.2388781 104.4320450
  26.8030734  31.5135609 104.3353503  26.9518052  32.9998141 104.0887524
  29.2950834  38.0266051 107.1712833  29.9901739  38.6472744 107.3900148
  29.6373984  37.1761402 107.4465211  23.3865703  38.1327803 106.0787927
  22.8139670  38.7517990 105.6258399  23.9598496  38.6827164 106.6127849
  26.6062963  38.4164953 107.2096509  27.5393636  38.3510515 107.4129385
  26.5186175  39.2521220 106.7511042  29.2350979  37.7330823 104.1700457
  29.1564611  37.3990687 105.0636215  30.0560646  38.2252591 104.1691929
  26.8054931  35.0498819 103.7910435  27.5090781  35.2548821 104.4068091
  26.0817580  35.6175581 104.0559519  28.7141628  35.4881348 105.8408895
  29.5487232  35.0562546 105.6586370  28.5525971  35.3163362 106.7685790
  37.3425904  46.0050999 115.9364072  37.9804313  45.8857746 115.2327412
  37.2246746  46.9531843 115.9952024  34.1515610  45.9578427 115.8725597
  33.8134121  45.8419492 114.9846131  35.0205378  45.5569592 115.8526603
  30.0102426  47.8113904 111.8622487  29.4467291  47.7203840 111.0938775
  29.8954821  46.9913808 112.3424980  35.5901984  51.4784871 107.1736952
  34.9389964  52.0638952 106.7870966  36.3846347  52.0091066 107.2331990
  29.5157611  48.5674008 107.5724087  30.2888487  48.0202995 107.4336963
  29.8683010  49.4318258 107.7838548  31.8523889  44.7266674 105.2042537
  32.1049410  44.2048196 104.4426000  30.9148448  44.5632820 105.3069220
  36.8967172  43.7302453 113.0117280  37.6830261  43.3121876 112.6607697
  37.1605876  44.6348545 113.1798928  37.0677249  49.1675303 107.7105937
  36.4323082  49.2409930 108.4226841  36.7374656  49.7568902 107.0325016
  42.2975599  43.6677686 113.9150258  43.0300771  43.0976903 114.1488088
  41.5414955  43.2799286 114.3556764  31.5720178  46.6294780 107.4066912
  31.4556436  45.9539684 108.0747996  31.6822438  46.1427154 106.5899065
  33.9151719  46.0904928 111.1113601  33.5509926  45.5635549 111.8226522
  34.7718835  45.7003397 110.9380086  33.5557206  41.1194827 106.1074949
  33.7231608  41.9875064 106.4745420  33.3654375  41.2822109 105.1836239
  36.3132539  49.5811806 117.7740780  36.0133262  50.4836845 117.6656587
  35.9683599  49.3143989 118.6261933  39.7129683  42.0994346 115.4538217
  38.8046560  42.0309755 115.1596978  39.6617279  42.5766291 116.2820043
  33.5346427  43.5752485 107.0921616  33.4146052  44.0209535 107.9307096
  32.8399015  43.9237802 106.5335154  31.2953319  56.3456126 110.7411747
  31.2177349  57.2963952 110.8200228  30.6914962  56.0001999 111.3986674
  39.2331493  44.0473958 107.9201950  40.1449349  44.2801345 107.7449648
  38.7241140  44.6311002 107.3577029  37.8401075  49.0299776 115.3115532
  37.2109938  49.1945490 114.6091600  37.4526737  49.4441386 116.0826496
  41.7190307  49.9654214 112.6659895  41.0341345  50.3453116 112.1156929
  41.8034156  50.5749541 113.3991843  33.3929037  48.7674184 112.5765617
  33.8567383  49.0461887 111.7870239  33.1285835  47.8657629 112.3938707
  32.3297923  44.8897337 109.3855182  33.0321966  45.3418380 109.8529108
  31.9978552  44.2481156 110.0135075  40.0887067  50.4886129 117.4377596
  40.9104510  50.0866316 117.1560278  40.0849470  50.3854363 118.3893712
  48.1793060  46.8324877 113.7862568  47.4256768  46.2632275 113.6306572
  48.3140601  46.7987542 114.7333202  33.5691688  51.7038279 109.4617287
  33.4337363  52.5489815 109.8902135  34.1101500  51.9057557 108.6983221
  27.0221085  49.2213717 110.0345212  27.5345606  50.0156968 110.1850777
  27.6743798  48.5240008 109.9678814  28.8315970  52.3379474 112.1167965
  29.0082598  53.2597438 111.9288949  29.6272803  52.0237893 112.5462345
  29.9547285  53.8557648 118.1178308  30.5054710  53.7274711 117.3455302
  29.1158761  54.1552537 117.7673201  24.9870002  47.5502372 110.8104783
  25.8245224  47.9599380 110.5938490  25.1648270  46.6101814 110.7804977
  36.8834434  45.2177452 106.4988616  36.3681057  45.9882057 106.7377003
  36.6111742  44.5442589 107.1221677  34.4681545  40.0627153 111.5573854
  33.6123141  39.6734004 111.3779493  34.8808497  40.1419114 110.6973640
  41.8568708  47.9709807 108.4341789  41.0798151  47.6320967 107.9896951
  42.5360189  47.9762430 107.7596754  36.6720737  43.0904545 108.3248397
  36.3670873  43.4050694 109.1758540  37.6251179  43.1685964 108.3675730
  35.1167169  49.2494768 109.9741351  34.5888531  48.5147527 109.6614588
  34.6154672  50.0269444 109.7281319  40.0960015  47.4443788 115.0908397
  39.4383690  48.1343050 115.1788526  40.9000414  47.8340220 115.4342384
  38.9065474  45.7988161 113.1412339  39.4197356  46.4318153 113.6434049
  39.5566698  45.1989357 112.7755699  30.1755484  41.9418895 106.3543848
  29.3392796  42.2793582 106.6753122  30.0360253  41.8067875 105.4170985
  33.2619769  47.0674978 102.9776324  32.3546831  46.8364232 103.1767473
  33.7590801  46.2712597 103.1650305  36.1687848  55.7772485 105.8973010
  35.4949547  56.0804182 106.5057968  36.5553670  56.5801566 105.5478467
  36.1681353  44.6729032 110.5173360  36.9153171  45.1850429 110.2080482
  36.4372942  44.3513085 111.3777753  34.4408003  47.1687573 107.5000314
  33.5319222  46.8846606 107.5972784  34.4703086  47.5886652 106.6403621
  39.6727270  50.7794162 111.2691482  39.2189597  49.9385072 111.3256672
  39.0421237  51.4155561 111.6066262  38.6160190  41.7086149 112.4992149
  37.8782946  41.1963535 112.8302392  38.8686963  41.2686530 111.6875426
  38.1160209  52.6170659 112.2041300  38.4083184  53.1775716 111.4853665
  38.6258830  52.9099220 112.9594459  32.9892897  44.7816194 113.6010109
  33.0441507  43.8290030 113.5252586  32.1784099  44.9375633 114.0851408
  34.1384090  48.7096317 104.8388393  33.7003520  47.9932176 104.3794030
  34.8794531  48.9372431 104.2773484  30.9285257  43.3993253 111.3600488
  30.1153122  43.6987424 111.7665680  31.4244251  43.0048942 112.0774970
  33.0793835  53.3951010 113.2934753  33.0370013  53.6211857 112.3643285
  33.9956533  53.1614385 113.4420554  42.2557205  46.9853514 110.8964711
  42.1175104  47.1755110 109.9685900  41.8993424  47.7472897 111.3532762
  42.2826585  49.0530041 115.9075983  42.7163092  48.9605330 116.7559037
  42.9958166  49.0287541 115.2695999  31.1959635  50.2714039 113.0896716
  31.9900234  49.7764359 112.8879291  30.4851328  49.7431902 112.7264421
  36.0154480  52.6532135 117.4409083  36.0691502  53.2223071 118.2086799
  35.1469261  52.8234020 117.0763120  27.5042399  44.4157121 109.1656468
  26.5739987  44.3541576 109.3826430  27.5999871  43.8933074 108.3693110
  43.1442134  49.0953741 118.4408868  43.3378025  49.9999552 118.6868143
  43.0442753  48.6361160 119.2747453  33.7730911  50.8443061 116.7694553
  33.6341997  50.4761846 117.6420491  32.9845508  51.3590701 116.5978511
  34.3679063  55.9452158 108.1120089  34.5430819  55.4740201 108.9265712
  33.6811851  56.5717924 108.3401350  35.3236126  50.2224664 114.1583391
  34.9885959  50.1825434 115.0541040  34.8240072  49.5569380 113.6853801
  38.2595318  47.5680698 104.4320450  37.6424489  46.8427526 104.3353503
  37.7911807  48.3290059 104.0887524  28.9340149  59.0941520 114.8859949
  29.1736747  59.7260045 115.5638968  28.0909345  58.7429561 115.1725309
  30.0493864  41.7866123 103.5541754  29.1723330  41.6654923 103.1904001
  30.5251617  40.9952201 103.3020643  33.4468010  54.9020643 117.2901453
  33.3738182  55.7075614 117.8020758  33.0045404  55.1012609 116.4649475
  33.2357790  54.1392413 110.8004275  32.4525312  54.6814093 110.8942499
  33.9350535  54.6566393 111.1998516  36.5454440  39.9487042 113.4438480
  37.0423140  39.1957005 113.1239551  35.7741422  39.9851359 112.8781690
  44.3984198  45.6527408 115.0856772  44.3874074  46.5352123 114.7150705
  43.5301577  45.2998959 114.8911309  35.9066694  54.8007477 119.4459612
  36.6194666  55.4354942 119.3735514  35.4156723  54.8971343 118.6299614
  37.6284221  48.7058730 111.0176904  36.6940500  48.8260192 110.8481608
  37.8060889  47.8031196 110.7536914  41.0156772  44.5476049 111.5526938
  41.4817224  45.3804041 111.4787241  41.4664273  44.0821030 112.2572196
  39.0833003  50.8919870 108.5513090  39.3592847  50.7776465 109.4606964
  38.2137502  50.4937355 108.5125263  35.7187067  55.1406221 112.1945904
  35.9009462  54.3227877 112.6573656  36.5420053  55.3573913 111.7570794
  36.0529233  54.0674406 109.4560952  36.5816999  53.5566861 108.8431114
  36.3157452  53.7516936 110.3206485  29.4084981  55.1189523 112.2158728
  28.7395356  55.6035650 111.7322768  29.2697850  55.3658743 113.1302106
  33.5490249  57.1533266 118.8141386  34.1008557  57.3164888 119.5790472
  33.8896443  57.7437704 118.1421411  24.7772558  43.3807978 108.9954660
  25.0725999  42.4718656 108.9421714  23.8760594  43.3595717 108.6735662
  36.6858637  55.1015242 115.8005068  36.5609776  54.3004982 115.2916014
  37.3437728  55.5961435 115.3119038  38.7493545  52.9024262 117.4284619
  37.8023881  52.7829613 117.3562945  39.0976318  52.0146760 117.5110880
  26.5060399  41.0622075 109.1193985  26.1773106  40.1819454 108.9369091
  26.8599770  41.0069744 110.0070374  35.7539978  52.6976978 113.6288971
  35.6064941  51.7693686 113.8096541  36.5793472  52.7197069 113.1446046
  29.6202223  41.3495045 109.4869463  29.9598295  41.8780967 108.7648071
  30.0674343  41.6875451 110.2628029  39.3574100  53.5205537 114.7153844
  40.2820648  53.3148398 114.5778295  39.1889404  53.2721938 115.6243185
  31.6070370  39.8469667 107.6862756  32.3278732  40.2250920 107.1826473
  30.9835674  40.5658544 107.7897734  35.7501493  40.5514816 108.6221088
  35.9665107  41.4339454 108.3209916  35.2695560  40.1601029 107.8926730
  39.1469416  54.0391204 110.0715935  39.3206294  53.4737627 109.3189787
  39.6398308  54.8392099 109.8895425  31.7533993  39.3817457 110.5160292
  31.8749904  38.4534104 110.7151180  31.4636035  39.3956143 109.6038608
  45.0008808  46.8027627 111.6906235  45.4439954  46.0534953 111.2925358
  44.1235318  46.7937764 111.3079967  40.1344589  53.3557969 107.1712833
  40.8295493  53.9764661 107.3900148  40.4767739  52.5053320 107.4465211
  42.0336012  50.8057674 108.7000164  42.5587336  51.1444947 107.9749484
  41.9458365  49.8704690 108.5163299  33.7176673  56.8729658 113.0595417
  33.2781663  56.3806036 113.7528274  34.4684790  56.3302625 112.8187492
  26.1969012  53.0641198 113.0620045  27.0227032  52.7644970 112.6818689
  25.8463064  52.2948821 113.5109834  31.1650545  52.4167667 115.1317719
  30.5430554  51.7538372 114.8319947  31.8355412  52.4428799 114.4491367
  24.3977617  50.9827525 114.0208979  23.5609525  50.5549699 113.8392980
  24.3701262  51.1759968 114.9579770  30.7264052  50.9671590 108.6076179
  30.8752172  51.6507054 107.9542852  31.5330495  50.9476680 109.1225635
  43.3445990  50.7079986 121.5626112  43.0530798  51.0709966 122.3989573
  42.7318121  49.9946994 121.3839444  44.5441672  48.2732866 114.0828682
  45.3788564  48.7122670 114.2466243  44.6800801  47.7971519 113.2636928
  28.4816685  46.9936768 109.6137248  28.2362727  46.0899098 109.8117458
  28.6512599  46.9953918 108.6716726  27.7512332  42.7265125 107.1123410
  27.0581577  42.8009480 106.4563446  27.5064084  41.9625469 107.6344927
  34.2259457  53.4619720 106.0787927  33.6533424  54.0809908 105.6258399
  34.7992251  54.0119082 106.6127849  37.4456717  53.7456871 107.2096509
  38.3787390  53.6802432 107.4129385  37.3579930  54.5813137 106.7511042
  42.7722925  45.9284480 117.3776775  42.7399245  44.9900481 117.5636459
  43.3823549  46.0068517 116.6442600  34.6106256  44.7980533 103.4203979
  35.5565361  44.6686741 103.4892397  34.2320501  44.0595195 103.8973408
  48.5899475  46.9900487 116.5182812  49.3202863  46.7285775 117.0790515
  47.9806420  46.2529209 116.5584880  46.6714772  45.1308350 117.1157263
  45.9447935  44.9964315 116.5073755  46.2562059  45.4385178 117.9213981
  32.7949173  42.7230510 103.3558865  31.8880628  42.4263622 103.4321578
  33.0725154  42.4260328 102.4893151  34.4111239  37.2667399 109.5103106
  33.6011967  36.9214484 109.8858352  35.0995656  36.9574943 110.0990717
  31.5647958  39.5817445 103.4970844  32.4267122  39.9072343 103.7566661
  31.7498302  38.7948941 102.9843910  39.7180594  38.4545971 110.6406067
  39.1379263  39.1130775 110.2584119  39.4516527  37.6323316 110.2293484
  38.5005472  40.6146062 109.6962415  37.6131327  40.8995712 109.4782610
  38.9159461  40.4539825 108.8489692  41.8520008  40.6392583 113.4116754
  42.6280398  41.1289035 113.6841371  41.1268142  41.0650637 113.8688624
  44.2892567  41.3520202 114.4690695  44.8837058  41.1115938 113.7584003
  44.3619151  40.6327332 115.0964231  26.5089723  55.1953813 114.7833860
  26.3744190  54.4354214 114.2171858  26.0921785  55.9194713 114.3162649
  38.4746496  46.1300598 109.9112705  38.4181697  46.5869149 109.0720338
  39.0274838  45.3691282 109.7335548  42.2851302  41.9190329 110.7362825
  42.0288236  41.5186965 111.5671032  41.6604170  42.6334123 110.6112964
  46.5963640  44.6586403 113.2434116  46.0363198  44.7279592 114.0165678
  45.9907143  44.4827387 112.5233612  29.6658848  56.0923130 114.9952302
  29.5491233  57.0368562 114.8930993  28.8451295  55.7896691 115.3838102
  39.5535383  50.8173266 105.8408895  40.3880987  50.3854464 105.6586370
  39.3919726  50.6455279 106.7685790  39.2081275  47.3205379 107.2065234
  39.1530079  47.1549650 106.2653679  38.5827330  48.0281412 107.3627424
  32.5177401  36.8213488 106.7850553  32.5056070  37.7655328 106.9418824
  33.4100822  36.6383633 106.4910014  30.6913363  56.7451392 118.2108231
  31.5940609  56.7775002 118.5274726  30.4650733  55.8151843 118.2254567
  32.4466965  55.4982378 114.8718309  31.4962596  55.4984240 114.7582682
  32.7499451  54.7515113 114.3554344  48.1819658  61.3342917 115.9364072
  48.8198068  61.2149664 115.2327412  48.0640501  62.2823761 115.9952024
  44.9909364  61.2870345 115.8725597  44.6527876  61.1711409 114.9846131
  45.8599133  60.8861510 115.8526603  40.8496180  63.1405821 111.8622487
  40.2861045  63.0495758 111.0938775  40.7348575  62.3205726 112.3424980
  45.4729147  62.4405196 121.8311802  45.4617788  62.0457995 120.9592306
  45.6349787  61.7071269 122.4245574  38.3960612  64.6357013 114.7006708
  39.1881904  64.2947837 114.2853007  38.6357262  64.7451988 115.6208861
  46.4295739  66.8076789 107.1736952  45.7783718  67.3930869 106.7870966
  47.2240102  67.3382984 107.2331990  40.3551366  63.8965926 107.5724087
  41.1282242  63.3494913 107.4336963  40.7076765  64.7610175 107.7838548
  42.1936408  65.2242308 120.7790986  41.9026274  66.1287939 120.6637652
  42.8293393  65.2658836 121.4935056  43.1192615  62.6019157 117.3692346
  43.7156188  62.3775179 116.6549309  43.1767587  61.8603902 117.9717794
  47.7360927  59.0594371 113.0117280  48.5224016  58.6413794 112.6607697
  47.9999631  59.9640463 113.1798928  47.9071004  64.4967221 107.7105937
  47.2716837  64.5701847 108.4226841  47.5768410  65.0860820 107.0325016
  53.1369354  58.9969604 113.9150258  53.8694526  58.4268821 114.1488088
  52.3808709  58.6091204 114.3556764  42.4113932  61.9586698 107.4066912
  42.2950191  61.2831601 108.0747996  42.5216192  61.4719072 106.5899065
  44.7545473  61.4196845 111.1113601  44.3903681  60.8927466 111.8226522
  45.6112589  61.0295314 110.9380086  50.6594774  52.7091178 118.3744867
  50.3278099  53.5786589 118.1506082  50.0640387  52.3927462 119.0538897
  44.3950960  56.4486745 106.1074949  44.5625363  57.3166981 106.4745420
  44.2048129  56.6114027 105.1836239  47.1526294  64.9103724 117.7740780
  46.8527017  65.8128763 117.6656587  46.8077353  64.6435907 118.6261933
  40.6038775  61.3617521 113.8077484  39.6789271  61.2293735 114.0155176
  40.8523188  62.1411740 114.3047427  50.5523437  57.4286264 115.4538217
  49.6440315  57.3601672 115.1596978  50.5011033  57.9058209 116.2820043
  44.3740181  58.9044402 107.0921616  44.2539806  59.3501453 107.9307096
  43.6792770  59.2529720 106.5335154  37.9647586  61.0050794 114.6421273
  38.0939967  61.2585273 115.5560685  37.2845037  61.5978502 114.3225928
  42.1347073  71.6748044 110.7411747  42.0571103  72.6255869 110.8200228
  41.5308717  71.3293917 111.3986674  44.6264303  58.8475910 123.3973114
  43.8497637  59.4069830 123.3875979  45.2654866  59.3332693 123.9187984
  52.4185084  55.6302702 117.2316091  51.7759464  55.9235236 116.5855886
  51.9140012  55.5155623 118.0369288  50.0725247  59.3765876 107.9201950
  50.9843103  59.6093262 107.7449648  49.5634894  59.9602920 107.3577029
  42.8810675  61.6561363 122.9591081  43.6225360  62.1946407 122.6825905
  42.1747661  62.2827652 123.1162633  48.3566015  63.7990503 121.5563243
  48.7649371  63.3572914 120.8117875  47.6343277  63.2243131 121.8097436
  44.7097085  58.7363110 118.9296800  45.5558280  59.1602524 119.0731449
  44.6495723  58.0796734 119.6235363  48.6794830  64.3591694 115.3115532
  48.0503692  64.5237408 114.6091600  48.2920492  64.7733304 116.0826496
  52.5584062  65.2946132 112.6659895  51.8735100  65.6745033 112.1156929
  52.6427911  65.9041459 113.3991843  47.8596530  56.3967479 120.5877973
  47.6157462  57.1509539 120.0512249  48.1356461  56.7752826 121.4225220
  49.8134993  62.9406091 119.2655239  50.0251888  63.5837851 118.5889620
  49.7664741  62.1068407 118.7977169  47.4161222  55.5523912 116.1691811
  46.5545701  55.8505165 116.4608549  47.4423657  55.7694310 115.2372844
  44.2322792  64.0966102 112.5765617  44.6961137  64.3753805 111.7870239
  43.9679590  63.1949547 112.3938707  41.1246873  63.6437584 115.5145380
  41.6948230  64.0724852 114.8762865  41.7154984  63.3620168 116.2129566
  43.1691678  60.2189254 109.3855182  43.8715721  60.6710298 109.8529108
  42.8372306  59.5773073 110.0135075  41.6172039  58.8101011 123.7606391
  40.9870700  59.4917292 123.9941788  41.5108127  58.6984093 122.8159530
  36.9117012  58.4772807 114.6872315  36.1216066  58.7330336 114.2112426
  37.4028259  59.2921145 114.7924356  50.9280821  65.8178046 117.4377596
  51.7498265  65.4158234 117.1560278  50.9243224  65.7146280 118.3893712
  38.8631757  58.8417386 111.6455792  38.0662920  58.9536081 112.1639288
  38.6357349  59.1804039 110.7796683  44.6937425  65.3662090 119.5938307
  44.7581857  65.8282497 120.4296479  43.9848348  64.7359455 119.7220617
  35.1954715  58.7303298 117.1187306  35.4462753  59.6150308 117.3844882
  35.7314263  58.5507899 116.3462398  59.0186814  62.1616795 113.7862568
  58.2650523  61.5924193 113.6306572  59.1534355  62.1279459 114.7333202
  44.4085442  67.0330197 109.4617287  44.2731117  67.8781733 109.8902135
  44.9495255  67.2349475 108.6983221  37.8614840  64.5505635 110.0345212
  38.3739360  65.3448885 110.1850777  38.5137552  63.8531926 109.9678814
  39.6709724  67.6671391 112.1167965  39.8476353  68.5889356 111.9288949
  40.4666558  67.3529811 112.5462345  43.8120743  54.5279656 123.7151899
  44.5530456  55.1286809 123.6356361  44.0438666  53.7857294 123.1569941
  38.9562081  59.7136023 121.9930129  38.8415596  58.8121281 122.2937228
  38.1006599  59.9599720 121.6414945  46.0353919  67.6553764 123.5917629
  45.5917773  66.8690142 123.2738534  46.6971132  67.8432914 122.9261520
  40.7941040  69.1849565 118.1178308  41.3448465  69.0566629 117.3455302
  39.9552516  69.4844454 117.7673201  48.1335157  67.9356564 121.6199030
  48.1153632  68.7565445 121.1279300  49.0555077  67.8110639 121.8449172
  44.5908211  65.4500693 122.4622539  45.1236548  64.6888981 122.2321847
  44.0622292  65.1574345 123.2046693  47.7577906  50.5560759 117.9916181
  47.4142175  51.4462401 117.9155291  48.1256868  50.3662417 117.1285766
  35.8263756  62.8794289 110.8104783  36.6638978  63.2891298 110.5938490
  36.0042024  61.9393732 110.7804977  47.7228189  60.5469370 106.4988616
  47.2074812  61.3173975 106.7377003  47.4505497  59.8734506 107.1221677
  45.3075300  55.3919071 111.5573854  44.4516896  55.0025921 111.3779493
  45.7202251  55.4711032 110.6973640  46.8374446  52.9265414 115.9565414
  46.3339242  52.8895549 115.1433219  47.1305053  53.8358157 116.0162071
  43.0817332  53.0104144 114.9631596  43.9470329  52.8146953 114.6037485
  43.1494841  52.7814496 115.8900952  52.6962463  63.3001725 108.4341789
  51.9191905  62.9612884 107.9896951  53.3753944  63.3054348 107.7596754
  47.5114492  58.4196462 108.3248397  47.2064627  58.7342611 109.1758540
  48.4644934  58.4977882 108.3675730  45.9560924  64.5786686 109.9741351
  45.4282285  63.8439445 109.6614588  45.4548426  65.3561362 109.7281319
  50.9353770  62.7735706 115.0908397  50.2777444  63.4634967 115.1788526
  51.7394169  63.1632138 115.4342384  40.6879651  55.2406352 112.3347962
  41.2623403  55.0181533 111.6021155  41.2750634  55.3095046 113.0876564
  49.7459228  61.1280079 113.1412339  50.2591110  61.7610071 113.6434049
  50.3960452  60.5281274 112.7755699  41.0149238  57.2710813 106.3543848
  40.1786551  57.6085499 106.6753122  40.8754008  57.1359793 105.4170985
  42.9902319  52.1147601 111.0623032  42.3366731  51.7996618 110.4379647
  42.9482793  51.4923341 111.7882855  47.0081603  71.1064403 105.8973010
  46.3343301  71.4096100 106.5057968  47.3947425  71.9093483 105.5478467
  46.2240059  58.6029534 115.3870679  45.3062621  58.8244481 115.2292368
  46.6400203  58.6775845 114.5282387  47.0075107  60.0020950 110.5173360
  47.7546926  60.5142347 110.2080482  47.2766697  59.6805003 111.3777753
  45.2801757  62.4979491 107.5000314  44.3712976  62.2138523 107.5972784
  45.3096841  62.9178569 106.6403621  50.5121025  66.1086080 111.2691482
  50.0583352  65.2676990 111.3256672  49.8814991  66.7447479 111.6066262
  49.4553944  57.0378066 112.4992149  48.7176701  56.5255452 112.8302392
  49.7080718  56.5978448 111.6875426  48.9553964  67.9462577 112.2041300
  49.2476938  68.5067634 111.4853665  49.4652584  68.2391138 112.9594459
  49.5565571  49.8154318 113.0933918  49.8624448  48.9551682 112.8059833
  50.2818176  50.4071938 112.8932912  35.8489928  60.2185005 111.4815516
  35.6514327  59.6254365 110.7566583  35.2936592  59.9137215 112.1991455
  43.8286651  60.1108111 113.6010109  43.8835261  59.1581948 113.5252586
  43.0177853  60.2667550 114.0851408  41.7679011  58.7285171 111.3600488
  40.9546877  59.0279342 111.7665680  42.2638005  58.3340860 112.0774970
  43.9187589  68.7242928 113.2934753  43.8763768  68.9503774 112.3643285
  44.8350288  68.4906303 113.4420554  47.3653223  59.1926995 120.1915382
  47.7202611  59.4198469 121.0509848  48.0125354  59.5245372 119.5692637
  53.0950960  62.3145431 110.8964711  52.9568858  62.5047027 109.9685900
  52.7387179  63.0764814 111.3532762  41.2593086  56.3003527 116.9761723
  41.8992465  56.1592286 116.2784686  40.4270616  56.0138040 116.6000325
  53.1220339  64.3821958 115.9075983  53.5556846  64.2897247 116.7559037
  53.8351920  64.3579459 115.2695999  42.0353390  65.6005957 113.0896716
  42.8293988  65.1056277 112.8879291  41.3245082  65.0723820 112.7264421
  46.8548234  67.9824052 117.4409083  46.9085257  68.5514989 118.2086799
  45.9863016  68.1525938 117.0763120  38.3436153  59.7449039 109.1656468
  37.4133741  59.6833494 109.3826430  38.4393625  59.2224991 108.3693110
  38.2621702  56.2703852 111.7534710  38.5228520  57.1849185 111.6443870
  39.0838875  55.8028294 111.9031323  39.7346628  57.6841609 118.9233535
  40.4069681  57.4758971 118.2746183  38.9076414  57.4863695 118.4838767
  53.9835889  64.4245659 118.4408868  54.1771779  65.3291470 118.6868143
  53.8836507  63.9653078 119.2747453  45.6372200  54.3103550 120.9399195
  44.9900115  55.0093499 120.8463672  46.4073215  54.7439694 121.3075444
  49.0450998  64.5752402 124.0149749  48.8936504  64.3462953 123.0979832
  49.0355677  65.5323003 124.0281094  45.8136334  62.1484315 118.9996015
  46.7428394  62.2995474 118.8264982  45.3927364  62.2368335 118.1444662
  44.6124666  66.1734979 116.7694553  44.4735751  65.8053763 117.6420491
  43.8239262  66.6882618 116.5978511  45.2072818  71.2744075 108.1120089
  45.3824573  70.8032119 108.9265712  44.5205606  71.9009842 108.3401350
  46.1629881  65.5516582 114.1583391  45.8279714  65.5117352 115.0541040
  45.6633827  64.8861298 113.6853801  40.1374125  60.9584212 119.6835972
  39.9993923  60.2264450 120.2847511  41.0479048  60.8693112 119.4020159
  42.7656426  60.6704171 119.1719651  43.4756044  60.0297363 119.1306270
  42.7225734  60.9217066 120.0945832  50.7543204  67.6071524 122.0926231
  50.6955750  66.9230744 121.4256814  51.1562723  68.3490514 121.6406857
  41.4785360  57.6569389 120.9915291  40.9422717  57.2060127 121.6436887
  40.8902068  57.7915298 120.2485755  39.7733903  74.4233438 114.8859949
  40.0130501  75.0551962 115.5638968  38.9303100  74.0721478 115.1725309
  50.7560612  65.5711108 120.3240210  49.8687390  65.2337030 120.4466609
  51.3259163  64.8394139 120.5608976  32.4089759  61.9035200 113.6483262
  33.0960798  61.5896930 113.0604277  32.2537887  62.8076565 113.3750513
  37.2124481  56.7925397 118.0768285  37.1282670  56.1851066 117.3418695
  36.3907187  57.2834415 118.0777782  44.2861765  70.2312561 117.2901453
  44.2131936  71.0367532 117.8020758  43.8439158  70.4304526 116.4649475
  44.0751545  69.4684331 110.8004275  43.2919066  70.0106011 110.8942499
  44.7744290  69.9858310 111.1998516  47.3848195  55.2778960 113.4438480
  47.8816894  54.5248922 113.1239551  46.6135176  55.3143277 112.8781690
  55.2377952  60.9819326 115.0856772  55.2267828  61.8644041 114.7150705
  54.3695331  60.6290876 114.8911309  46.7460448  70.1299395 119.4459612
  47.4588421  70.7646859 119.3735514  46.2550477  70.2263261 118.6299614
  48.4677975  64.0350647 111.0176904  47.5334254  64.1552110 110.8481608
  48.6454644  63.1323114 110.7536914  43.9683163  57.4196343 113.1710165
  43.5980951  56.8667383 113.8591071  44.4642256  56.8154477 112.6185165
  51.8550527  59.8767967 111.5526938  52.3210979  60.7095958 111.4787241
  52.3058027  59.4112948 112.2572196  41.7972362  67.8793838 120.2665183
  42.4981821  68.5130321 120.4194577  41.3267477  68.2208570 119.5060822
  49.9226758  66.2211788 108.5513090  50.1986602  66.1068382 109.4606964
  49.0531257  65.8229273 108.5125263  49.8267189  52.2448554 115.5917839
  48.9130269  52.4752780 115.7600046  50.2560291  52.3286998 116.4431872
  49.5973648  60.4338446 118.0917733  48.9445098  60.6814353 117.4370186
  49.9754028  59.6202584 117.7580211  46.5580822  70.4698139 112.1945904
  46.7403216  69.6519795 112.6573656  47.3813808  70.6865831 111.7570794
  46.8922987  69.3966324 109.4560952  47.4210754  68.8858778 108.8431114
  47.1551207  69.0808854 110.3206485  45.6461221  61.1758257 124.5783770
  44.9701858  61.0752386 125.2486146  46.4688855  61.0197470 125.0419768
  37.3940080  67.4130193 117.1996286  37.9793517  66.6673881 117.3324190
  37.1964918  67.7234150 118.0832949  40.2478735  70.4481441 112.2158728
  39.5789111  70.9327568 111.7322768  40.1091605  70.6950661 113.1302106
  31.9857735  59.9835793 115.9200729  32.0241834  59.4499384 116.7137847
  31.4798028  59.4570999 115.3011706  44.3884004  72.4825184 118.8141386
  44.9402312  72.6456806 119.5790472  44.7290197  73.0729622 118.1421411
  39.3648497  54.8300334 119.4163271  39.4289824  55.6915165 119.0040669
  39.3015617  54.2174336 118.6835630  38.8400770  56.9023466 123.0636305
  39.4672808  56.5200544 123.6773830  37.9828688  56.6837668 123.4291998
  49.2394878  67.3086442 124.6690041  49.7834782  67.9216400 124.1744996
  48.6581723  67.8666020 125.1857054  35.6166312  58.7099896 108.9954660
  35.9119753  57.8010574 108.9421714  34.7154348  58.6887635 108.6735662
  47.5252391  70.4307160 115.8005068  47.4003531  69.6296899 115.2916014
  48.1831482  70.9253353 115.3119038  39.1460559  56.7855892 114.9782209
  38.4247145  57.3991860 114.8389682  39.9353815  57.3213657 114.8998855
  49.5887299  68.2316180 117.4284619  48.6417635  68.1121531 117.3562945
  49.9370073  67.3438678 117.5110880  41.9486873  54.1210319 121.2522860
  42.4721275  54.3672615 122.0149170  41.7299206  54.9530353 120.8325998
  37.3454154  56.3913993 109.1193985  37.0166860  55.5111372 108.9369091
  37.6993525  56.3361662 110.0070374  46.5933733  68.0268896 113.6288971
  46.4458695  67.0985603 113.8096541  47.4187226  68.0488987 113.1446046
  40.4595977  56.6786963 109.4869463  40.7992050  57.2072884 108.7648071
  40.9068098  57.0167369 110.2628029  50.1967855  68.8497455 114.7153844
  51.1214402  68.6440316 114.5778295  50.0283158  68.6013856 115.6243185
  43.1539418  55.0624014 118.9372531  42.8136238  54.2631827 119.3393211
  42.4478424  55.3625725 118.3649364  43.8055890  52.1473326 117.3899854
  44.6281959  51.6733804 117.2678744  44.0493953  52.9263810 117.8898540
  42.4464124  55.1761585 107.6862756  43.1672487  55.5542837 107.1826473
  41.8229428  55.8950461 107.7897734  46.5895247  55.8806734 108.6221088
  46.8058861  56.7631371 108.3209916  46.1089314  55.4892947 107.8926730
  41.3294468  58.8392447 115.1991833  41.1839049  59.1532750 116.0916114
  40.8519672  59.4577347 114.6462731  43.1890851  55.8294995 115.2472722
  43.1752420  54.9336088 114.9105020  43.9063279  55.8365658 115.8811008
  45.0416982  56.2632335 117.2925850  44.7834760  57.1849406 117.2910180
  44.5102022  55.8662769 117.9826314  49.9863171  69.3683122 110.0715935
  50.1600048  68.8029545 109.3189787  50.4792062  70.1684017 109.8895425
  35.8040131  61.3797791 118.1379494  35.2593599  62.1557599 118.2699768
  36.6819481  61.7268596 117.9798615  42.5927747  54.7109375 110.5160292
  42.7143659  53.7826021 110.7151180  42.3029790  54.7248061 109.6038608
  45.4618938  52.3964285 113.6527012  45.4840635  52.4603619 112.6978992
  45.8786997  51.5568794 113.8467518  55.8402562  62.1319545 111.6906235
  56.2833708  61.3826870 111.2925358  54.9629072  62.1229681 111.3079967
  50.9738343  68.6849886 107.1712833  51.6689248  69.3056579 107.3900148
  51.3161493  67.8345238 107.4465211  36.5906153  60.5067687 121.0309651
  35.8487889  60.6550323 121.6174281  36.2698897  60.7675953 120.1676400
  52.8729766  66.1349592 108.7000164  53.3981091  66.4736865 107.9749484
  52.7852119  65.1996607 108.5163299  44.5349815  70.0483666 120.8290041
  44.8436942  69.8032812 121.7012740  45.3325297  70.2530304 120.3408911
  44.5570427  72.2021575 113.0595417  44.1175417  71.7097954 113.7528274
  45.3078544  71.6594543 112.8187492  37.0362766  68.3933116 113.0620045
  37.8620786  68.0936888 112.6818689  36.6856818  67.6240739 113.5109834
  42.0044299  67.7459584 115.1317719  41.3824309  67.0830289 114.8319947
  42.6749166  67.7720716 114.4491367  35.2371371  66.3119443 114.0208979
  34.4003280  65.8841617 113.8392980  35.2095017  66.5051886 114.9579770
  42.0768827  56.2241372 124.7250225  42.1256982  57.1003495 124.3427995
  42.6191341  55.6818765 124.1521868  52.5623673  66.7682496 124.0051362
  51.7719216  66.7506634 123.4655861  52.3257027  67.3070789 124.7600399
  52.6821548  63.6174962 121.3184091  52.7319553  63.4524969 122.2599613
  52.5735471  62.7502221 120.9281971  41.5657806  66.2963508 108.6076179
  41.7145927  66.9798972 107.9542852  42.3724250  66.2768598 109.1225635
  49.9725310  59.6005890 122.6343397  50.8735173  59.4612355 122.3427395
  50.0473284  59.7660345 123.5741575  44.3068115  56.9772745 121.4796584
  43.4371425  57.2706311 121.2079172  44.5427596  57.5613190 122.2003847
  54.1839744  66.0371904 121.5626112  53.8924553  66.4001884 122.3989573
  53.5711876  65.3238912 121.3839444  55.3835427  63.6024783 114.0828682
  56.2182318  64.0414587 114.2466243  55.5194556  63.1263437 113.2636928
  52.4326933  61.1604518 120.0306170  52.9081054  61.3532164 119.2225021
  51.5092498  61.2163704 119.7849554  39.3210439  62.3228685 109.6137248
  39.0756481  61.4191015 109.8117458  39.4906354  62.3245836 108.6716726
  47.0107149  53.1952362 118.9962004  47.5289093  53.9313389 118.6708493
  46.6562282  53.5016355 119.8308763  38.5906087  58.0557043 107.1123410
  37.8975332  58.1301398 106.4563446  38.3457839  57.2917387 107.6344927
  47.2619743  49.6152644 114.5162901  47.5421497  48.9475833 115.1423327
  48.0470350  49.8081740 114.0037564  45.0653212  68.7911638 106.0787927
  44.4927179  69.4101825 105.6258399  45.6386005  69.3411000 106.6127849
  51.1328602  58.0370278 118.2634476  52.0846025  58.1368376 118.2846700
  50.9632052  57.2448547 118.7732560  49.1542981  55.1225861 118.4493877
  48.5592913  55.4030874 117.7540365  48.8692678  55.6119762 119.2210618
  48.2850472  69.0748788 107.2096509  49.2181145  69.0094350 107.4129385
  48.1973684  69.9105055 106.7511042  53.6116679  61.2576398 117.3776775
  53.5793000  60.3192399 117.5636459  54.2217303  61.3360435 116.6442600
  53.7611168  58.0487441 117.4235059  53.2450217  57.2645898 117.2364987
  54.6451116  57.7206158 117.5881578  51.4221895  51.7928457 113.3830871
  51.2246716  51.4843545 114.2674203  52.0321600  52.5190096 113.5128801
  59.4293229  62.3192405 116.5182812  60.1596618  62.0577693 117.0790515
  58.8200175  61.5821127 116.5584880  57.5108526  60.4600267 117.1157263
  56.7841690  60.3256232 116.5073755  57.0955813  60.7677096 117.9213981
  45.3338703  64.1790197 124.8804636  46.2541712  64.3568796 125.0744683
  45.2988286  63.2346242 124.7284336  34.5520868  59.3728791 113.8057911
  34.2323652  58.5194099 113.5132285  34.0054296  59.5877369 114.5615878
  38.3300775  62.0891232 117.5227418  38.5486785  63.0208340 117.5415451
  38.7426549  61.7299206 118.3082221  45.2504993  52.5959317 109.5103106
  44.4405721  52.2506402 109.8858352  45.9389410  52.2866861 110.0990717
  47.1795541  51.6737364 111.1327403  47.7326580  52.0932817 111.7917426
  47.4165628  50.7473112 111.1750359  34.4209128  62.9931702 115.7751033
  33.7272599  62.5785655 115.2620987  35.1682119  63.0352239 115.1784451
  50.5574349  53.7837889 110.6406067  49.9773018  54.4422693 110.2584119
  50.2910281  52.9615234 110.2293484  49.0077915  53.1842947 112.8427387
  49.5077693  53.2959481 112.0341706  49.6513523  52.8804000 113.4828196
  43.0659911  61.0921576 125.7295228  42.5826992  61.8921936 125.9359117
  43.1520850  61.1029521 124.7762672  36.3345870  62.9249956 113.6517047
  36.3116558  63.0237643 112.6998931  36.6446507  63.7715107 113.9734214
  38.9933248  64.9826111 117.7663662  39.9476502  64.9510053 117.6993593
  38.7945772  64.5216735 118.5813888  39.5832630  63.5527227 120.3334460
  40.4025519  64.0471306 120.3569297  39.8569438  62.6359195 120.3052027
  49.3399227  55.9437979 109.6962415  48.4525082  56.2287630 109.4782610
  49.7553216  55.7831743 108.8489692  52.6913763  55.9684500 113.4116754
  53.4674153  56.4580953 113.6841371  51.9661897  56.3942555 113.8688624
  55.1286321  56.6812120 114.4690695  55.7230812  56.4407856 113.7584003
  55.2012905  55.9619250 115.0964231  37.3483477  70.5245730 114.7833860
  37.2137945  69.7646131 114.2171858  36.9315539  71.2486630 114.3162649
  49.3140250  61.4592515 109.9112705  49.2575452  61.9161067 109.0720338
  49.8668593  60.6983200 109.7335548  53.1245056  57.2482247 110.7362825
  52.8681990  56.8478883 111.5671032  52.4997924  57.9626041 110.6112964
  57.4357394  59.9878320 113.2434116  56.8756952  60.0571510 114.0165678
  56.8300897  59.8119305 112.5233612  40.5052603  71.4215048 114.9952302
  40.3884987  72.3660480 114.8930993  39.6845049  71.1188609 115.3838102
  50.3929137  66.1465183 105.8408895  51.2274741  65.7146382 105.6586370
  50.2313480  65.9747197 106.7685790  50.0475030  62.6497297 107.2065234
  49.9923833  62.4841568 106.2653679  49.4221085  63.3573329 107.3627424
  34.8367545  57.8865361 121.0326657  35.4826408  57.3764315 121.5213882
  34.6284696  58.6234043 121.6070082  47.3620937  64.9546208 126.5318797
  48.2312096  65.1286861 126.1705432  46.8827688  65.7740625 126.4094527
  43.3571155  52.1505406 106.7850553  43.3449825  53.0947245 106.9418824
  44.2494577  51.9675551 106.4910014  41.5307117  72.0743309 118.2108231
  42.4334364  72.1066920 118.5274726  41.3044487  71.1443760 118.2254567
  43.2860719  70.8274296 114.8718309  42.3356350  70.8276158 114.7582682
  43.5893205  70.0807031 114.3554344  47.1723275  48.7448182 111.0396490
  46.4055670  48.1906669 111.1853172  47.5833979  48.8170051 111.9010641
  59.0213413  76.6634834 115.9364072  59.6591822  76.5441582 115.2327412
  58.9034255  77.6115678 115.9952024  55.8303119  76.6162262 115.8725597
  55.4921630  76.5003327 114.9846131  56.6992887  76.2153428 115.8526603
  51.6889934  78.4697739 111.8622487  51.1254800  78.3787676 111.0938775
  51.5742330  77.6497643 112.3424980  56.3122902  77.7697114 121.8311802
  56.3011543  77.3749912 120.9592306  56.4743541  77.0363187 122.4245574
  49.2354366  79.9648930 114.7006708  50.0275658  79.6239755 114.2853007
  49.4751017  80.0743906 115.6208861  57.2689493  82.1368707 107.1736952
  56.6177473  82.7222787 106.7870966  58.0633856  82.6674901 107.2331990
  51.1945120  79.2257844 107.5724087  51.9675996  78.6786831 107.4336963
  51.5470519  80.0902093 107.7838548  53.0330163  80.5534226 120.7790986
  52.7420029  81.4579857 120.6637652  53.6687147  80.5950754 121.4935056
  53.9586370  77.9311074 117.3692346  54.5549942  77.7067097 116.6549309
  54.0161341  77.1895820 117.9717794  53.5311398  75.3850510 105.2042537
  53.7836919  74.8632031 104.4426000  52.5935957  75.2216655 105.3069220
  58.5754681  74.3886288 113.0117280  59.3617770  73.9705711 112.6607697
  58.8393385  75.2932380 113.1798928  58.7464758  79.8259138 107.7105937
  58.1110591  79.8993765 108.4226841  58.4162165  80.4152737 107.0325016
  63.9763108  74.3261521 113.9150258  64.7088280  73.7560738 114.1488088
  63.2202464  73.9383122 114.3556764  53.2507687  77.2878616 107.4066912
  53.1343945  76.6123519 108.0747996  53.3609947  76.8010990 106.5899065
  55.5939228  76.7488763 111.1113601  55.2297435  76.2219384 111.8226522
  56.4506344  76.3587232 110.9380086  61.4988528  68.0383095 118.3744867
  61.1671853  68.9078506 118.1506082  60.9034142  67.7219379 119.0538897
  55.2344715  71.7778663 106.1074949  55.4019117  72.6458899 106.4745420
  55.0441884  71.9405944 105.1836239  57.9920048  80.2395641 117.7740780
  57.6920771  81.1420680 117.6656587  57.6471108  79.9727825 118.6261933
  51.4432529  76.6909438 113.8077484  50.5183026  76.5585652 114.0155176
  51.6916943  77.4703658 114.3047427  61.3917192  72.7578182 115.4538217
  60.4834069  72.6893590 115.1596978  61.3404788  73.2350127 116.2820043
  55.2133936  74.2336320 107.0921616  55.0933561  74.6793371 107.9307096
  54.5186524  74.5821638 106.5335154  48.8041341  76.3342712 114.6421273
  48.9333722  76.5877191 115.5560685  48.1238792  76.9270420 114.3225928
  52.9740828  87.0039962 110.7411747  52.8964858  87.9547787 110.8200228
  52.3702471  86.6585834 111.3986674  55.4658058  74.1767827 123.3973114
  54.6891392  74.7361747 123.3875979  56.1048621  74.6624610 123.9187984
  63.2578838  70.9594620 117.2316091  62.6153218  71.2527153 116.5855886
  62.7533767  70.8447540 118.0369288  60.9119002  74.7057793 107.9201950
  61.8236858  74.9385180 107.7449648  60.4028649  75.2894837 107.3577029
  53.7204430  76.9853281 122.9591081  54.4619114  77.5238325 122.6825905
  53.0141415  77.6119569 123.1162633  59.1959770  79.1282421 121.5563243
  59.6043126  78.6864832 120.8117875  58.4737031  78.5535049 121.8097436
  55.5490840  74.0655028 118.9296800  56.3952035  74.4894441 119.0731449
  55.4889477  73.4088652 119.6235363  59.5188584  79.6883612 115.3115532
  58.8897447  79.8529326 114.6091600  59.1314246  80.1025221 116.0826496
  63.3977816  80.6238050 112.6659895  62.7128854  81.0036951 112.1156929
  63.4821665  81.2333376 113.3991843  58.6990285  71.7259396 120.5877973
  58.4551217  72.4801457 120.0512249  58.9750215  72.1044744 121.4225220
  60.6528748  78.2698009 119.2655239  60.8645643  78.9129768 118.5889620
  60.6058496  77.4360325 118.7977169  58.2554977  70.8815829 116.1691811
  57.3939456  71.1797083 116.4608549  58.2817411  71.0986228 115.2372844
  55.0716546  79.4258020 112.5765617  55.5354892  79.7045723 111.7870239
  54.8073344  78.5241464 112.3938707  51.9640627  78.9729501 115.5145380
  52.5341984  79.4016770 114.8762865  52.5548739  78.6912086 116.2129566
  54.0085432  75.5481172 109.3855182  54.7109475  76.0002216 109.8529108
  53.6766061  74.9064991 110.0135075  52.4565794  74.1392929 123.7606391
  51.8264454  74.8209210 123.9941788  52.3501882  74.0276010 122.8159530
  47.7510766  73.8064725 114.6872315  46.9609820  74.0622253 114.2112426
  48.2422013  74.6213063 114.7924356  61.7674576  81.1469964 117.4377596
  62.5892019  80.7450151 117.1560278  61.7636979  81.0438198 118.3893712
  49.7025511  74.1709304 111.6455792  48.9056675  74.2827998 112.1639288
  49.4751104  74.5095956 110.7796683  55.5331179  80.6954007 119.5938307
  55.5975612  81.1574415 120.4296479  54.8242103  80.0651372 119.7220617
  46.0348469  74.0595215 117.1187306  46.2856507  74.9442225 117.3844882
  46.5708017  73.8799817 116.3462398  69.8580569  77.4908712 113.7862568
  69.1044277  76.9216111 113.6306572  69.9928110  77.4571377 114.7333202
  55.2479197  82.3622115 109.4617287  55.1124872  83.2073651 109.8902135
  55.7889009  82.5641392 108.6983221  51.7346536  68.4413695 126.1231642
  51.3413482  67.8879893 126.7979287  52.5512677  68.7524273 126.5138160
  48.7008594  79.8797553 110.0345212  49.2133115  80.6740803 110.1850777
  49.3531307  79.1823843 109.9678814  50.5103479  82.9963309 112.1167965
  50.6870107  83.9181274 111.9288949  51.3060312  82.6821728 112.5462345
  54.6514497  69.8571574 123.7151899  55.3924211  70.4578727 123.6356361
  54.8832420  69.1149212 123.1569941  49.7955835  75.0427941 121.9930129
  49.6809351  74.1413198 122.2937228  48.9400353  75.2891638 121.6414945
  56.8747673  82.9845681 123.5917629  56.4311527  82.1982060 123.2738534
  57.5364887  83.1724832 122.9261520  51.6334794  84.5141483 118.1178308
  52.1842219  84.3858546 117.3455302  50.7946270  84.8136372 117.7673201
  58.9728911  83.2648481 121.6199030  58.9547387  84.0857362 121.1279300
  59.8948831  83.1402556 121.8449172  55.4301965  80.7792611 122.4622539
  55.9630302  80.0180899 122.2321847  54.9016046  80.4866263 123.2046693
  58.5971660  65.8852677 117.9916181  58.2535930  66.7754318 117.9155291
  58.9650623  65.6954334 117.1285766  46.6657511  78.2086207 110.8104783
  47.5032733  78.6183215 110.5938490  46.8435779  77.2685649 110.7804977
  58.5621943  75.8761288 106.4988616  58.0468566  76.6465892 106.7377003
  58.2899251  75.2026424 107.1221677  56.1469054  70.7210989 111.5573854
  55.2910650  70.3317839 111.3779493  56.5596006  70.8002949 110.6973640
  57.6768201  68.2557332 115.9565414  57.1732996  68.2187467 115.1433219
  57.9698808  69.1650075 116.0162071  53.9211087  68.3396062 114.9631596
  54.7864083  68.1438870 114.6037485  53.9888595  68.1106413 115.8900952
  63.5356217  78.6293642 108.4341789  62.7585660  78.2904802 107.9896951
  64.2147698  78.6346266 107.7596754  58.3508246  73.7488380 108.3248397
  58.0458382  74.0634529 109.1758540  59.3038688  73.8269800 108.3675730
  56.7954678  79.9078603 109.9741351  56.2676040  79.1731363 109.6614588
  56.2942181  80.6853280 109.7281319  61.7747524  78.1027624 115.0908397
  61.1171198  78.7926885 115.1788526  62.5787923  78.4924056 115.4342384
  51.5273406  70.5698269 112.3347962  52.1017158  70.3473451 111.6021155
  52.1144388  70.6386964 113.0876564  60.5852983  76.4571996 113.1412339
  61.0984865  77.0901988 113.6434049  61.2354207  75.8573192 112.7755699
  51.8542993  72.6002731 106.3543848  51.0180305  72.9377417 106.6753122
  51.7147762  72.4651710 105.4170985  53.8296073  67.4439518 111.0623032
  53.1760486  67.1288536 110.4379647  53.7876548  66.8215259 111.7882855
  54.9407278  77.7258813 102.9776324  54.0334340  77.4948067 103.1767473
  55.4378310  76.9296433 103.1650305  57.8475357  86.4356321 105.8973010
  57.1737056  86.7388017 106.5057968  58.2341179  87.2385401 105.5478467
  57.0633814  73.9321452 115.3870679  56.1456375  74.1536399 115.2292368
  57.4793957  74.0067762 114.5282387  57.8468861  75.3312868 110.5173360
  58.5940680  75.8434265 110.2080482  58.1160451  75.0096920 111.3777753
  56.1195512  77.8271408 107.5000314  55.2106731  77.5430441 107.5972784
  56.1490595  78.2470487 106.6403621  61.3514779  81.4377998 111.2691482
  60.8977106  80.5968908 111.3256672  60.7208746  82.0739396 111.6066262
  60.2947699  72.3669984 112.4992149  59.5570455  71.8547370 112.8302392
  60.5474472  71.9270365 111.6875426  59.7947718  83.2754495 112.2041300
  60.0870693  83.8359552 111.4853665  60.3046339  83.5683056 112.9594459
  60.3959326  65.1446236 113.0933918  60.7018203  64.2843599 112.8059833
  61.1211931  65.7363856 112.8932912  46.6883682  75.5476922 111.4815516
  46.4908082  74.9546283 110.7566583  46.1330346  75.2429133 112.1991455
  54.6680406  75.4400029 113.6010109  54.7229015  74.4873865 113.5252586
  53.8571608  75.5959468 114.0851408  55.8171599  79.3680152 104.8388393
  55.3791029  78.6516011 104.3794030  56.5582040  79.5956267 104.2773484
  52.6072766  74.0577089 111.3600488  51.7940631  74.3571259 111.7665680
  53.1031760  73.6632777 112.0774970  54.7581344  84.0534846 113.2934753
  54.7157522  84.2795692 112.3643285  55.6744042  83.8198220 113.4420554
  58.2046977  74.5218913 120.1915382  58.5596365  74.7490386 121.0509848
  58.8519109  74.8537290 119.5692637  63.9344714  77.6437349 110.8964711
  63.7962613  77.8338945 109.9685900  63.5780933  78.4056732 111.3532762
  52.0986840  71.6295444 116.9761723  52.7386220  71.4884203 116.2784686
  51.2664371  71.3429958 116.6000325  63.9614094  79.7113876 115.9075983
  64.3950601  79.6189165 116.7559037  64.6745675  79.6871377 115.2695999
  52.8747144  80.9297875 113.0896716  53.6687743  80.4348195 112.8879291
  52.1638837  80.4015738 112.7264421  57.6941989  83.3115970 117.4409083
  57.7479011  83.8806906 118.2086799  56.8256770  83.4817855 117.0763120
  49.1829908  75.0740956 109.1656468  48.2527496  75.0125412 109.3826430
  49.2787380  74.5516909 108.3693110  49.1015457  71.5995769 111.7534710
  49.3622274  72.5141102 111.6443870  49.9232629  71.1320212 111.9031323
  50.5740382  73.0133526 118.9233535  51.2463436  72.8050888 118.2746183
  49.7470169  72.8155612 118.4838767  64.8229643  79.7537577 118.4408868
  65.0165533  80.6583387 118.6868143  64.7230262  79.2944996 119.2747453
  56.4765954  69.6395467 120.9399195  55.8293869  70.3385417 120.8463672
  57.2466970  70.0731611 121.3075444  59.8844752  79.9044319 124.0149749
  59.7330259  79.6754871 123.0979832  59.8749432  80.8614921 124.0281094
  56.6530088  77.4776232 118.9996015  57.5822148  77.6287392 118.8264982
  56.2321119  77.5660253 118.1444662  55.4518420  81.5026897 116.7694553
  55.3129506  81.1345681 117.6420491  54.6633017  82.0174536 116.5978511
  56.0466572  86.6035993 108.1120089  56.2218328  86.1324036 108.9265712
  55.3599360  87.2301759 108.3401350  57.0023635  80.8808499 114.1583391
  56.6673468  80.8409269 115.0541040  56.5027581  80.2153215 113.6853801
  50.9767879  76.2876129 119.6835972  50.8387677  75.5556368 120.2847511
  51.8872803  76.1985029 119.4020159  59.9382827  78.2264534 104.4320450
  59.3211998  77.5011362 104.3353503  59.4699316  78.9873894 104.0887524
  53.6050180  75.9996089 119.1719651  54.3149799  75.3589281 119.1306270
  53.5619488  76.2508984 120.0945832  61.5936959  82.9363442 122.0926231
  61.5349505  82.2522662 121.4256814  61.9956477  83.6782432 121.6406857
  52.3179114  72.9861307 120.9915291  51.7816471  72.5352045 121.6436887
  51.7295822  73.1207215 120.2485755  50.6127658  89.7525356 114.8859949
  50.8524256  90.3843880 115.5638968  49.7696854  89.4013396 115.1725309
  61.5954366  80.9003026 120.3240210  60.7081145  80.5628948 120.4466609
  62.1652917  80.1686057 120.5608976  43.2483513  77.2327118 113.6483262
  43.9354553  76.9188848 113.0604277  43.0931642  78.1368482 113.3750513
  48.0518235  72.1217314 118.0768285  47.9676424  71.5142984 117.3418695
  47.2300942  72.6126333 118.0777782  55.1255519  85.5604478 117.2901453
  55.0525691  86.3659450 117.8020758  54.6832913  85.7596444 116.4649475
  54.9145299  84.7976248 110.8004275  54.1312821  85.3397928 110.8942499
  55.6138044  85.3150228 111.1998516  58.2241949  70.6070878 113.4438480
  58.7210649  69.8540840 113.1239551  57.4528931  70.6435194 112.8781690
  66.0771707  76.3111243 115.0856772  66.0661583  77.1935959 114.7150705
  65.2089086  75.9582794 114.8911309  57.5854203  85.4591312 119.4459612
  58.2982175  86.0938777 119.3735514  57.0944232  85.5555178 118.6299614
  59.3071730  79.3642565 111.0176904  58.3728009  79.4844027 110.8481608
  59.4848398  78.4615032 110.7536914  54.8076918  72.7488261 113.1710165
  54.4374705  72.1959301 113.8591071  55.3036010  72.1446394 112.6185165
  62.6944281  75.2059884 111.5526938  63.1604733  76.0387876 111.4787241
  63.1451782  74.7404866 112.2572196  52.6366116  83.2085756 120.2665183
  53.3375576  83.8422239 120.4194577  52.1661231  83.5500487 119.5060822
  60.7620512  81.5503706 108.5513090  61.0380356  81.4360300 109.4606964
  59.8925011  81.1521190 108.5125263  60.6660944  67.5740471 115.5917839
  59.7524024  67.8044698 115.7600046  61.0954045  67.6578915 116.4431872
  60.4367402  75.7630363 118.0917733  59.7838853  76.0106271 117.4370186
  60.8147782  74.9494501 117.7580211  57.3974576  85.7990056 112.1945904
  57.5796971  84.9811712 112.6573656  58.2207562  86.0157749 111.7570794
  57.7316742  84.7258242 109.4560952  58.2604508  84.2150696 108.8431114
  57.9944961  84.4100772 110.3206485  56.4854975  76.5050174 124.5783770
  55.8095612  76.4044304 125.2486146  57.3082609  76.3489388 125.0419768
  48.2333835  82.7422111 117.1996286  48.8187271  81.9965799 117.3324190
  48.0358673  83.0526068 118.0832949  51.0872490  85.7773358 112.2158728
  50.4182865  86.2619486 111.7322768  50.9485359  86.0242579 113.1302106
  42.8251489  75.3127711 115.9200729  42.8635589  74.7791302 116.7137847
  42.3191782  74.7862917 115.3011706  55.2277758  87.8117102 118.8141386
  55.7796066  87.9748723 119.5790472  55.5683952  88.4021540 118.1421411
  50.2042252  70.1592252 119.4163271  50.2683578  71.0207082 119.0040669
  50.1409372  69.5466253 118.6835630  49.6794524  72.2315384 123.0636305
  50.3066563  71.8492461 123.6773830  48.8222443  72.0129586 123.4291998
  46.4560067  74.0391813 108.9954660  46.7513508  73.1302492 108.9421714
  45.5548103  74.0179553 108.6735662  58.3646146  85.7599077 115.8005068
  58.2397285  84.9588817 115.2916014  59.0225237  86.2545271 115.3119038
  49.9854314  72.1147810 114.9782209  49.2640900  72.7283777 114.8389682
  50.7747570  72.6505575 114.8998855  60.4281054  83.5608097 117.4284619
  59.4811390  83.4413449 117.3562945  60.7763827  82.6730595 117.5110880
  52.7880627  69.4502236 121.2522860  53.3115029  69.6964533 122.0149170
  52.5692961  70.2822271 120.8325998  48.1847908  71.7205911 109.1193985
  47.8560615  70.8403290 108.9369091  48.5387279  71.6653580 110.0070374
  57.4327487  83.3560814 113.6288971  57.2852450  82.4277521 113.8096541
  58.2580981  83.3780904 113.1446046  51.2989732  72.0078881 109.4869463
  51.6385804  72.5364802 108.7648071  51.7461852  72.3459287 110.2628029
  61.0361609  84.1789372 114.7153844  61.9608157  83.9732234 114.5778295
  60.8676913  83.9305773 115.6243185  53.9933172  70.3915931 118.9372531
  53.6529993  69.5923744 119.3393211  53.2872179  70.6917642 118.3649364
  54.6449644  67.4765244 117.3899854  55.4675714  67.0025722 117.2678744
  54.8887708  68.2555728 117.8898540  53.2857879  70.5053502 107.6862756
  54.0066241  70.8834755 107.1826473  52.6623183  71.2242379 107.7897734
  57.4289002  71.2098651 108.6221088  57.6452616  72.0923289 108.3209916
  56.9483069  70.8184865 107.8926730  52.1688223  74.1684364 115.1991833
  52.0232804  74.4824667 116.0916114  51.6913427  74.7869265 114.6462731
  54.0284606  71.1586912 115.2472722  54.0146175  70.2628006 114.9105020
  54.7457034  71.1657576 115.8811008  55.8810737  71.5924253 117.2925850
  55.6228514  72.5141323 117.2910180  55.3495777  71.1954687 117.9826314
  60.8256925  84.6975040 110.0715935  60.9993803  84.1321462 109.3189787
  61.3185817  85.4975935 109.8895425  46.6433885  76.7089709 118.1379494
  46.0987353  77.4849517 118.2699768  47.5213235  77.0560513 117.9798615
  53.4321502  70.0401293 110.5160292  53.5537413  69.1117939 110.7151180
  53.1423544  70.0539979 109.6038608  56.3012692  67.7256203 113.6527012
  56.3234389  67.7895536 112.6978992  56.7180751  66.8860712 113.8467518
  66.6796317  77.4611463 111.6906235  67.1227463  76.7118788 111.2925358
  65.8022827  77.4521599 111.3079967  61.8132098  84.0141804 107.1712833
  62.5083002  84.6348497 107.3900148  62.1555248  83.1637155 107.4465211
  47.4299907  75.8359605 121.0309651  46.6881643  75.9842240 121.6174281
  47.1092651  76.0967871 120.1676400  63.7123521  81.4641510 108.7000164
  64.2374845  81.8028782 107.9749484  63.6245874  80.5288525 108.5163299
  55.3743570  85.3775583 120.8290041  55.6830696  85.1324730 121.7012740
  56.1719052  85.5822222 120.3408911  55.3964182  87.5313493 113.0595417
  54.9569172  87.0389872 113.7528274  56.1472299  86.9886461 112.8187492
  47.8756521  83.7225034 113.0620045  48.7014541  83.4228806 112.6818689
  47.5250573  82.9532656 113.5109834  52.8438054  83.0751502 115.1317719
  52.2218063  82.4122207 114.8319947  53.5142921  83.1012634 114.4491367
  46.0765126  81.6411360 114.0208979  45.2397034  81.2133535 113.8392980
  46.0488771  81.8343804 114.9579770  52.9162581  71.5533290 124.7250225
  52.9650737  72.4295413 124.3427995  53.4585096  71.0110683 124.1521868
  63.5215302  78.9466880 121.3184091  63.5713307  78.7816887 122.2599613
  63.4129225  78.0794139 120.9281971  60.8119064  74.9297808 122.6343397
  61.7128927  74.7904273 122.3427395  60.8867039  75.0952263 123.5741575
  55.1461870  72.3064662 121.4796584  54.2765179  72.5998229 121.2079172
  55.3821350  72.8905107 122.2003847  65.0233499  81.3663821 121.5626112
  64.7318307  81.7293802 122.3989573  64.4105630  80.6530829 121.3839444
  66.2229181  78.9316701 114.0828682  67.0576073  79.3706505 114.2466243
  66.3588310  78.4555354 113.2636928  63.2720687  76.4896436 120.0306170
  63.7474809  76.6824082 119.2225021  62.3486253  76.5455622 119.7849554
  50.1604194  77.6520603 109.6137248  49.9150236  76.7482933 109.8117458
  50.3300108  77.6537753 108.6716726  57.8500904  68.5244279 118.9962004
  58.3682847  69.2605306 118.6708493  57.4956036  68.8308273 119.8308763
  49.4299841  73.3848961 107.1123410  48.7369086  73.4593316 106.4563446
  49.1851593  72.6209304 107.6344927  58.1013498  64.9444562 114.5162901
  58.3815252  64.2767751 115.1423327  58.8864105  65.1373658 114.0037564
  55.9046966  84.1203556 106.0787927  55.3320933  84.7393743 105.6258399
  56.4779760  84.6702918 106.6127849  61.9722356  73.3662196 118.2634476
  62.9239779  73.4660294 118.2846700  61.8025807  72.5740464 118.7732560
  59.9936736  70.4517779 118.4493877  59.3986668  70.7322792 117.7540365
  59.7086432  70.9411680 119.2210618  59.1244226  84.4040706 107.2096509
  60.0574899  84.3386268 107.4129385  59.0367439  85.2396973 106.7511042
  61.7532243  83.7206576 104.1700457  61.6745874  83.3866440 105.0636215
  62.5741910  84.2128344 104.1691929  64.4510434  76.5868316 117.3776775
  64.4186754  75.6484316 117.5636459  65.0611058  76.6652352 116.6442600
  56.2893765  75.4564369 103.4203979  57.2352870  75.3270577 103.4892397
  55.9108010  74.7179030 103.8973408  64.6004922  73.3779359 117.4235059
  64.0843971  72.5937816 117.2364987  65.4844871  73.0498076 117.5881578
  62.2615649  67.1220375 113.3830871  62.0640470  66.8135463 114.2674203
  62.8715355  67.8482014 113.5128801  70.2686984  77.6484322 116.5182812
  70.9990372  77.3869611 117.0790515  69.6593929  76.9113044 116.5584880
  68.3502281  75.7892185 117.1157263  67.6235444  75.6548150 116.5073755
  67.9349568  76.0969014 117.9213981  56.1732457  79.5082115 124.8804636
  57.0935467  79.6860714 125.0744683  56.1382040  78.5638160 124.7284336
  54.4736682  73.3814345 103.3558865  53.5668137  73.0847458 103.4321578
  54.7512663  73.0844163 102.4893151  45.3914622  74.7020708 113.8057911
  45.0717407  73.8486017 113.5132285  44.8448051  74.9169287 114.5615878
  49.1694530  77.4183149 117.5227418  49.3880540  78.3500257 117.5415451
  49.5820304  77.0591124 118.3082221  56.0898748  67.9251235 109.5103106
  55.2799476  67.5798320 109.8858352  56.7783165  67.6158778 110.0990717
  58.0189296  67.0029281 111.1327403  58.5720335  67.4224735 111.7917426
  58.2559382  66.0765030 111.1750359  54.0422395  72.9916355 126.9130166
  53.9419122  73.9410712 126.8442258  53.8243937  72.6634594 126.0406237
  45.2602882  78.3223620 115.7751033  44.5666354  77.9077573 115.2620987
  46.0075873  78.3644156 115.1784451  61.3968103  69.1129807 110.6406067
  60.8166772  69.7714611 110.2584119  61.1304036  68.2907151 110.2293484
  59.8471669  68.5134864 112.8427387  60.3471448  68.6251399 112.0341706
  60.4907277  68.2095917 113.4828196  53.9053665  76.4213494 125.7295228
  53.4220747  77.2213854 125.9359117  53.9914604  76.4321439 124.7762672
  47.1739625  78.2541874 113.6517047  47.1510313  78.3529561 112.6998931
  47.4840261  79.1007024 113.9734214  49.8327003  80.3118029 117.7663662
  50.7870256  80.2801971 117.6993593  49.6339526  79.8508652 118.5813888
  50.4226385  78.8819145 120.3334460  51.2419274  79.3763223 120.3569297
  50.6963193  77.9651113 120.3052027  60.1792981  71.2729897 109.6962415
  59.2918836  71.5579548 109.4782610  60.5946970  71.1123660 108.8489692
  63.5307517  71.2976418 113.4116754  64.3067907  71.7872870 113.6841371
  62.8055651  71.7234472 113.8688624  65.9680076  72.0104037 114.4690695
  66.5624567  71.7699773 113.7584003  66.0406660  71.2911168 115.0964231
  48.1877232  85.8537648 114.7833860  48.0531699  85.0938049 114.2171858
  47.7709294  86.5778548 114.3162649  59.3236195  81.0374572 103.7910435
  60.0272045  81.2424574 104.4068091  58.5998843  81.6051334 104.0559519
  60.1534005  76.7884433 109.9112705  60.0969206  77.2452984 109.0720338
  60.7062347  76.0275118 109.7335548  63.9638811  72.5774165 110.7362825
  63.7075745  72.1770801 111.5671032  63.3391679  73.2917959 110.6112964
  68.2751149  75.3170238 113.2434116  67.7150707  75.3863427 114.0165678
  67.6694652  75.1411223 112.5233612  51.3446357  86.7506965 114.9952302
  51.2278742  87.6952398 114.8930993  50.5238804  86.4480527 115.3838102
  61.2322892  81.4757101 105.8408895  62.0668496  81.0438299 105.6586370
  61.0707235  81.3039115 106.7685790  60.8868784  77.9789214 107.2065234
  60.8317588  77.8133486 106.2653679  60.2614839  78.6865247 107.3627424
  45.6761299  73.2157279 121.0326657  46.3220163  72.7056233 121.5213882
  45.4678450  73.9525960 121.6070082  54.1964910  67.4797323 106.7850553
  54.1843579  68.4239163 106.9418824  55.0888331  67.2967469 106.4910014
  52.3700872  87.4035227 118.2108231  53.2728118  87.4358837 118.5274726
  52.1438242  86.4735678 118.2254567  54.1254474  86.1566214 114.8718309
  53.1750105  86.1568075 114.7582682  54.4286960  85.4098948 114.3554344
  58.0117029  64.0740100 111.0396490  57.2449425  63.5198587 111.1853172
  58.4227734  64.1461969 111.9010641  50.0158790  70.3624896 125.1301671
  50.8790252  70.0061701 125.3404995  49.4424201  70.0238790 125.8177075
  66.6696873  91.9454180 115.8725597  66.3315385  91.8295245 114.9846131
  67.5386641  91.5445345 115.8526603  62.5283689  93.7989657 111.8622487
  61.9648554  93.7079593 111.0938775  62.4136084  92.9789561 112.3424980
  60.0748121  95.2940848 114.7006708  60.8669413  94.9531673 114.2853007
  60.3144771  95.4035823 115.6208861  68.1083248  97.4660624 107.1736952
  67.4571227  98.0514705 106.7870966  68.9027611  97.9966819 107.2331990
  62.0338875  94.5549761 107.5724087  62.8069751  94.0078748 107.4336963
  62.3864274  95.4194011 107.7838548  64.3705153  90.7142428 105.2042537
  64.6230673  90.1923949 104.4426000  63.4329712  90.5508573 105.3069220
  69.4148435  89.7178206 113.0117280  70.2011525  89.2997629 112.6607697
  69.6787140  90.6224298 113.1798928  69.5858513  95.1551056 107.7105937
  68.9504346  95.2285683 108.4226841  69.2555919  95.7444655 107.0325016
  74.8156863  89.6553439 113.9150258  75.5482035  89.0852656 114.1488088
  74.0596218  89.2675040 114.3556764  64.0901441  92.6170533 107.4066912
  63.9737700  91.9415437 108.0747996  64.2003701  92.1302907 106.5899065
  66.4332982  92.0780681 111.1113601  66.0691190  91.5511302 111.8226522
  67.2900098  91.6879150 110.9380086  72.3382283  83.3675013 118.3744867
  72.0065608  84.2370424 118.1506082  71.7427896  83.0511297 119.0538897
  66.0738469  87.1070580 106.1074949  66.2412872  87.9750817 106.4745420
  65.8835638  87.2697862 105.1836239  62.2826284  92.0201356 113.8077484
  61.3576780  91.8877570 114.0155176  62.5310697  92.7995575 114.3047427
  66.0527690  89.5628238 107.0921616  65.9327315  90.0085289 107.9307096
  65.3580279  89.9113555 106.5335154  59.6435095  91.6634630 114.6421273
  59.7727476  91.9169108 115.5560685  58.9632546  92.2562338 114.3225928
  63.8134582 102.3331880 110.7411747  63.7358612 103.2839705 110.8200228
  63.2096226 101.9877752 111.3986674  71.7512756  90.0349711 107.9201950
  72.6630612  90.2677098 107.7449648  71.2422403  90.6186755 107.3577029
  69.0948731  86.2107747 116.1691811  68.2333210  86.5089000 116.4608549
  69.1211166  86.4278146 115.2372844  65.9110301  94.7549937 112.5765617
  66.3748646  95.0337640 111.7870239  65.6467099  93.8533382 112.3938707
  62.8034382  94.3021419 115.5145380  63.3735739  94.7308687 114.8762865
  63.3942493  94.0204004 116.2129566  64.8479187  90.8773090 109.3855182
  65.5503230  91.3294134 109.8529108  64.5159815  90.2356909 110.0135075
  58.5904521  89.1356643 114.6872315  57.8003575  89.3914171 114.2112426
  59.0815768  89.9504980 114.7924356  60.5419266  89.5001222 111.6455792
  59.7450429  89.6119916 112.1639288  60.3144858  89.8387874 110.7796683
  56.8742224  89.3887133 117.1187306  57.1250262  90.2734143 117.3844882
  57.4101772  89.2091734 116.3462398  66.0872951  97.6914032 109.4617287
  65.9518626  98.5365568 109.8902135  66.6282764  97.8933310 108.6983221
  59.5402349  95.2089471 110.0345212  60.0526869  96.0032721 110.1850777
  60.1925061  94.5115761 109.9678814  61.3497233  98.3255227 112.1167965
  61.5263862  99.2473191 111.9288949  62.1454067  98.0113646 112.5462345
  69.4365415  81.2144594 117.9916181  69.0929684  82.1046236 117.9155291
  69.8044377  81.0246252 117.1285766  57.5051265  93.5378125 110.8104783
  58.3426487  93.9475133 110.5938490  57.6829533  92.5977567 110.7804977
  69.4015698  91.2053205 106.4988616  68.8862321  91.9757810 106.7377003
  69.1293006  90.5318342 107.1221677  66.9862809  86.0502906 111.5573854
  66.1304405  85.6609757 111.3779493  67.3989760  86.1294867 110.6973640
  68.5161955  83.5849250 115.9565414  68.0126751  83.5479385 115.1433219
  68.8092562  84.4941992 116.0162071  64.7604841  83.6687979 114.9631596
  65.6257838  83.4730788 114.6037485  64.8282350  83.4398331 115.8900952
  74.3749972  93.9585560 108.4341789  73.5979414  93.6196720 107.9896951
  75.0541453  93.9638183 107.7596754  69.1902001  89.0780298 108.3248397
  68.8852136  89.3926447 109.1758540  70.1432443  89.1561717 108.3675730
  67.6348433  95.2370521 109.9741351  67.1069794  94.5023280 109.6614588
  67.1335935  96.0145197 109.7281319  62.3667160  85.8990187 112.3347962
  62.9410912  85.6765369 111.6021155  62.9538143  85.9678882 113.0876564
  71.4246737  91.7863914 113.1412339  71.9378619  92.4193906 113.6434049
  72.0747961  91.1865110 112.7755699  62.6936747  87.9294648 106.3543848
  61.8574060  88.2669335 106.6753122  62.5541517  87.7943628 105.4170985
  64.6689828  82.7731436 111.0623032  64.0154240  82.4580453 110.4379647
  64.6270302  82.1507177 111.7882855  65.7801033  93.0550731 102.9776324
  64.8728094  92.8239985 103.1767473  66.2772065  92.2588350 103.1650305
  68.6869112 101.7648238 105.8973010  68.0130810 102.0679935 106.5057968
  69.0734934 102.5677319 105.5478467  67.9027568  89.2613370 115.3870679
  66.9850130  89.4828317 115.2292368  68.3187712  89.3359680 114.5282387
  68.6862616  90.6604785 110.5173360  69.4334435  91.1726182 110.2080482
  68.9554206  90.3388838 111.3777753  66.9589266  93.1563326 107.5000314
  66.0500485  92.8722359 107.5972784  66.9884350  93.5762405 106.6403621
  71.1341453  87.6961902 112.4992149  70.3964210  87.1839288 112.8302392
  71.3868227  87.2562283 111.6875426  71.2353080  80.4738154 113.0933918
  71.5411957  79.6135517 112.8059833  71.9605685  81.0655774 112.8932912
  57.5277437  90.8768840 111.4815516  57.3301836  90.2838201 110.7566583
  56.9724101  90.5721050 112.1991455  65.5074160  90.7691947 113.6010109
  65.5622770  89.8165783 113.5252586  64.6965362  90.9251386 114.0851408
  66.6565354  94.6972070 104.8388393  66.2184784  93.9807929 104.3794030
  67.3975795  94.9248184 104.2773484  63.4466520  89.3869006 111.3600488
  62.6334386  89.6863177 111.7665680  63.9425514  88.9924695 112.0774970
  74.7738469  92.9729267 110.8964711  74.6356367  93.1630863 109.9685900
  74.4174688  93.7348650 111.3532762  62.9380595  86.9587362 116.9761723
  63.5779974  86.8176121 116.2784686  62.1058125  86.6721875 116.6000325
  63.7140899  96.2589792 113.0896716  64.5081497  95.7640112 112.8879291
  63.0032591  95.7307655 112.7264421  60.0223662  90.4032874 109.1656468
  59.0921250  90.3417330 109.3826430  60.1181134  89.8808827 108.3693110
  59.9409211  86.9287687 111.7534710  60.2016029  87.8433020 111.6443870
  60.7626384  86.4612129 111.9031323  61.4134137  88.3425444 118.9233535
  62.0857190  88.1342806 118.2746183  60.5863923  88.1447530 118.4838767
  66.8860327 101.9327911 108.1120089  67.0612082 101.4615954 108.9265712
  66.1993115 102.5593677 108.3401350  70.7776582  93.5556451 104.4320450
  70.1605752  92.8303279 104.3353503  70.3093070  94.3165812 104.0887524
  62.5675127  87.7741876 103.5541754  61.6904594  87.6530676 103.1904001
  63.0432881  86.9827954 103.3020643  54.0877268  92.5619035 113.6483262
  54.7748307  92.2480765 113.0604277  53.9325396  93.4660400 113.3750513
  58.8911990  87.4509232 118.0768285  58.8070178  86.8434901 117.3418695
  58.0694696  87.9418250 118.0777782  65.7539054 100.1268166 110.8004275
  64.9706575 100.6689846 110.8942499  66.4531799 100.6442146 111.1998516
  69.0635704  85.9362795 113.4438480  69.5604403  85.1832758 113.1239551
  68.2922685  85.9727112 112.8781690  70.1465484  94.6934483 111.0176904
  69.2121763  94.8135945 110.8481608  70.3242153  93.7906949 110.7536914
  65.6470672  88.0780178 113.1710165  65.2768460  87.5251219 113.8591071
  66.1429765  87.4738312 112.6185165  73.5338036  90.5351802 111.5526938
  73.9998488  91.3679794 111.4787241  73.9845536  90.0696784 112.2572196
  71.6014267  96.8795623 108.5513090  71.8774111  96.7652218 109.4606964
  70.7318766  96.4813108 108.5125263  71.5054698  82.9032389 115.5917839
  70.5917778  83.1336616 115.7600046  71.9347800  82.9870833 116.4431872
  68.5710496 100.0550159 109.4560952  69.0998263  99.5442614 108.8431114
  68.8338716  99.7392689 110.3206485  53.6645244  90.6419629 115.9200729
  53.7029343  90.1083219 116.7137847  53.1585537  90.1154834 115.3011706
  61.0436006  85.4884169 119.4163271  61.1077333  86.3499000 119.0040669
  60.9803126  84.8758171 118.6835630  57.2953821  89.3683731 108.9954660
  57.5907262  88.4594409 108.9421714  56.3941857  89.3471470 108.6735662
  60.8248068  87.4439727 114.9782209  60.1034654  88.0575695 114.8389682
  61.6141324  87.9797492 114.8998855  59.0241663  87.0497829 109.1193985
  58.6954369  86.1695207 108.9369091  59.3781034  86.9945497 110.0070374
  62.1383486  87.3370798 109.4869463  62.4779559  87.8656720 108.7648071
  62.5855607  87.6751204 110.2628029  64.8326927  85.7207849 118.9372531
  64.4923747  84.9215662 119.3393211  64.1265933  86.0209560 118.3649364
  65.4843399  82.8057161 117.3899854  66.3069468  82.3317640 117.2678744
  65.7281462  83.5847645 117.8898540  64.1251633  85.8345420 107.6862756
  64.8459996  86.2126673 107.1826473  63.5016937  86.5534297 107.7897734
  68.2682756  86.5390569 108.6221088  68.4846370  87.4215207 108.3209916
  67.7876823  86.1476782 107.8926730  63.0081977  89.4976282 115.1991833
  62.8626558  89.8116585 116.0916114  62.5307181  90.1161182 114.6462731
  64.8678360  86.4878830 115.2472722  64.8539929  85.5919923 114.9105020
  65.5850788  86.4949494 115.8811008  66.7204491  86.9216170 117.2925850
  66.4622269  87.8433241 117.2910180  66.1889531  86.5246605 117.9826314
  57.4827640  92.0381626 118.1379494  56.9381108  92.8141434 118.2699768
  58.3606989  92.3852431 117.9798615  64.2715256  85.3693210 110.5160292
  64.3931167  84.4409857 110.7151180  63.9817299  85.3831896 109.6038608
  67.1406447  83.0548121 113.6527012  67.1628143  83.1187454 112.6978992
  67.5574506  82.2152629 113.8467518  72.6525852  99.3433722 107.1712833
  73.3476757  99.9640414 107.3900148  72.9949002  98.4929073 107.4465211
  74.5517275  96.7933427 108.7000164  75.0768600  97.1320700 107.9749484
  74.4639628  95.8580443 108.5163299  58.7150275  99.0516951 113.0620045
  59.5408295  98.7520723 112.6818689  58.3644327  98.2824574 113.5109834
  56.9158880  96.9703278 114.0208979  56.0790789  96.5425452 113.8392980
  56.8882526  97.1635721 114.9579770  63.2445315  96.9547343 108.6076179
  63.3933436  97.6382807 107.9542852  64.0511759  96.9352433 109.1225635
  60.9997948  92.9812521 109.6137248  60.7543990  92.0774851 109.8117458
  61.1693863  92.9829671 108.6716726  68.6894658  83.8536197 118.9962004
  69.2076602  84.5897224 118.6708493  68.3349791  84.1600190 119.8308763
  60.2693596  88.7140878 107.1123410  59.5762841  88.7885233 106.4563446
  60.0245348  87.9501222 107.6344927  68.9407252  80.2736480 114.5162901
  69.2209006  79.6059669 115.1423327  69.7257859  80.4665575 114.0037564
  66.7440721  99.4495473 106.0787927  66.1714688 100.0685661 105.6258399
  67.3173514  99.9994835 106.6127849  69.9637981  99.7332624 107.2096509
  70.8968654  99.6678185 107.4129385  69.8761193 100.5688890 106.7511042
  72.5925997  99.0498494 104.1700457  72.5139629  98.7158358 105.0636215
  73.4135664  99.5420262 104.1691929  67.1287519  90.7856286 103.4203979
  68.0746624  90.6562494 103.4892397  66.7501764  90.0470948 103.8973408
  73.1009404  82.4512292 113.3830871  72.9034225  82.1427380 114.2674203
  73.7109109  83.1773931 113.5128801  65.3130436  88.7106263 103.3558865
  64.4061892  88.4139375 103.4321578  65.5906417  88.4136081 102.4893151
  56.2308377  90.0312626 113.8057911  55.9111161  89.1777934 113.5132285
  55.6841805  90.2461204 114.5615878  60.0088284  92.7475067 117.5227418
  60.2274294  93.6792175 117.5415451  60.4214058  92.3883041 118.3082221
  66.9292502  83.2543152 109.5103106  66.1193230  82.9090237 109.8858352
  67.6176919  82.9450696 110.0990717  68.8583050  82.3321199 111.1327403
  69.4114089  82.7516653 111.7917426  69.0953137  81.4056947 111.1750359
  64.0829221  85.5693198 103.4970844  64.9448385  85.8948096 103.7566661
  64.2679565  84.7824694 102.9843910  56.0996637  93.6515538 115.7751033
  55.4060108  93.2369490 115.2620987  56.8469628  93.6936074 115.1784451
  72.2361858  84.4421724 110.6406067  71.6560527  85.1006528 110.2584119
  71.9697790  83.6199069 110.2293484  70.6865424  83.8426782 112.8427387
  71.1865202  83.9543317 112.0341706  71.3301032  83.5387835 113.4828196
  58.0133379  93.5833791 113.6517047  57.9904067  93.6821479 112.6998931
  58.3234016  94.4298942 113.9734214  71.0186736  86.6021815 109.6962415
  70.1312591  86.8871465 109.4782610  71.4340725  86.4415578 108.8489692
  74.3701272  86.6268336 113.4116754  75.1461662  87.1164788 113.6841371
  73.6449406  87.0526390 113.8688624  76.8073830  87.3395955 114.4690695
  77.4018321  87.0991691 113.7584003  76.8800414  86.6203085 115.0964231
  70.1629949  96.3666489 103.7910435  70.8665799  96.5716492 104.4068091
  69.4392598  96.9343251 104.0559519  70.9927759  92.1176351 109.9112705
  70.9362961  92.5744902 109.0720338  71.5456102  91.3567035 109.7335548
  74.8032565  87.9066083 110.7362825  74.5469499  87.5062718 111.5671032
  74.1785433  88.6209876 110.6112964  72.0716646  96.8049019 105.8408895
  72.9062250  96.3730217 105.6586370  71.9100989  96.6331032 106.7685790
  71.7262539  93.3081132 107.2065234  71.6711342  93.1425403 106.2653679
  71.1008594  94.0157165 107.3627424  56.5155054  88.5449196 121.0326657
  57.1613917  88.0348150 121.5213882  56.3072205  89.2817878 121.6070082
  65.0358664  82.8089241 106.7850553  65.0237334  83.7531081 106.9418824
  65.9282086  82.6259386 106.4910014  68.8510784  79.4032018 111.0396490
  68.0843179  78.8490504 111.1853172  69.2621488  79.4753886 111.9010641
  73.5330502 103.2586566 106.3543848  72.6967814 103.5961252 106.6753122
  73.3935271 103.1235546 105.4170985  73.4068882 103.1033793 103.5541754
  72.5298348 102.9822594 103.1904001  73.8826635 102.3119872 103.3020643
  71.1087350 104.0432796 107.1123410  70.4156595 104.1177151 106.4563446
  70.8639102 103.2793140 107.6344927  76.1524191 104.0398180 103.3558865
  75.2455646 103.7431293 103.4321578  76.4300172 103.7427998 102.4893151
  74.9222976 100.8985116 103.4970844  75.7842140 101.2240014 103.7566661
  75.1073320 100.1116611 102.9843910  75.8752419  98.1381159 106.7850553
  75.8631088  99.0822998 106.9418824  76.7675840  97.9551304 106.4910014
  25.3294095  17.4542690  92.6218317  24.6555794  17.7574387  93.2303275
  25.7159917  18.2571771  92.2723774  27.4201565   9.2450903  91.1565757
  26.8030736   8.5197731  91.0598809  26.9518053  10.0060263  90.8132831
  29.2950836  15.0328174  93.8958140  29.9901740  15.6534866  94.1145455
  29.6373986  14.1823525  94.1710518  23.3865704  15.1389925  92.8033234
  22.8139671  15.7580113  92.3503705  23.9598498  15.6889287  93.3373155
  26.6062964  15.4227076  93.9341816  27.5393637  15.3572637  94.1374691
  26.5186177  16.2583342  93.4756348  29.2350981  14.7392946  90.8945763
  29.1564612  14.4052809  91.7881521  30.0560647  15.2314714  90.8937236
  26.8054932  12.0560941  90.5155742  27.5090782  12.2610944  91.1313397
  26.0817581  12.6237703  90.7804825  28.7141630  12.4943470  92.5654202
  29.5487234  12.0624669  92.3831677  28.5525973  12.3225484  93.4931096
  37.3425905  23.0113122 102.6609378  37.9804315  22.8919869 101.9572719
  37.2246748  23.9593966 102.7197331  34.1515611  22.9640550 102.5970903
  33.8134123  22.8481614 101.7091438  35.0205379  22.5631715 102.5771909
  30.0102427  24.8176026  98.5867794  29.4467292  24.7265963  97.8184082
  29.8954822  23.9975931  99.0670287  35.5901986  28.4846994  93.8982259
  34.9389965  29.0701074  93.5116273  36.3846348  29.0153189  93.9577296
  29.5157613  25.5736131  94.2969393  30.2888489  25.0265118  94.1582269
  29.8683012  26.4380380  94.5083855  31.8523890  21.7328797  91.9287843
  32.1049411  21.2110318  91.1671306  30.9148450  21.5694943  92.0314527
  36.8967173  20.7364575  99.7362587  37.6830263  20.3183999  99.3853004
  37.1605878  21.6410668  99.9044235  37.0677251  26.1737426  94.4351243
  36.4323084  26.2472052  95.1472148  36.7374657  26.7631025  93.7570323
  42.2975600  20.6739809 100.6395565  43.0300772  20.1039025 100.8733395
  41.5414956  20.2861409 101.0802071  31.5720179  23.6356903  94.1312218
  31.4556437  22.9601806  94.7993303  31.6822439  23.1489277  93.3144371
  33.9151720  23.0967050  97.8358907  33.5509927  22.5697671  98.5471829
  34.7718836  22.7065519  97.6625393  33.5557207  18.1256950  92.8320256
  33.7231609  18.9937186  93.1990727  33.3654376  18.2884232  91.9081545
  36.3132540  26.5873929 104.4986086  36.0133263  27.4898968 104.3901894
  35.9683600  26.3206112 105.3507239  39.7129684  19.1056469 102.1783524
  38.8046561  19.0371877 101.8842285  39.6617280  19.5828414 103.0065349
  33.5346428  20.5814607  93.8166923  33.4146053  21.0271658  94.6552403
  32.8399016  20.9299925  93.2580461  31.2953320  33.3518249  97.4657054
  31.2177350  34.3026074  97.5445535  30.6914964  33.0064122  98.1231980
  39.2331494  21.0536081  94.6447257  40.1449350  21.2863467  94.4694954
  38.7241141  21.6373125  94.0822335  37.8401076  26.0361899 102.0360838
  37.2109939  26.2007613 101.3336906  37.4526739  26.4503509 102.8071802
  41.7190308  26.9716337  99.3905202  41.0341347  27.3515238  98.8402235
  41.8034158  27.5811663 100.1237150  33.3929038  25.7736307  99.3010923
  33.8567384  26.0524010  98.5115546  33.1285836  24.8719752  99.1184014
  32.3297924  21.8959459  96.1100489  33.0321968  22.3480503  96.5774415
  31.9978553  21.2543278  96.7380382  40.0887068  27.4948251 104.1622903
  40.9104512  27.0928439 103.8805585  40.0849471  27.3916485 105.1139019
  48.1793061  23.8387000 100.5107874  47.4256769  23.2694398 100.3551879
  48.3140602  23.8049664 101.4578509  33.5691689  28.7100402  96.1862594
  33.4337364  29.5551938  96.6147442  34.1101502  28.9119680  95.4228528
  27.0221086  26.2275840  96.7590519  27.5345607  27.0219090  96.9096084
  27.6743799  25.5302131  96.6924120  28.8315971  29.3441596  98.8413272
  29.0082599  30.2659561  98.6534256  29.6272805  29.0300016  99.2707652
  29.9547287  30.8619770 104.8423614  30.5054712  30.7336834 104.0700608
  29.1158762  31.1614659 104.4918507  24.9870003  24.5564494  97.5350089
  25.8245225  24.9661503  97.3183797  25.1648271  23.6163937  97.5050283
  36.8834435  22.2239575  93.2233922  36.3681059  22.9944180  93.4622310
  36.6111744  21.5504711  93.8466984  34.4681546  17.0689276  98.2819161
  33.6123143  16.6796126  98.1024799  34.8808498  17.1481237  97.4218946
  41.8568709  24.9771930  95.1587096  41.0798152  24.6383089  94.7142258
  42.5360190  24.9824553  94.4842061  36.6720738  20.0966667  95.0493704
  36.3670874  20.4112816  95.9003847  37.6251181  20.1748087  95.0921037
  35.1167170  26.2556890  96.6986658  34.5888532  25.5209650  96.3859895
  34.6154673  27.0331567  96.4526626  40.0960016  24.4505911 101.8153704
  39.4383691  25.1405172 101.9033832  40.9000416  24.8402343 102.1587690
  38.9065475  22.8050284  99.8657646  39.4197357  23.4380275 100.3679355
  39.5566699  22.2051479  99.5001006  30.1755485  18.9481018  93.0789154
  29.3392797  19.2855704  93.3998429  30.0360255  18.8129998  92.1416291
  33.2619770  24.0737101  89.7021631  32.3546832  23.8426354  89.9012780
  33.7590802  23.2774720  89.8895612  36.1687849  32.7834608  92.6218317
  35.4949548  33.0866305  93.2303275  36.5553671  33.5863688  92.2723774
  36.1681354  21.6791155  97.2418666  36.9153173  22.1912552  96.9325788
  36.4372943  21.3575208  98.1023060  34.4408004  24.1749696  94.2245621
  33.5319223  23.8908728  94.3218090  34.4703088  24.5948774  93.3648927
  39.6727271  27.7856285  97.9936788  39.2189598  26.9447195  98.0501979
  39.0421238  28.4217683  98.3311568  38.6160191  18.7148271  99.2237456
  37.8782948  18.2025657  99.5547698  38.8686964  18.2748653  98.4120733
  38.1160211  29.6232782  98.9286606  38.4083185  30.1837839  98.2098972
  38.6258831  29.9161343  99.6839765  32.9892898  21.7878316 100.3255416
  33.0441508  20.8352153 100.2497893  32.1784100  21.9437755 100.8096714
  34.1384092  25.7158439  91.5633699  33.7003522  24.9994298  91.1039337
  34.8794533  25.9434554  91.0018791  30.9285258  20.4055376  98.0845795
  30.1153123  20.7049546  98.4910987  31.4244252  20.0111065  98.8020277
  33.0793836  30.4013133 100.0180060  33.0370015  30.6273979  99.0888592
  33.9956535  30.1676507 100.1665861  42.2557207  23.9915636  97.6210018
  42.1175105  24.1817232  96.6931207  41.8993425  24.7535019  98.0778069
  42.2826586  26.0592163 102.6321289  42.7163093  25.9667452 103.4804343
  42.9958167  26.0349664 101.9941305  31.1959637  27.2776162  99.8142022
  31.9900235  26.7826482  99.6124597  30.4851329  26.7494025  99.4509728
  36.0154481  29.6594257 104.1654390  36.0691503  30.2285194 104.9332106
  35.1469262  29.8296142 103.8008427  27.5042400  21.4219244  95.8901775
  26.5739988  21.3603699  96.1071737  27.5999872  20.8995196  95.0938416
  43.1442136  26.1015864 105.1654175  43.3378026  27.0061674 105.4113450
  43.0442754  25.6423283 105.9992760  33.7730913  27.8505184 103.4939859
  33.6341998  27.4823968 104.3665797  32.9845509  28.3652823 103.3223817
  34.3679065  32.9514280  94.8365396  34.5430820  32.4802324  95.6511019
  33.6811853  33.5780047  95.0646657  35.3236128  27.2286787 100.8828697
  34.9885960  27.1887557 101.7786347  34.8240073  26.5631502 100.4099107
  38.2595319  24.5742821  91.1565757  37.6424490  23.8489649  91.0598809
  37.7911808  25.3352181  90.8132831  28.9340150  36.1003643 101.6105256
  29.1736748  36.7322167 102.2884275  28.0909346  35.7491683 101.8970615
  30.0493865  18.7928245  90.2787061  29.1723332  18.6717046  89.9149308
  30.5251618  18.0014323  90.0265950  33.4468012  31.9082766 104.0146760
  33.3738183  32.7137737 104.5266065  33.0045405  32.1074731 103.1894781
  33.2357791  31.1454536  97.5249582  32.4525313  31.6876216  97.6187806
  33.9350536  31.6628515  97.9243823  36.5454441  16.9549165 100.1683787
  37.0423141  16.2019127  99.8484857  35.7741423  16.9913482  99.6026996
  44.3984199  22.6589531 101.8102078  44.3874075  23.5414246 101.4396012
  43.5301578  22.3061081 101.6156616  35.9066695  31.8069600 106.1704919
  36.6194667  32.4417064 106.0980820  35.4156724  31.9033466 105.3544921
  37.6284222  25.7120852  97.7422210  36.6940501  25.8322315  97.5726915
  37.8060891  24.8093319  97.4782220  41.0156773  21.5538172  98.2772245
  41.4817226  22.3866163  98.2032547  41.4664274  21.0883153  98.9817503
  39.0833005  27.8981993  95.2758397  39.3592848  27.7838587  96.1852271
  38.2137503  27.4999478  95.2370570  35.7187069  32.1468344  98.9191210
  35.9009463  31.3290000  99.3818962  36.5420055  32.3636036  98.4816100
  36.0529234  31.0736529  96.1806259  36.5817001  30.5628983  95.5676421
  36.3157454  30.7579059  97.0451792  29.4084982  32.1251645  98.9404035
  28.7395357  32.6097773  98.4568075  29.2697852  32.3720866  99.8547413
  33.5490251  34.1595389 105.5386693  34.1008559  34.3227010 106.3035778
  33.8896444  34.7499827 104.8666718  24.7772559  20.3870100  95.7199967
  25.0726000  19.4780779  95.6667020  23.8760595  20.3657840  95.3980969
  36.6858638  32.1077365 102.5250375  36.5609777  31.3067104 102.0161321
  37.3437729  32.6023558 102.0364345  38.7493546  29.9086385 104.1529925
  37.8023882  29.7891736 104.0808252  39.0976319  29.0208883 104.2356187
  26.5060401  18.0684198  95.8439292  26.1773107  17.1881577  95.6614398
  26.8599771  18.0131867  96.7315681  35.7539980  29.7039101 100.3534277
  35.6064942  28.7755808 100.5341847  36.5793473  29.7259192  99.8691353
  29.6202224  18.3557168  96.2114770  29.9598296  18.8843089  95.4893378
  30.0674344  18.6937574  96.9873336  39.3574101  30.5267660 101.4399150
  40.2820649  30.3210521 101.3023601  39.1889405  30.2784061 102.3488492
  31.6070371  16.8531789  94.4108062  32.3278733  17.2313042  93.9071779
  30.9835675  17.5720666  94.5143040  35.7501494  17.5576938  95.3466395
  35.9665108  18.4401576  95.0455223  35.2695561  17.1663152  94.6172037
  39.1469418  31.0453327  96.7961242  39.3206295  30.4799749  96.0435094
  39.6398309  31.8454222  96.6140732  31.7533994  16.3879580  97.2405599
  31.8749905  15.4596226  97.4396486  31.4636036  16.4018266  96.3283914
  45.0008809  23.8089750  98.4151541  45.4439955  23.0597075  98.0170665
  44.1235319  23.7999886  98.0325273  40.1344590  30.3620091  93.8958140
  40.8295495  30.9826784  94.1145455  40.4767740  29.5115443  94.1710518
  42.0336013  27.8119797  95.4245471  42.5587337  28.1507070  94.6994791
  41.9458366  26.8766812  95.2408605  33.7176674  33.8791780  99.7840724
  33.2781664  33.3868159 100.4773581  34.4684791  33.3364748  99.5432799
  26.1969013  30.0703321  99.7865352  27.0227033  29.7707093  99.4063995
  25.8463065  29.3010943 100.2355141  31.1650546  29.4229789 101.8563026
  30.5430555  28.7600494 101.5565253  31.8355413  29.4490921 101.1736673
  24.3977618  27.9889648 100.7454286  23.5609526  27.5611822 100.5638287
  24.3701263  28.1822091 101.6825077  30.7264053  27.9733713  95.3321486
  30.8752173  28.6569177  94.6788159  31.5330496  27.9538803  95.8470942
  43.3445991  27.7142108 108.2871419  43.0530799  28.0772089 109.1234880
  42.7318122  27.0009117 108.1084751  44.5441673  25.2794988 100.8073989
  45.3788565  25.7184792 100.9711549  44.6800802  24.8033641  99.9882235
  28.4816686  23.9998890  96.3382555  28.2362728  23.0961220  96.5362765
  28.6512601  24.0016041  95.3962033  27.7512334  19.7327248  93.8368716
  27.0581578  19.8071603  93.1808752  27.5064085  18.9687591  94.3590233
  34.2259459  30.4681843  92.8033234  33.6533426  31.0872030  92.3503705
  34.7992252  31.0181205  93.3373155  37.4456718  30.7518993  93.9341816
  38.3787391  30.6864555  94.1374691  37.3579931  31.5875260  93.4756348
  40.0744735  30.0684864  90.8945763  39.9958367  29.7344727  91.7881521
  40.8954402  30.5606631  90.8937236  42.7722926  22.9346603 104.1022082
  42.7399246  21.9962604 104.2881766  43.3823550  23.0130640 103.3687907
  34.6106257  21.8042656  90.1449286  35.5565362  21.6748864  90.2137704
  34.2320502  21.0657318  90.6218714  48.5899476  23.9962610 103.2428119
  49.3202865  23.7347898 103.8035822  47.9806422  23.2591332 103.2830187
  46.6714773  22.1370472 103.8402570  45.9447937  22.0026437 103.2319062
  46.2562060  22.4447301 104.6459288  32.7949174  19.7292632  90.0804171
  31.8880630  19.4325745  90.1566885  33.0725155  19.4322450  89.2138457
  34.4111240  14.2729522  96.2348413  33.6011968  13.9276607  96.6103659
  35.0995657  13.9637066  96.8236024  31.5647959  16.5879567  90.2216150
  32.4267123  16.9134466  90.4811968  31.7498303  15.8011063  89.7089216
  39.7180595  15.4608094  97.3651373  39.1379264  16.1192898  96.9829426
  39.4516528  14.6385438  96.9538791  38.5005473  17.6208184  96.4207722
  37.6131328  17.9057835  96.2027916  38.9159462  17.4601948  95.5734999
  41.8520009  17.6454705 100.1362061  42.6280400  18.1351158 100.4086678
  41.1268144  18.0712759 100.5933930  44.2892568  18.3582324 101.1936002
  44.8837059  18.1178060 100.4829310  44.3619152  17.6389455 101.8209538
  26.5089724  32.2015935 101.5079166  26.3744192  31.4416336 100.9417164
  26.0921786  32.9256835 101.0407955  37.6448687  27.3852859  90.5155742
  38.3484537  27.5902861  91.1313397  36.9211336  27.9529621  90.7804825
  38.4746497  23.1362720  96.6358012  38.4181698  23.5931272  95.7965644
  39.0274840  22.3753405  96.4580855  42.2851303  18.9252452  97.4608131
  42.0288237  18.5249088  98.2916339  41.6604171  19.6396246  97.3358270
  46.5963641  21.6648525  99.9679423  46.0363199  21.7341715 100.7410985
  45.9907144  21.4889510  99.2478919  29.6658850  33.0985252 101.7197609
  29.5491234  34.0430685 101.6176299  28.8451296  32.7958814 102.1083408
  39.5535384  27.8235388  92.5654202  40.3880988  27.3916587  92.3831677
  39.3919727  27.6517402  93.4931096  39.2081276  24.3267501  93.9310541
  39.1530080  24.1611773  92.9898985  38.5827332  25.0343534  94.0872731
  32.5177402  13.8275610  93.5095859  32.5056072  14.7717450  93.6664130
  33.4100824  13.6445756  93.2155321  30.6913364  33.7513514 104.9353537
  31.5940610  33.7837125 105.2520032  30.4650734  32.8213965 104.9499873
  32.4466966  32.5044501 101.5963616  31.4962597  32.5046362 101.4827988
  32.7499452  31.7577235 101.0799651  48.1819659  38.3405039 102.6609378
  48.8198069  38.2211787 101.9572719  48.0640502  39.2885883 102.7197331
  44.9909366  38.2932467 102.5970903  44.6527877  38.1773532 101.7091438
  45.8599134  37.8923632 102.5771909  40.8496181  40.1467944  98.5867794
  40.2861046  40.0557881  97.8184082  40.7348576  39.3267848  99.0670287
  45.4729149  39.4467319 108.5557109  45.4617789  39.0520117 107.6837612
  45.6349788  38.7133392 109.1490880  38.3960613  41.6419135 101.4252015
  39.1881905  41.3009960 101.0098314  38.6357263  41.7514110 102.3454168
  46.4295740  43.8138911  93.8982259  45.7783720  44.3992992  93.5116273
  47.2240103  44.3445106  93.9577296  40.3551367  40.9028049  94.2969393
  41.1282243  40.3557036  94.1582269  40.7076766  41.7672298  94.5083855
  42.1936410  42.2304431 107.5036293  41.9026276  43.1350062 107.3882959
  42.8293394  42.2720959 108.2180362  43.1192617  39.6081279 104.0937652
  43.7156189  39.3837302 103.3794615  43.1767588  38.8666025 104.6963100
  42.6917645  37.0620715  91.9287843  42.9443166  36.5402236  91.1671306
  41.7542204  36.8986860  92.0314527  47.7360928  36.0656493  99.7362587
  48.5224017  35.6475916  99.3853004  47.9999632  36.9702585  99.9044235
  47.9071005  41.5029343  94.4351243  47.2716838  41.5763970  95.1472148
  47.5768412  42.0922942  93.7570323  53.1369355  36.0031726 100.6395565
  53.8694527  35.4330943 100.8733395  52.3808711  35.6153327 101.0802071
  42.4113934  38.9648821  94.1312218  42.2950192  38.2893724  94.7993303
  42.5216194  38.4781195  93.3144371  44.7545475  38.4258968  97.8358907
  44.3903682  37.8989589  98.5471829  45.6112591  38.0357437  97.6625393
  50.6594775  29.7153300 105.0990174  50.3278100  30.5848711 104.8751389
  50.0640389  29.3989584 105.7784204  44.3950962  33.4548867  92.8320256
  44.5625364  34.3229104  93.1990727  44.2048131  33.6176149  91.9081545
  47.1526295  41.9165846 104.4986086  46.8527018  42.8190885 104.3901894
  46.8077354  41.6498030 105.3507239  40.6038776  38.3679643 100.5322791
  39.6789273  38.2355857 100.7400483  40.8523189  39.1473862 101.0292733
  50.5523439  34.4348387 102.1783524  49.6440316  34.3663795 101.8842285
  50.5011034  34.9120332 103.0065349  44.3740182  35.9106525  93.8166923
  44.2539808  36.3563576  94.6552403  43.6792771  36.2591843  93.2580461
  37.9647587  38.0112917 101.3666580  38.0939968  38.2647396 102.2805992
  37.2845039  38.6040625 101.0471235  42.1347075  48.6810167  97.4657054
  42.0571104  49.6317992  97.5445535  41.5308718  48.3356039  98.1231980
  44.6264304  35.8538032 110.1218421  43.8497638  36.4131952 110.1121286
  45.2654867  36.3394815 110.6433291  52.4185085  32.6364825 103.9561398
  51.7759465  32.9297358 103.3101192  51.9140014  32.5217745 104.7614594
  50.0725249  36.3827998  94.6447257  50.9843105  36.6155385  94.4694954
  49.5634896  36.9665042  94.0822335  42.8810677  38.6623486 109.6836388
  43.6225361  39.2008530 109.4071212  42.1747662  39.2889774 109.8407940
  48.3566016  40.8052626 108.2808549  48.7649372  40.3635037 107.5363182
  47.6343278  40.2305254 108.5342742  44.7097086  35.7425233 105.6542106
  45.5558282  36.1664646 105.7976755  44.6495724  35.0858857 106.3480669
  48.6794831  41.3653817 102.0360838  48.0503693  41.5299531 101.3336906
  48.2920493  41.7795426 102.8071802  52.5584063  42.3008254  99.3905202
  51.8735101  42.6807156  98.8402235  52.6427912  42.9103581 100.1237150
  47.8596532  33.4029601 107.3123280  47.6157464  34.1571662 106.7757556
  48.1356462  33.7814949 108.1470527  49.8134994  39.9468214 105.9900546
  50.0251890  40.5899973 105.3134927  49.7664743  39.1130530 105.5222476
  47.4161223  32.5586034 102.8937118  46.5545702  32.8567288 103.1853855
  47.4423658  32.7756433 101.9618150  44.2322793  41.1028225  99.3010923
  44.6961138  41.3815928  98.5115546  43.9679591  40.2011669  99.1184014
  41.1246874  40.6499706 102.2390687  41.6948231  41.0786975 101.6008171
  41.7154986  40.3682291 102.9374872  43.1691679  37.2251377  96.1100489
  43.8715722  37.6772421  96.5774415  42.8372307  36.5835196  96.7380382
  41.6172040  35.8163134 110.4851698  40.9870701  36.4979415 110.7187095
  41.5108128  35.7046215 109.5404836  36.9117013  35.4834930 101.4117622
  36.1216067  35.7392458 100.9357733  37.4028260  36.2983268 101.5169663
  50.9280822  42.8240169 104.1622903  51.7498266  42.4220356 103.8805585
  50.9243225  42.7208403 105.1139019  38.8631758  35.8479509  98.3701099
  38.0662922  35.9598203  98.8884594  38.6357350  36.1866161  97.5041989
  44.6937426  42.3724212 106.3183613  44.7581858  42.8344619 107.1541785
  43.9848350  41.7421577 106.4465923  35.1954716  35.7365420 103.8432613
  35.4462754  36.6212430 104.1090189  35.7314264  35.5570022 103.0707705
  59.0186815  39.1678917 100.5107874  58.2650524  38.5986315 100.3551879
  59.1534357  39.1341582 101.4578509  44.4085443  44.0392320  96.1862594
  44.2731118  44.8843855  96.6147442  44.9495256  44.2411597  95.4228528
  37.8614841  41.5567758  96.7590519  38.3739361  42.3511008  96.9096084
  38.5137554  40.8594048  96.6924120  39.6709726  44.6733514  98.8413272
  39.8476354  45.5951479  98.6534256  40.4666559  44.3591933  99.2707652
  43.8120744  31.5341779 110.4397206  44.5530458  32.1348932 110.3601668
  44.0438667  30.7919416 109.8815248  38.9562082  36.7198146 108.7175435
  38.8415597  35.8183403 109.0182534  38.1006600  36.9661843 108.3660252
  46.0353920  44.6615886 110.3162936  45.5917774  43.8752265 109.9983840
  46.6971133  44.8495037 109.6506827  40.7941041  46.1911688 104.8423614
  41.3448466  46.0628751 104.0700608  39.9552517  46.4906577 104.4918507
  48.1335158  44.9418686 108.3444337  48.1153633  45.7627567 107.8524606
  49.0555078  44.8172761 108.5694478  44.5908212  42.4562816 109.1867845
  45.1236549  41.6951104 108.9567153  44.0622293  42.1636467 109.9292000
  47.7577907  27.5622882 104.7161487  47.4142176  28.4524523 104.6400598
  48.1256870  27.3724539 103.8531072  35.8263758  39.8856412  97.5350089
  36.6638980  40.2953420  97.3183797  36.0042025  38.9455854  97.5050283
  47.7228190  37.5531493  93.2233922  47.2074813  38.3236097  93.4622310
  47.4505498  36.8796629  93.8466984  45.3075301  32.3981193  98.2819161
  44.4516897  32.0088044  98.1024799  45.7202253  32.4773154  97.4218946
  46.8374447  29.9327537 102.6810720  46.3339243  29.8957672 101.8678526
  47.1305054  30.8420279 102.7407377  43.0817333  30.0166266 101.6876902
  43.9470330  29.8209075 101.3282792  43.1494842  29.7876618 102.6146259
  52.6962464  40.3063847  95.1587096  51.9191907  39.9675007  94.7142258
  53.3753945  40.3116471  94.4842061  47.5114493  35.4258585  95.0493704
  47.2064629  35.7404734  95.9003847  48.4644935  35.5040005  95.0921037
  45.9560925  41.5848808  96.6986658  45.4282286  40.8501568  96.3859895
  45.4548428  42.3623484  96.4526626  50.9353771  39.7797829 101.8153704
  50.2777445  40.4697090 101.9033832  51.7394170  40.1694261 102.1587690
  40.6879652  32.2468474  99.0593269  41.2623404  32.0243656  98.3266462
  41.2750635  32.3157169  99.8121870  49.7459230  38.1342201  99.8657646
  50.2591111  38.7672193 100.3679355  50.3960454  37.5343397  99.5001006
  41.0149240  34.2772935  93.0789154  40.1786552  34.6147622  93.3998429
  40.8754009  34.1421915  92.1416291  42.9902320  29.1209723  97.7868338
  42.3366732  28.8058740  97.1624953  42.9482794  28.4985464  98.5128161
  44.1013525  39.4029018  89.7021631  43.1940587  39.1718272  89.9012780
  44.5984557  38.6066638  89.8895612  47.0081604  48.1126526  92.6218317
  46.3343303  48.4158222  93.2303275  47.3947426  48.9155606  92.2723774
  46.2240060  35.6091657 102.1115986  45.3062622  35.8306604 101.9537674
  46.6400204  35.6837967 101.2527693  47.0075108  37.0083073  97.2418666
  47.7546927  37.5204470  96.9325788  47.2766698  36.6867125  98.1023060
  45.2801758  39.5041613  94.2245621  44.3712978  39.2200646  94.3218090
  45.3096842  39.9240692  93.3648927  50.5121026  43.1148203  97.9936788
  50.0583353  42.2739113  98.0501979  49.8814993  43.7509601  98.3311568
  49.4553945  34.0440189  99.2237456  48.7176702  33.5317575  99.5547698
  49.7080719  33.6040570  98.4120733  48.9553965  44.9524699  98.9286606
  49.2476939  45.5129757  98.2098972  49.4652586  45.2453260  99.6839765
  49.5565573  26.8216441  99.8179225  49.8624450  25.9613804  99.5305140
  50.2818178  27.4134061  99.6178219  35.8489929  37.2247127  98.2060823
  35.6514329  36.6316488  97.4811889  35.2936593  36.9199338  98.9236762
  43.8286652  37.1170234 100.3255416  43.8835262  36.1644070 100.2497893
  43.0177854  37.2729673 100.8096714  44.9777846  41.0450357  91.5633699
  44.5397276  40.3286216  91.1039337  45.7188287  41.2726472  91.0018791
  41.7679012  35.7347294  98.0845795  40.9546878  36.0341464  98.4910987
  42.2638007  35.3402982  98.8020277  43.9187590  45.7305051 100.0180060
  43.8763769  45.9565897  99.0888592  44.8350289  45.4968425 100.1665861
  47.3653224  36.1989118 106.9160689  47.7202612  36.4260591 107.7755154
  48.0125355  36.5307495 106.2937944  53.0950961  39.3207554  97.6210018
  52.9568860  39.5109150  96.6931207  52.7387180  40.0826937  98.0778069
  41.2593087  33.3065649 103.7007030  41.8992466  33.1654408 103.0029993
  40.4270618  33.0200163 103.3245632  53.1220341  41.3884081 102.6321289
  53.5556847  41.2959370 103.4804343  53.8351921  41.3641581 101.9941305
  42.0353391  42.6068080  99.8142022  42.8293990  42.1118400  99.6124597
  41.3245083  42.0785943  99.4509728  46.8548236  44.9886175 104.1654390
  46.9085258  45.5577111 104.9332106  45.9863017  45.1588060 103.8008427
  38.3436155  36.7511161  95.8901775  37.4133743  36.6895617  96.1071737
  38.4393627  36.2287114  95.0938416  38.2621704  33.2765974  98.4780017
  38.5228521  34.1911307  98.3689177  39.0838876  32.8090417  98.6276629
  39.7346629  34.6903731 105.6478841  40.4069682  34.4821093 104.9991490
  38.9076415  34.4925817 105.2084073  53.9835890  41.4307782 105.1654175
  54.1771780  42.3353592 105.4113450  53.8836508  40.9715201 105.9992760
  45.6372201  31.3165672 107.6644502  44.9900116  32.0155622 107.5708978
  46.4073216  31.7501816 108.0320750  49.0450999  41.5814524 110.7395055
  48.8936505  41.3525076 109.8225139  49.0355678  42.5385126 110.7526400
  45.8136335  39.1546437 105.7241322  46.7428395  39.3057597 105.5510289
  45.3927365  39.2430458 104.8689968  44.6124667  43.1797102 103.4939859
  44.4735753  42.8115886 104.3665797  43.8239263  43.6944741 103.3223817
  45.2072819  48.2806198  94.8365396  45.3824575  47.8094241  95.6511019
  44.5205607  48.9071964  95.0646657  46.1629882  42.5578704 100.8828697
  45.8279715  42.5179474 101.7786347  45.6633828  41.8923420 100.4099107
  40.1374126  37.9646334 106.4081278  39.9993924  37.2326573 107.0092817
  41.0479050  37.8755234 106.1265466  49.0989074  39.9034739  91.1565757
  48.4818244  39.1781567  91.0598809  48.6305562  40.6644099  90.8132831
  42.7656427  37.6766294 105.8964958  43.4756045  37.0359486 105.8551576
  42.7225735  37.9279188 106.8191139  50.7543206  44.6133647 108.8171537
  50.6955752  43.9292867 108.1502120  51.1562724  45.3552637 108.3652163
  41.4785361  34.6631511 107.7160597  40.9422718  34.2122250 108.3682194
  40.8902069  34.7977420 106.9731062  40.8887620  34.1220163  90.2787061
  40.0117086  34.0008964  89.9149308  41.3645373  33.3306241  90.0265950
  50.7560613  42.5773231 107.0485517  49.8687392  42.2399153 107.1711916
  51.3259164  41.8456262 107.2854282  32.4089760  38.9097323 100.3728568
  33.0960800  38.5959053  99.7849584  32.2537889  39.8138687 100.0995820
  37.2124482  33.7987519 104.8013592  37.1282671  33.1913189 104.0664002
  36.3907188  34.2896537 104.8023088  44.2861766  47.2374683 104.0146760
  44.2131938  48.0429655 104.5266065  43.8439159  47.4366649 103.1894781
  44.0751546  46.4746453  97.5249582  43.2919068  47.0168133  97.6187806
  44.7744291  46.9920433  97.9243823  47.3848196  32.2841083 100.1683787
  47.8816895  31.5311045  99.8484857  46.6135177  32.3205399  99.6026996
  55.2377953  37.9881448 101.8102078  55.2267830  38.8706164 101.4396012
  54.3695333  37.6352999 101.6156616  46.7460450  47.1361517 106.1704919
  47.4588422  47.7708982 106.0980820  46.2550478  47.2325383 105.3544921
  48.4677977  41.0412770  97.7422210  47.5334255  41.1614232  97.5726915
  48.6454645  40.1385237  97.4782220  43.9683165  34.4258466  99.8955472
  43.5980952  33.8729506 100.5836377  44.4642257  33.8216599  99.3430472
  51.8550528  36.8830089  98.2772245  52.3210980  37.7158081  98.2032547
  52.3058028  36.4175071  98.9817503  41.7972363  44.8855961 106.9910490
  42.4981823  45.5192444 107.1439884  41.3267478  45.2270692 106.2306129
  49.9226759  43.2273910  95.2758397  50.1986603  43.1130505  96.1852271
  49.0531258  42.8291395  95.2370570  49.8267191  29.2510676 102.3163146
  48.9130270  29.4814903 102.4845353  50.2560292  29.3349120 103.1677178
  49.5973649  37.4400568 104.8163040  48.9445099  37.6876476 104.1615493
  49.9754029  36.6264706 104.4825517  46.5580823  47.4760261  98.9191210
  46.7403218  46.6581917  99.3818962  47.3813809  47.6927954  98.4816100
  46.8922989  46.4028446  96.1806259  47.4210755  45.8920901  95.5676421
  47.1551208  46.0870977  97.0451792  45.6461222  38.1820379 111.3029077
  44.9701859  38.0814509 111.9731452  46.4688856  38.0259593 111.7665074
  37.3940081  44.4192316 103.9241592  37.9793518  43.6736004 104.0569496
  37.1964920  44.7296272 104.8078256  40.2478737  47.4543563  98.9404035
  39.5789112  47.9389691  98.4568075  40.1091606  47.7012784  99.8547413
  31.9857736  36.9897916 102.6446035  32.0241836  36.4561507 103.4383153
  31.4798029  36.4633121 102.0257013  44.3884005  49.4887307 105.5386693
  44.9402313  49.6518928 106.3035778  44.7290199  50.0791744 104.8666718
  39.3648498  31.8362456 106.1408578  39.4289825  32.6977287 105.7285975
  39.3015619  31.2236458 105.4080936  38.8400771  33.9085589 109.7881612
  39.4672810  33.5262666 110.4019136  37.9828690  33.6899791 110.1537304
  49.2394879  44.3148564 111.3935347  49.7834783  44.9278522 110.8990302
  48.6581724  44.8728143 111.9102360  35.6166314  35.7162018  95.7199967
  35.9119755  34.8072697  95.6667020  34.7154349  35.6949758  95.3980969
  47.5252392  47.4369282 102.5250375  47.4003532  46.6359022 102.0161321
  48.1831483  47.9315476 102.0364345  39.1460561  33.7918015 101.7027515
  38.4247146  34.4053982 101.5634989  39.9353816  34.3275780 101.6244161
  49.5887301  45.2378302 104.1529925  48.6417636  45.1183653 104.0808252
  49.9370074  44.3500800 104.2356187  41.9486874  31.1272441 107.9768167
  42.4721276  31.3734738 108.7394476  41.7299207  31.9592476 107.5571304
  37.3454155  33.3976116  95.8439292  37.0166861  32.5173495  95.6614398
  37.6993526  33.3423784  96.7315681  46.5933734  45.0331018 100.3534277
  46.4458696  44.1047726 100.5341847  47.4187228  45.0551109  99.8691353
  40.4595978  33.6849086  96.2114770  40.7992051  34.2135007  95.4893378
  40.9068099  34.0229492  96.9873336  50.1967856  45.8559577 101.4399150
  51.1214403  45.6502439 101.3023601  50.0283159  45.6075978 102.3488492
  43.1539419  32.0686136 105.6617838  42.8136240  31.2693949 106.0638518
  42.4478425  32.3687847 105.0894671  43.8055891  29.1535449 104.1145161
  44.6281960  28.6795927 103.9924051  44.0493955  29.9325932 104.6143847
  42.4464125  32.1823707  94.4108062  43.1672488  32.5604960  93.9071779
  41.8229430  32.9012584  94.5143040  46.5895248  32.8868856  95.3466395
  46.8058863  33.7693494  95.0455223  46.1089316  32.4955070  94.6172037
  41.3294470  35.8454569 101.9237139  41.1839050  36.1594872 102.8161421
  40.8519673  36.4639470 101.3708038  43.1890853  32.8357117 101.9718029
  43.1752421  31.9398211 101.6350327  43.9063281  32.8427781 102.6056315
  45.0416983  33.2694458 104.0171156  44.7834761  34.1911528 104.0155487
  44.5102024  32.8724892 104.7071620  49.9863172  46.3745245  96.7961242
  50.1600050  45.8091667  96.0435094  50.4792063  47.1746140  96.6140732
  35.8040132  38.3859914 104.8624800  35.2593600  39.1619722 104.9945075
  36.6819482  38.7330718 104.7043922  42.5927749  31.7171498  97.2405599
  42.7143660  30.7888144  97.4396486  42.3029791  31.7310184  96.3283914
  45.4618939  29.4026408 100.3772319  45.4840636  29.4665741  99.4224298
  45.8786998  28.5630917 100.5712825  55.8402563  39.1381668  98.4151541
  56.2833709  38.3888993  98.0170665  54.9629074  39.1291804  98.0325273
  50.9738345  45.6912009  93.8958140  51.6689249  46.3118702  94.1145455
  51.3161495  44.8407360  94.1710518  36.5906154  37.5129810 107.7554957
  35.8487890  37.6612445 108.3419588  36.2698898  37.7738076 106.8921707
  52.8729768  43.1411715  95.4245471  53.3981092  43.4798987  94.6994791
  52.7852120  42.2058730  95.2408605  44.5349816  47.0545788 107.5535347
  44.8436943  46.8094935 108.4258047  45.3325298  47.2592427 107.0654218
  44.5570428  49.2083698  99.7840724  44.1175419  48.7160077 100.4773581
  45.3078545  48.6656666  99.5432799  37.0362767  45.3995239  99.7865352
  37.8620787  45.0999011  99.4063995  36.6856819  44.6302861 100.2355141
  42.0044301  44.7521707 101.8563026  41.3824310  44.0892412 101.5565253
  42.6749168  44.7782839 101.1736673  35.2371372  43.3181565 100.7454286
  34.4003281  42.8903740 100.5638287  35.2095018  43.5114009 101.6825077
  42.0768828  33.2303495 111.4495532  42.1256984  34.1065618 111.0673301
  42.6191342  32.6880888 110.8767175  52.5623674  43.7744618 110.7296669
  51.7719217  43.7568757 110.1901168  52.3257028  44.3132912 111.4845705
  52.6821549  40.6237085 108.0429397  52.7319554  40.4587092 108.9844920
  52.5735472  39.7564344 107.6527278  41.5657808  43.3025630  95.3321486
  41.7145928  43.9861095  94.6788159  42.3724251  43.2830720  95.8470942
  49.9725311  36.6068013 109.3588704  50.8735174  36.4674477 109.0672702
  50.0473286  36.7722467 110.2986881  44.3068117  33.9834867 108.2041890
  43.4371426  34.2768433 107.9324479  44.5427597  34.5675312 108.9249154
  54.1839746  43.0434026 108.2871419  53.8924554  43.4064007 109.1234880
  53.5711877  42.3301034 108.1084751  55.3835428  40.6086906 100.8073989
  56.2182319  41.0476710 100.9711549  55.5194557  40.1325559  99.9882235
  52.4326934  38.1666641 106.7551477  52.9081055  38.3594287 105.9470328
  51.5092499  38.2225827 106.5094860  39.3210441  39.3290808  96.3382555
  39.0756482  38.4253138  96.5362765  39.4906355  39.3307958  95.3962033
  47.0107150  30.2014484 105.7207311  47.5289094  30.9375511 105.3953799
  46.6562283  30.5078478 106.5554070  38.5906088  35.0619166  93.8368716
  37.8975333  35.1363520  93.1808752  38.3457840  34.2979509  94.3590233
  47.2619745  26.6214767 101.2408207  47.5421498  25.9537956 101.8668634
  48.0470351  26.8143862 100.7282871  45.0653213  45.7973761  92.8033234
  44.4927180  46.4163948  92.3503705  45.6386007  46.3473122  93.3373155
  51.1328603  35.0432401 104.9879782  52.0846026  35.1430499 105.0092006
  50.9632053  34.2510669 105.4977867  49.1542982  32.1287984 105.1739183
  48.5592914  32.4092997 104.4785672  48.8692679  32.6181885 105.9455924
  48.2850473  46.0810911  93.9341816  49.2181146  46.0156473  94.1374691
  48.1973686  46.9167178  93.4756348  50.9138490  45.3976781  90.8945763
  50.8352121  45.0636645  91.7881521  51.7348156  45.8898549  90.8937236
  53.6116681  38.2638521 104.1022082  53.5793001  37.3254521 104.2881766
  54.2217304  38.3422557 103.3687907  45.4500012  37.1334574  90.1449286
  46.3959116  37.0040782  90.2137704  45.0714256  36.3949235  90.6218714
  53.7611169  35.0549564 104.1480365  53.2450218  34.2708021 103.9610294
  54.6451118  34.7268281 104.3126885  51.4221896  28.7990580 100.1076178
  51.2246717  28.4905668 100.9919510  52.0321602  29.5252218 100.2374108
  59.4293231  39.3254527 103.2428119  60.1596619  39.0639816 103.8035822
  58.8200176  38.5883249 103.2830187  57.5108528  37.4662390 103.8402570
  56.7841691  37.3318355 103.2319062  57.0955815  37.7739219 104.6459288
  45.3338704  41.1852320 111.6049943  46.2541714  41.3630919 111.7989989
  45.2988287  40.2408365 111.4529642  43.6342929  35.0584550  90.0804171
  42.7274384  34.7617663  90.1566885  43.9118910  34.7614368  89.2138457
  34.5520869  36.3790913 100.5303218  34.2323653  35.5256221 100.2377592
  34.0054297  36.5939491 101.2861185  38.3300777  39.0953354 104.2472724
  38.5486786  40.0270462 104.2660758  38.7426550  38.7361329 105.0327528
  45.2504994  29.6021440  96.2348413  44.4405723  29.2568525  96.6103659
  45.9389411  29.2928983  96.8236024  47.1795543  28.6799486  97.8572709
  47.7326581  29.0994940  98.5162732  47.4165629  27.7535235  97.8995665
  42.4041713  31.9171485  90.2216150  43.2660877  32.2426383  90.4811968
  42.5892057  31.1302981  89.7089216  34.4209129  39.9993825 102.4996339
  33.7272601  39.5847778 101.9866294  35.1682120  40.0414361 101.9029758
  50.5574350  30.7900012  97.3651373  49.9773019  31.4484816  96.9829426
  50.2910282  29.9677356  96.9538791  49.0077916  30.1905069  99.5672694
  49.5077695  30.3021604  98.7587013  49.6513524  29.8866122 100.2073502
  43.0659912  38.0983699 112.4540535  42.5826994  38.8984059 112.6604424
  43.1520851  38.1091644 111.5007979  36.3345872  39.9312079 100.3762354
  36.3116560  40.0299766  99.4244237  36.6446508  40.7777229 100.6979520
  38.9933249  41.9888234 104.4908969  39.9476503  41.9572176 104.4238900
  38.7945773  41.5278857 105.3059194  39.5832632  40.5589350 107.0579766
  40.4025521  41.0533428 107.0814603  39.8569439  39.6421318 107.0297334
  49.3399228  32.9500102  96.4207722  48.4525083  33.2349753  96.2027916
  49.7553217  32.7893865  95.5734999  52.6913764  32.9746623 100.1362061
  53.4674154  33.4643075 100.4086678  51.9661898  33.4004677 100.5933930
  55.1286323  33.6874242 101.1936002  55.7230813  33.4469978 100.4829310
  55.2012906  32.9681373 101.8209538  37.3483478  47.5307853 101.5079166
  37.2137946  46.7708254 100.9417164  36.9315541  48.2548753 101.0407955
  48.4842441  42.7144777  90.5155742  49.1878291  42.9194779  91.1313397
  47.7605090  43.2821539  90.7804825  49.3140252  38.4654638  96.6358012
  49.2575453  38.9223189  95.7965644  49.8668594  37.7045322  96.4580855
  53.1245057  34.2544370  97.4608131  52.8681992  33.8541005  98.2916339
  52.4997926  34.9688164  97.3358270  57.4357395  36.9940443  99.9679423
  56.8756953  37.0633632 100.7410985  56.8300899  36.8181428  99.2478919
  40.5052604  48.4277170 101.7197609  40.3884988  49.3722603 101.6176299
  39.6845050  48.1250732 102.1083408  50.3929139  43.1527306  92.5654202
  51.2274743  42.7208504  92.3831677  50.2313482  42.9809320  93.4931096
  50.0475031  39.6559419  93.9310541  49.9923835  39.4903691  92.9898985
  49.4221086  40.3635452  94.0872731  34.8367546  34.8927484 107.7571963
  35.4826409  34.3826437 108.2459188  34.6284697  35.6296165 108.3315388
  47.3620938  41.9608331 113.2564104  48.2312098  42.1348983 112.8950739
  46.8827690  42.7802748 113.1339833  43.3571156  29.1567528  93.5095859
  43.3449826  30.1009368  93.6664130  44.2494578  28.9737674  93.2155321
  41.5307118  49.0805432 104.9353537  42.4334365  49.1129042 105.2520032
  41.3044488  48.1505883 104.9499873  43.2860720  47.8336419 101.5963616
  42.3356351  47.8338280 101.4827988  43.5893206  47.0869153 101.0799651
  47.1723276  25.7510305  97.7641796  46.4055672  25.1968791  97.9098479
  47.5833981  25.8232174  98.6255948  59.0213414  53.6696957 102.6609378
  59.6591824  53.5503704 101.9572719  58.9034257  54.6177801 102.7197331
  55.8303120  53.6224385 102.5970903  55.4921632  53.5065450 101.7091438
  56.6992888  53.2215550 102.5771909  51.6889936  55.4759861  98.5867794
  51.1254801  55.3849798  97.8184082  51.5742331  54.6559766  99.0670287
  56.3122903  54.7759237 108.5557109  56.3011544  54.3812035 107.6837612
  56.4743543  54.0425309 109.1490880  51.1945122  56.2319966  94.2969393
  51.9675998  55.6848953  94.1582269  51.5470521  57.0964216  94.5083855
  53.0330164  57.5596349 107.5036293  52.7420030  58.4641979 107.3882959
  53.6687149  57.6012876 108.2180362  53.9586371  54.9373197 104.0937652
  54.5549943  54.7129219 103.3794615  54.0161343  54.1957943 104.6963100
  53.5311399  52.3912632  91.9287843  53.7836920  51.8694154  91.1671306
  52.5935959  52.2278778  92.0314527  58.5754682  51.3948411  99.7362587
  59.3617772  50.9767834  99.3853004  58.8393387  52.2994503  99.9044235
  58.7464760  56.8321261  94.4351243  58.1110593  56.9055888  95.1472148
  58.4162166  57.4214860  93.7570323  63.9763109  51.3323644 100.6395565
  64.7088281  50.7622861 100.8733395  63.2202465  50.9445244 101.0802071
  53.2507688  54.2940738  94.1312218  53.1343946  53.6185642  94.7993303
  53.3609948  53.8073112  93.3144371  55.5939229  53.7550885  97.8358907
  55.2297436  53.2281506  98.5471829  56.4506345  53.3649355  97.6625393
  61.4988530  45.0445218 105.0990174  61.1671855  45.9140629 104.8751389
  60.9034143  44.7281502 105.7784204  55.2344716  48.7840785  92.8320256
  55.4019118  49.6521022  93.1990727  55.0441885  48.9468067  91.9081545
  57.9920049  57.2457764 104.4986086  57.6920772  58.1482803 104.3901894
  57.6471109  56.9789947 105.3507239  51.4432531  53.6971561 100.5322791
  50.5183027  53.5647775 100.7400483  51.6916944  54.4765780 101.0292733
  61.3917193  49.7640304 102.1783524  60.4834070  49.6955713 101.8842285
  61.3404789  50.2412249 103.0065349  55.2133937  51.2398443  93.8166923
  55.0933562  51.6855493  94.6552403  54.5186525  51.5883760  93.2580461
  48.8041342  53.3404834 101.3666580  48.9333723  53.5939313 102.2805992
  48.1238793  53.9332542 101.0471235  55.4658059  51.1829950 110.1218421
  54.6891393  51.7423870 110.1121286  56.1048622  51.6686733 110.6433291
  63.2578839  47.9656743 103.9561398  62.6153220  48.2589276 103.3101192
  62.7533768  47.8509663 104.7614594  60.9119003  51.7119916  94.6447257
  61.8236859  51.9447303  94.4694954  60.4028650  52.2956960  94.0822335
  53.7204431  53.9915403 109.6836388  54.4619116  54.5300447 109.4071212
  53.0141417  54.6181692 109.8407940  59.1959771  56.1344544 108.2808549
  59.6043127  55.6926954 107.5363182  58.4737032  55.5597171 108.5342742
  55.5490841  51.0717150 105.6542106  56.3952036  51.4956564 105.7976755
  55.4889479  50.4150775 106.3480669  59.5188585  56.6945734 102.0360838
  58.8897448  56.8591448 101.3336906  59.1314248  57.1087344 102.8071802
  63.3977817  57.6300172  99.3905202  62.7128855  58.0099074  98.8402235
  63.4821667  58.2395499 100.1237150  58.6990286  48.7321519 107.3123280
  58.4551218  49.4863579 106.7757556  58.9750217  49.1106866 108.1470527
  60.6528749  55.2760131 105.9900546  60.8645644  55.9191891 105.3134927
  60.6058497  54.4422448 105.5222476  58.2554978  47.8877952 102.8937118
  57.3939457  48.1859205 103.1853855  58.2817413  48.1048351 101.9618150
  55.0716547  56.4320142  99.3010923  55.5354893  56.7107845  98.5115546
  54.8073345  55.5303587  99.1184014  51.9640628  55.9791624 102.2390687
  52.5341985  56.4078892 101.6008171  52.5548740  55.6974209 102.9374872
  54.0085433  52.5543295  96.1100489  54.7109477  53.0064338  96.5774415
  53.6766062  51.9127114  96.7380382  52.4565795  51.1455051 110.4851698
  51.8264455  51.8271332 110.7187095  52.3501883  51.0338133 109.5404836
  47.7510767  50.8126847 101.4117622  46.9609821  51.0684376 100.9357733
  48.2422015  51.6275185 101.5169663  61.7674577  58.1532087 104.1622903
  62.5892021  57.7512274 103.8805585  61.7636980  58.0500321 105.1139019
  49.7025513  51.1771427  98.3701099  48.9056676  51.2890121  98.8884594
  49.4751105  51.5158079  97.5041989  55.5331180  57.7016130 106.3183613
  55.5975613  58.1636537 107.1541785  54.8242104  57.0713495 106.4465923
  46.0348470  51.0657338 103.8432613  46.2856509  51.9504348 104.1090189
  46.5708019  50.8861939 103.0707705  69.8580570  54.4970835 100.5107874
  69.1044278  53.9278233 100.3551879  69.9928111  54.4633500 101.4578509
  55.2479198  59.3684237  96.1862594  55.1124873  60.2135773  96.6147442
  55.7889010  59.5703515  95.4228528  51.7346538  45.4475817 112.8476949
  51.3413483  44.8942016 113.5224593  52.5512678  45.7586396 113.2383467
  48.7008595  56.8859675  96.7590519  49.2133116  57.6802926  96.9096084
  49.3531308  56.1885966  96.6924120  50.5103480  60.0025432  98.8413272
  50.6870108  60.9243396  98.6534256  51.3060314  59.6883851  99.2707652
  54.6514499  46.8633696 110.4397206  55.3924212  47.4640849 110.3601668
  54.8832421  46.1211334 109.8815248  49.7955837  52.0490064 108.7175435
  49.6809352  51.1475321 109.0182534  48.9400354  52.2953760 108.3660252
  56.8747674  59.9907804 110.3162936  56.4311529  59.2044182 109.9983840
  57.5364888  60.1786954 109.6506827  51.6334796  61.5203605 104.8423614
  52.1842221  61.3920669 104.0700608  50.7946271  61.8198495 104.4918507
  58.9728912  60.2710604 108.3444337  58.9547388  61.0919485 107.8524606
  59.8948832  60.1464679 108.5694478  55.4301967  57.7854733 109.1867845
  55.9630303  57.0243021 108.9567153  54.9016048  57.4928385 109.9292000
  58.5971662  42.8914799 104.7161487  58.2535931  43.7816441 104.6400598
  58.9650624  42.7016457 103.8531072  58.5621944  52.8823410  93.2233922
  58.0468568  53.6528015  93.4622310  58.2899253  52.2088547  93.8466984
  56.1469055  47.7273111  98.2819161  55.2910652  47.3379962  98.1024799
  56.5596007  47.8065072  97.4218946  57.6768202  45.2619454 102.6810720
  57.1732998  45.2249590 101.8678526  57.9698809  46.1712197 102.7407377
  53.9211088  45.3458184 101.6876902  54.7864085  45.1500993 101.3282792
  53.9888597  45.1168536 102.6146259  63.5356218  55.6355765  95.1587096
  62.7585661  55.2966925  94.7142258  64.2147699  55.6408388  94.4842061
  58.3508247  50.7550502  95.0493704  58.0458383  51.0696652  95.9003847
  59.3038690  50.8331922  95.0921037  56.7954679  56.9140726  96.6986658
  56.2676041  56.1793485  96.3859895  56.2942182  57.6915402  96.4526626
  61.7747525  55.1089746 101.8153704  61.1171200  55.7989008 101.9033832
  62.5787925  55.4986178 102.1587690  51.5273407  47.5760392  99.0593269
  52.1017159  47.3535574  98.3266462  52.1144389  47.6449087  99.8121870
  60.5852984  53.4634119  99.8657646  61.0984866  54.0964111 100.3679355
  61.2354208  52.8635314  99.5001006  51.8542994  49.6064853  93.0789154
  51.0180306  49.9439540  93.3998429  51.7147764  49.4713833  92.1416291
  53.8296075  44.4501641  97.7868338  53.1760487  44.1350658  97.1624953
  53.7876549  43.8277381  98.5128161  54.9407279  54.7320936  89.7021631
  54.0334341  54.5010190  89.9012780  55.4378311  53.9358555  89.8895612
  57.0633815  50.9383575 102.1115986  56.1456376  51.1598522 101.9537674
  57.4793959  51.0129885 101.2527693  57.8468863  52.3374990  97.2418666
  58.5940682  52.8496387  96.9325788  58.1160452  52.0159043  98.1023060
  56.1195513  54.8333531  94.2245621  55.2106732  54.5492564  94.3218090
  56.1490597  55.2532609  93.3648927  61.3514780  58.4440120  97.9936788
  60.8977107  57.6031030  98.0501979  60.7208747  59.0801519  98.3311568
  60.2947700  49.3732106  99.2237456  59.5570457  48.8609493  99.5547698
  60.5474473  48.9332488  98.4120733  59.7947720  60.2816617  98.9286606
  60.0870694  60.8421674  98.2098972  60.3046340  60.5745178  99.6839765
  60.3959327  42.1508358  99.8179225  60.7018204  41.2905722  99.5305140
  61.1211932  42.7425979  99.6178219  54.6680407  52.4462152 100.3255416
  54.7229017  51.4935988 100.2497893  53.8571609  52.6021591 100.8096714
  55.8171601  56.3742275  91.5633699  55.3791031  55.6578134  91.1039337
  56.5582042  56.6018389  91.0018791  52.6072767  51.0639211  98.0845795
  51.7940632  51.3633382  98.4910987  53.1031761  50.6694900  98.8020277
  54.7581345  61.0596968 100.0180060  54.7157524  61.2857815  99.0888592
  55.6744044  60.8260343 100.1665861  58.2046979  51.5281036 106.9160689
  58.5596366  51.7552509 107.7755154  58.8519110  51.8599413 106.2937944
  63.9344716  54.6499472  97.6210018  63.7962614  54.8401068  96.6931207
  63.5780934  55.4118854  98.0778069  52.0986842  48.6357567 103.7007030
  52.7386221  48.4946326 103.0029993  51.2664372  48.3492080 103.3245632
  63.9614095  56.7175999 102.6321289  64.3950602  56.6251288 103.4804343
  64.6745676  56.6933499 101.9941305  52.8747146  57.9359997  99.8142022
  53.6687744  57.4410317  99.6124597  52.1638838  57.4077860  99.4509728
  57.6941990  60.3178093 104.1654390  57.7479012  60.8869029 104.9332106
  56.8256771  60.4879978 103.8008427  49.1829909  52.0803079  95.8901775
  48.2527497  52.0187534  96.1071737  49.2787381  51.5579032  95.0938416
  49.1015458  48.6057892  98.4780017  49.3622275  49.5203225  98.3689177
  49.9232630  48.1382334  98.6276629  50.5740383  50.0195649 105.6478841
  51.2463437  49.8113011 104.9991490  49.7470170  49.8217735 105.2084073
  64.8229645  56.7599699 105.1654175  65.0165535  57.6645510 105.4113450
  64.7230263  56.3007118 105.9992760  56.4765955  46.6457590 107.6644502
  55.8293870  47.3447540 107.5708978  57.2466971  47.0793734 108.0320750
  59.8844753  56.9106442 110.7395055  59.7330260  56.6816994 109.8225139
  59.8749433  57.8677043 110.7526400  56.6530090  54.4838355 105.7241322
  57.5822150  54.6349514 105.5510289  56.2321120  54.5722376 104.8689968
  55.4518422  58.5089019 103.4939859  55.3129507  58.1407804 104.3665797
  54.6633018  59.0236659 103.3223817  57.0023637  57.8870622 100.8828697
  56.6673469  57.8471392 101.7786347  56.5027582  57.2215338 100.4099107
  50.9767881  53.2938252 106.4081278  50.8387679  52.5618491 107.0092817
  51.8872804  53.2047152 106.1265466  59.9382828  55.2326656  91.1565757
  59.3211999  54.5073484  91.0598809  59.4699317  55.9936017  90.8132831
  53.6050181  53.0058211 105.8964958  54.3149800  52.3651403 105.8551576
  53.5619489  53.2571106 106.8191139  61.5936960  59.9425565 108.8171537
  61.5349506  59.2584785 108.1502120  61.9956478  60.6844555 108.3652163
  52.3179115  49.9923429 107.7160597  51.7816472  49.5414168 108.3682194
  51.7295824  50.1269338 106.9731062  51.7281374  49.4512081  90.2787061
  50.8510841  49.3300881  89.9149308  52.2039127  48.6598159  90.0265950
  61.5954367  57.9065149 107.0485517  60.7081146  57.5691070 107.1711916
  62.1652918  57.1748180 107.2854282  48.0518237  49.1279437 104.8013592
  47.9676425  48.5205106 104.0664002  47.2300943  49.6188455 104.8023088
  55.1255521  62.5666601 104.0146760  55.0525692  63.3721572 104.5266065
  54.6832914  62.7658567 103.1894781  54.9145300  61.8038371  97.5249582
  54.1312822  62.3460051  97.6187806  55.6138045  62.3212351  97.9243823
  58.2241950  47.6133000 100.1683787  58.7210650  46.8602963  99.8484857
  57.4528932  47.6497317  99.6026996  66.0771708  53.3173366 101.8102078
  66.0661584  54.1998081 101.4396012  65.2089087  52.9644917 101.6156616
  57.5854204  62.4653435 106.1704919  58.2982176  63.1000900 106.0980820
  57.0944233  62.5617301 105.3544921  59.3071731  56.3704688  97.7422210
  58.3728010  56.4906150  97.5726915  59.4848400  55.4677154  97.4782220
  54.8076919  49.7550383  99.8955472  54.4374707  49.2021424 100.5836377
  55.3036012  49.1508517  99.3430472  62.6944282  52.2122007  98.2772245
  63.1604735  53.0449998  98.2032547  63.1451783  51.7466988  98.9817503
  52.6366118  60.2147878 106.9910490  53.3375577  60.8484361 107.1439884
  52.1661233  60.5562610 106.2306129  60.7620514  58.5565828  95.2758397
  61.0380357  58.4422423  96.1852271  59.8925012  58.1583313  95.2370570
  60.6660945  44.5802594 102.3163146  59.7524025  44.8106821 102.4845353
  61.0954047  44.6641038 103.1677178  60.4367404  52.7692486 104.8163040
  59.7838854  53.0168393 104.1615493  60.8147784  51.9556624 104.4825517
  56.4854977  53.5112297 111.3029077  55.8095614  53.4106426 111.9731452
  57.3082611  53.3551511 111.7665074  48.2333836  59.7484233 103.9241592
  48.8187273  59.0027921 104.0569496  48.0358674  60.0588190 104.8078256
  42.8251491  52.3189834 102.6446035  42.8635590  51.7853424 103.4383153
  42.3191783  51.7925039 102.0257013  55.2277760  64.8179224 105.5386693
  55.7796068  64.9810846 106.3035778  55.5683953  65.4083662 104.8666718
  50.2042253  47.1654374 106.1408578  50.2683579  48.0269205 105.7285975
  50.1409373  46.5528376 105.4080936  49.6794525  49.2377507 109.7881612
  50.3066564  48.8554584 110.4019136  48.8222444  49.0191709 110.1537304
  60.0788634  59.6440482 111.3935347  60.6228538  60.2570440 110.8990302
  59.4975479  60.2020060 111.9102360  46.4560068  51.0453936  95.7199967
  46.7513509  50.1364614  95.6667020  45.5548104  51.0241675  95.3980969
  58.3646147  62.7661200 102.5250375  58.2397286  61.9650940 102.0161321
  59.0225238  63.2607393 102.0364345  49.9854315  49.1209932 101.7027515
  49.2640901  49.7345900 101.5634989  50.7747571  49.6567697 101.6244161
  60.4281055  60.5670220 104.1529925  59.4811391  60.4475571 104.0808252
  60.7763828  59.6792718 104.2356187  52.7880629  46.4564359 107.9768167
  53.3115030  46.7026655 108.7394476  52.5692962  47.2884394 107.5571304
  48.1847910  48.7268033  95.8439292  47.8560616  47.8465412  95.6614398
  48.5387280  48.6715702  96.7315681  57.4327489  60.3622936 100.3534277
  57.2852451  59.4339644 100.5341847  58.2580982  60.3843027  99.8691353
  51.2989733  49.0141003  96.2114770  51.6385805  49.5426924  95.4893378
  51.7461853  49.3521409  96.9873336  61.0361610  61.1851495 101.4399150
  61.9608158  60.9794356 101.3023601  60.8676914  60.9367896 102.3488492
  53.9933174  47.3978054 105.6617838  53.6529994  46.5985867 106.0638518
  53.2872180  47.6979765 105.0894671  54.6449645  44.4827366 104.1145161
  55.4675715  44.0087845 103.9924051  54.8887709  45.2617850 104.6143847
  53.2857880  47.5115625  94.4108062  54.0066242  47.8896878  93.9071779
  52.6623184  48.2304502  94.5143040  57.4289003  48.2160774  95.3466395
  57.6452617  49.0985412  95.0455223  56.9483070  47.8246987  94.6172037
  52.1688224  51.1746487 101.9237139  52.0232805  51.4886790 102.8161421
  51.6913428  51.7931387 101.3708038  54.0284607  48.1649035 101.9718029
  54.0146176  47.2690128 101.6350327  54.7457035  48.1719699 102.6056315
  55.8810738  48.5986375 104.0171156  55.6228516  49.5203446 104.0155487
  55.3495778  48.2016810 104.7071620  46.6433886  53.7151831 104.8624800
  46.0987354  54.4911639 104.9945075  47.5213236  54.0622636 104.7043922
  53.4321503  47.0463415  97.2405599  53.5537414  46.1180061  97.4396486
  53.1423545  47.0602101  96.3283914  56.3012693  44.7318326 100.3772319
  56.3234390  44.7957659  99.4224298  56.7180752  43.8922834 100.5712825
  66.6796318  54.4673585  98.4151541  67.1227464  53.7180910  98.0170665
  65.8022828  54.4583722  98.0325273  47.4299908  52.8421728 107.7554957
  46.6881644  52.9904363 108.3419588  47.1092653  53.1029993 106.8921707
  63.7123522  58.4703632  95.4245471  64.2374846  58.8090905  94.6994791
  63.6245875  57.5350648  95.2408605  55.3743571  62.3837706 107.5535347
  55.6830697  62.1386853 108.4258047  56.1719053  62.5884344 107.0654218
  52.8438055  60.0813625 101.8563026  52.2218064  59.4184330 101.5565253
  53.5142922  60.1074757 101.1736673  52.9162583  48.5595413 111.4495532
  52.9650738  49.4357535 111.0673301  53.4585097  48.0172806 110.8767175
  63.4017428  59.1036536 110.7296669  62.6112972  59.0860675 110.1901168
  63.1650783  59.6424830 111.4845705  63.5215303  55.9529002 108.0429397
  63.5713308  55.7879010 108.9844920  63.4129227  55.0856261 107.6527278
  52.4051562  58.6317548  95.3321486  52.5539682  59.3153012  94.6788159
  53.2118005  58.6122638  95.8470942  60.8119066  51.9359930 109.3588704
  61.7128928  51.7966395 109.0672702  60.8867040  52.1014385 110.2986881
  55.1461871  49.3126785 108.2041890  54.2765180  49.6060351 107.9324479
  55.3821351  49.8967230 108.9249154  65.0233500  58.3725944 108.2871419
  64.7318308  58.7355924 109.1234880  64.4105631  57.6592952 108.1084751
  66.2229182  55.9378824 100.8073989  67.0576074  56.3768628 100.9711549
  66.3588311  55.4617477  99.9882235  63.2720688  53.4958558 106.7551477
  63.7474810  53.6886205 105.9470328  62.3486254  53.5517744 106.5094860
  50.1604195  54.6582726  96.3382555  49.9150237  53.7545056  96.5362765
  50.3300110  54.6599876  95.3962033  57.8500905  45.5306402 105.7207311
  58.3682849  46.2667429 105.3953799  57.4956038  45.8370395 106.5554070
  49.4299843  50.3911083  93.8368716  48.7369087  50.4655438  93.1808752
  49.1851594  49.6271427  94.3590233  58.1013499  41.9506685 101.2408207
  58.3815253  41.2829874 101.8668634  58.8864106  42.1435780 100.7282871
  61.9722357  50.3724319 104.9879782  62.9239780  50.4722416 105.0092006
  61.8025808  49.5802587 105.4977867  59.9936737  47.4579902 105.1739183
  59.3986669  47.7384914 104.4785672  59.7086434  47.9473803 105.9455924
  64.4510435  53.5930438 104.1022082  64.4186755  52.6546439 104.2881766
  65.0611059  53.6714475 103.3687907  56.2893766  52.4626491  90.1449286
  57.2352871  52.3332699  90.2137704  55.9108011  51.7241153  90.6218714
  64.6004924  50.3841482 104.1480365  64.0843972  49.5999938 103.9610294
  65.4844872  50.0560198 104.3126885  62.2615651  44.1282497 100.1076178
  62.0640472  43.8197585 100.9919510  62.8715356  44.8544136 100.2374108
  70.2686985  54.6546445 103.2428119  70.9990374  54.3931733 103.8035822
  69.6593931  53.9175167 103.2830187  68.3502282  52.7954308 103.8402570
  67.6235446  52.6610273 103.2319062  67.9349569  53.1031136 104.6459288
  56.1732459  56.5144237 111.6049943  57.0935468  56.6922836 111.7989989
  56.1382042  55.5700283 111.4529642  54.4736683  50.3876468  90.0804171
  53.5668139  50.0909580  90.1566885  54.7512664  50.0906286  89.2138457
  45.3914624  51.7082831 100.5303218  45.0717408  50.8548139 100.2377592
  44.8448052  51.9231409 101.2861185  49.1694531  54.4245272 104.2472724
  49.3880541  55.3562380 104.2660758  49.5820305  54.0653246 105.0327528
  56.0898749  44.9313357  96.2348413  55.2799477  44.5860442  96.6103659
  56.7783166  44.6220901  96.8236024  58.0189297  44.0091404  97.8572709
  58.5720336  44.4286858  98.5162732  58.2559384  43.0827152  97.8995665
  54.0422396  49.9978478 113.6375473  53.9419123  50.9472835 113.5687564
  53.8243938  49.6696717 112.7651543  53.2435468  47.2463403  90.2216150
  54.1054632  47.5718301  90.4811968  53.4285812  46.4594899  89.7089216
  61.3968104  46.1191929  97.3651373  60.8166773  46.7776733  96.9829426
  61.1304037  45.2969274  96.9538791  59.8471671  45.5196987  99.5672694
  60.3471449  45.6313521  98.7587013  60.4907279  45.2158040 100.2073502
  53.9053666  53.4275617 112.4540535  53.4220748  54.2275977 112.6604424
  53.9914606  53.4383561 111.5007979  49.8327004  57.3180151 104.4908969
  50.7870258  57.2864094 104.4238900  49.6339528  56.8570775 105.3059194
  50.4226386  55.8881267 107.0579766  51.2419275  56.3825346 107.0814603
  50.6963194  54.9713235 107.0297334  60.1792982  48.2792020  96.4207722
  59.2918837  48.5641670  96.2027916  60.5946971  48.1185783  95.5734999
  63.5307518  48.3038541 100.1362061  64.3067909  48.7934993 100.4086678
  62.8055653  48.7296595 100.5933930  65.9680077  49.0166160 101.1936002
  66.5624568  48.7761896 100.4829310  66.0406661  48.2973290 101.8209538
  60.1534006  53.7946556  96.6358012  60.0969207  54.2515107  95.7965644
  60.7062349  53.0337240  96.4580855  63.9638812  49.5836287  97.4608131
  63.7075746  49.1832923  98.2916339  63.3391680  50.2980081  97.3358270
  68.2751150  52.3232361  99.9679423  67.7150708  52.3925550 100.7410985
  67.6694653  52.1473345  99.2478919  51.3446359  63.7569088 101.7197609
  51.2278743  64.7014520 101.6176299  50.5238805  63.4542649 102.1083408
  61.2322893  58.4819224  92.5654202  62.0668497  58.0500422  92.3831677
  61.0707236  58.3101237  93.4931096  60.8868785  54.9851337  93.9310541
  60.8317589  54.8195608  92.9898985  60.2614841  55.6927370  94.0872731
  45.6761300  50.2219401 107.7571963  46.3220164  49.7118355 108.2459188
  45.4678451  50.9588083 108.3315388  58.2014693  57.2900249 113.2564104
  59.0705852  57.4640901 112.8950739  57.7221444  58.1094665 113.1339833
  54.1964911  44.4859446  93.5095859  54.1843581  45.4301286  93.6664130
  55.0888333  44.3029591  93.2155321  52.3700873  64.4097350 104.9353537
  53.2728119  64.4420960 105.2520032  52.1438243  63.4797801 104.9499873
  54.1254475  63.1628336 101.5963616  53.1750106  63.1630198 101.4827988
  54.4286961  62.4161071 101.0799651  58.0117030  41.0802222  97.7641796
  57.2449426  40.5260709  97.9098479  58.4227735  41.1524091  98.6255948
  50.0158791  47.3687018 111.8546977  50.8790253  47.0123823 112.0650302
  49.4424202  47.0300913 112.5422382  69.8607168  68.9988875 102.6609378
  70.4985578  68.8795622 101.9572719  69.7428011  69.9469719 102.7197331
  66.6696875  68.9516303 102.5970903  66.3315386  68.8357367 101.7091438
  67.5386643  68.5507468 102.5771909  67.1516658  70.1051154 108.5557109
  67.1405298  69.7103953 107.6837612  67.3137297  69.3717227 109.1490880
  63.8723919  72.8888266 107.5036293  63.5813785  73.7933897 107.3882959
  64.5080903  72.9304794 108.2180362  64.7980126  70.2665115 104.0937652
  65.3943698  70.0421137 103.3794615  64.8555097  69.5249860 104.6963100
  69.4148437  66.7240328  99.7362587  70.2011526  66.3059752  99.3853004
  69.6787141  67.6286421  99.9044235  74.8156864  66.6615562 100.6395565
  75.5482036  66.0914778 100.8733395  74.0596220  66.2737162 101.0802071
  72.3382284  60.3737136 105.0990174  72.0065609  61.2432547 104.8751389
  71.7427898  60.0573420 105.7784204  68.8313804  72.5749682 104.4986086
  68.5314527  73.4774721 104.3901894  68.4864863  72.3081865 105.3507239
  62.2826285  69.0263479 100.5322791  61.3576782  68.8939693 100.7400483
  62.5310698  69.8057698 101.0292733  72.2310948  65.0932222 102.1783524
  71.3227825  65.0247630 101.8842285  72.1798543  65.5704167 103.0065349
  66.3051813  66.5121868 110.1218421  65.5285147  67.0715788 110.1121286
  66.9442376  66.9978651 110.6433291  74.0972594  63.2948660 103.9561398
  73.4546974  63.5881194 103.3101192  73.5927522  63.1801581 104.7614594
  64.5598186  69.3207321 109.6836388  65.3012870  69.8592365 109.4071212
  63.8535171  69.9473610 109.8407940  70.0353525  71.4636461 108.2808549
  70.4436881  71.0218872 107.5363182  69.3130787  70.8889089 108.5342742
  66.3884595  66.4009068 105.6542106  67.2345791  66.8248482 105.7976755
  66.3283233  65.7442692 106.3480669  70.3582340  72.0237652 102.0360838
  69.7291202  72.1883366 101.3336906  69.9708002  72.4379262 102.8071802
  74.2371572  72.9592090  99.3905202  73.5522610  73.3390991  98.8402235
  74.3215421  73.5687416 100.1237150  69.5384041  64.0613436 107.3123280
  69.2944973  64.8155497 106.7757556  69.8143971  64.4398784 108.1470527
  71.4922503  70.6052049 105.9900546  71.7039399  71.2483809 105.3134927
  71.4452252  69.7714365 105.5222476  69.0948732  63.2169870 102.8937118
  68.2333211  63.5151123 103.1853855  69.1211167  63.4340268 101.9618150
  62.8034383  71.3083542 102.2390687  63.3735740  71.7370810 101.6008171
  63.3942495  71.0266126 102.9374872  63.2959549  66.4746969 110.4851698
  62.6658210  67.1563250 110.7187095  63.1895637  66.3630051 109.5404836
  58.5904522  66.1418765 101.4117622  57.8003576  66.3976294 100.9357733
  59.0815769  66.9567103 101.5169663  72.6068331  73.4824004 104.1622903
  73.4285775  73.0804192 103.8805585  72.6030734  73.3792238 105.1139019
  66.3724935  73.0308048 106.3183613  66.4369367  73.4928455 107.1541785
  65.6635859  72.4005412 106.4465923  56.8742225  66.3949256 103.8432613
  57.1250263  67.2796265 104.1090189  57.4101773  66.2153857 103.0707705
  80.6974324  69.8262753 100.5107874  79.9438033  69.2570151 100.3551879
  80.8321866  69.7925417 101.4578509  62.5740292  60.7767735 112.8476949
  62.1807238  60.2233933 113.5224593  63.3906432  61.0878313 113.2383467
  65.4908253  62.1925614 110.4397206  66.2317966  62.7932767 110.3601668
  65.7226176  61.4503252 109.8815248  60.6349591  67.3781981 108.7175435
  60.5203106  66.4767239 109.0182534  59.7794109  67.6245678 108.3660252
  67.7141429  75.3199722 110.3162936  67.2705283  74.5336100 109.9983840
  68.3758642  75.5078872 109.6506827  62.4728550  76.8495523 104.8423614
  63.0235975  76.7212587 104.0700608  61.6340026  77.1490412 104.4918507
  69.8122667  75.6002522 108.3444337  69.7941142  76.4211403 107.8524606
  70.7342587  75.4756597 108.5694478  66.2695721  73.1146651 109.1867845
  66.8024058  72.3534939 108.9567153  65.7409802  72.8220303 109.9292000
  69.4365416  58.2206717 104.7161487  69.0929685  59.1108359 104.6400598
  69.8044379  58.0308375 103.8531072  68.5161956  60.5911372 102.6810720
  68.0126752  60.5541507 101.8678526  68.8092563  61.5004115 102.7407377
  64.7604842  60.6750102 101.6876902  65.6257839  60.4792911 101.3282792
  64.8282351  60.4460454 102.6146259  74.3749973  70.9647683  95.1587096
  73.5979416  70.6258842  94.7142258  75.0541454  70.9700306  94.4842061
  72.6141280  70.4381664 101.8153704  71.9564954  71.1280925 101.9033832
  73.4181679  70.8278096 102.1587690  62.3667161  62.9052310  99.0593269
  62.9410913  62.6827491  98.3266462  62.9538144  62.9741004  99.8121870
  71.4246739  68.7926037  99.8657646  71.9378620  69.4256028 100.3679355
  72.0747962  68.1927232  99.5001006  64.6689829  59.7793559  97.7868338
  64.0154241  59.4642576  97.1624953  64.6270303  59.1569299  98.5128161
  67.9027569  66.2675492 102.1115986  66.9850131  66.4890439 101.9537674
  68.3187713  66.3421803 101.2527693  72.1908535  73.7732038  97.9936788
  71.7370862  72.9322948  98.0501979  71.5602502  74.4093436  98.3311568
  71.1341454  64.7024024  99.2237456  70.3964211  64.1901410  99.5547698
  71.3868228  64.2624406  98.4120733  70.6341474  75.6108535  98.9286606
  70.9264448  76.1713592  98.2098972  71.1440095  75.9037096  99.6839765
  71.2353082  57.4800276  99.8179225  71.5411959  56.6197640  99.5305140
  71.9605687  58.0717896  99.6178219  69.0440733  66.8572953 106.9160689
  69.3990121  67.0844427 107.7755154  69.6912864  67.1891330 106.2937944
  74.7738470  69.9791389  97.6210018  74.6356369  70.1692985  96.6931207
  74.4174689  70.7410772  98.0778069  62.9380596  63.9649484 103.7007030
  63.5779975  63.8238244 103.0029993  62.1058127  63.6783998 103.3245632
  74.8007850  72.0467916 102.6321289  75.2344356  71.9543205 103.4804343
  75.5139430  72.0225417 101.9941305  68.5335745  75.6470010 104.1654390
  68.5872767  76.2160947 104.9332106  67.6650526  75.8171895 103.8008427
  61.4134138  65.3487567 105.6478841  62.0857191  65.1404929 104.9991490
  60.5863924  65.1509653 105.2084073  75.6623399  72.0891617 105.1654175
  75.8559289  72.9937427 105.4113450  75.5624017  71.6299036 105.9992760
  67.3159710  61.9749508 107.6644502  66.6687625  62.6739457 107.5708978
  68.0860725  62.4085651 108.0320750  70.7238508  72.2398360 110.7395055
  70.5724014  72.0108911 109.8225139  70.7143187  73.1968961 110.7526400
  67.4923844  69.8130272 105.7241322  68.4215904  69.9641432 105.5510289
  67.0714874  69.9014293 104.8689968  66.2912176  73.8380937 103.4939859
  66.1523262  73.4699721 104.3665797  65.5026772  74.3528576 103.3223817
  67.8417391  73.2162540 100.8828697  67.5067224  73.1763310 101.7786347
  67.3421337  72.5507255 100.4099107  61.8161635  68.6230170 106.4081278
  61.6781433  67.8910408 107.0092817  62.7266559  68.5339070 106.1265466
  64.4443936  68.3350129 105.8964958  65.1543554  67.6943321 105.8551576
  64.4013244  68.5863024 106.8191139  72.4330714  75.2717482 108.8171537
  72.3743261  74.5876702 108.1502120  72.8350233  76.0136472 108.3652163
  63.1572870  65.3215347 107.7160597  62.6210227  64.8706085 108.3682194
  62.5689578  65.4561256 106.9731062  61.4521413  82.0879396 101.6105256
  61.6918012  82.7197920 102.2884275  60.6090610  81.7367436 101.8970615
  72.4348122  73.2357066 107.0485517  71.5474901  72.8982988 107.1711916
  73.0046673  72.5040097 107.2854282  58.8911991  64.4571355 104.8013592
  58.8070180  63.8497024 104.0664002  58.0694697  64.9480373 104.8023088
  65.9649275  77.8958519 104.0146760  65.8919447  78.7013490 104.5266065
  65.5226668  78.0950484 103.1894781  69.0635705  62.9424918 100.1683787
  69.5604404  62.1894880  99.8484857  68.2922686  62.9789235  99.6026996
  76.9165462  68.6465284 101.8102078  76.9055339  69.5289999 101.4396012
  76.0482842  68.2936834 101.6156616  68.4247959  77.7945353 106.1704919
  69.1375931  78.4292817 106.0980820  67.9337987  77.8909219 105.3544921
  70.1465486  71.6996605  97.7422210  69.2121764  71.8198068  97.5726915
  70.3242154  70.7969072  97.4782220  73.5338037  67.5413925  98.2772245
  73.9998489  68.3741916  98.2032547  73.9845537  67.0758906  98.9817503
  63.4759872  75.5439796 106.9910490  64.1769332  76.1776279 107.1439884
  63.0054987  75.8854528 106.2306129  71.6014268  73.8857746  95.2758397
  71.8774112  73.7714340  96.1852271  70.7318767  73.4875231  95.2370570
  71.5054700  59.9094512 102.3163146  70.5917779  60.1398738 102.4845353
  71.9347801  59.9932956 103.1677178  71.2761158  68.0984403 104.8163040
  70.6232608  68.3460311 104.1615493  71.6541538  67.2848542 104.4825517
  68.2368332  78.1344097  98.9191210  68.4190727  77.3165753  99.3818962
  69.0601318  78.3511789  98.4816100  68.5710498  77.0612282  96.1806259
  69.0998264  76.5504736  95.5676421  68.8338717  76.7454812  97.0451792
  67.3248731  68.8404215 111.3029077  66.6489368  68.7398344 111.9731452
  68.1476365  68.6843428 111.7665074  59.0727590  75.0776151 103.9241592
  59.6581027  74.3319839 104.0569496  58.8752429  75.3880108 104.8078256
  66.0671514  80.1471142 105.5386693  66.6189822  80.3102764 106.3035778
  66.4077708  80.7375580 104.8666718  61.0436007  62.4946292 106.1408578
  61.1077334  63.3561123 105.7285975  60.9803128  61.8820293 105.4080936
  60.5188280  64.5669424 109.7881612  61.1460319  64.1846502 110.4019136
  59.6616199  64.3483626 110.1537304  70.9182388  74.9732400 111.3935347
  71.4622292  75.5862358 110.8990302  70.3369233  75.5311978 111.9102360
  69.2039901  78.0953118 102.5250375  69.0791041  77.2942857 102.0161321
  69.8618992  78.5899311 102.0364345  60.8248070  64.4501850 101.7027515
  60.1034655  65.0637818 101.5634989  61.6141325  64.9859615 101.6244161
  71.2674810  75.8962138 104.1529925  70.3205145  75.7767489 104.0808252
  71.6157583  75.0084636 104.2356187  63.6274383  61.7856277 107.9768167
  64.1508785  62.0318573 108.7394476  63.4086716  62.6176311 107.5571304
  68.2721243  75.6914854 100.3534277  68.1246205  74.7631561 100.5341847
  69.0974737  75.7134945  99.8691353  71.8755365  76.5143413 101.4399150
  72.8001912  76.3086274 101.3023601  71.7070668  76.2659814 102.3488492
  64.8326928  62.7269972 105.6617838  64.4923749  61.9277785 106.0638518
  64.1265934  63.0271682 105.0894671  65.4843400  59.8119284 104.1145161
  66.3069469  59.3379762 103.9924051  65.7281464  60.5909768 104.6143847
  63.0081979  66.5038405 101.9237139  62.8626559  66.8178708 102.8161421
  62.5307182  67.1223305 101.3708038  64.8678362  63.4940953 101.9718029
  64.8539930  62.5982046 101.6350327  65.5850790  63.5011616 102.6056315
  66.7204492  63.9278293 104.0171156  66.4622270  64.8495364 104.0155487
  66.1889533  63.5308727 104.7071620  71.6650681  77.0329080  96.7961242
  71.8387559  76.4675502  96.0435094  72.1579572  77.8329975  96.6140732
  57.4827641  69.0443749 104.8624800  56.9381109  69.8203557 104.9945075
  58.3606991  69.3914554 104.7043922  67.1406448  60.0610243 100.3772319
  67.1628145  60.1249576  99.4224298  67.5574507  59.2214752 100.5712825
  77.5190072  69.7965503  98.4151541  77.9621218  69.0472828  98.0170665
  76.6416583  69.7875639  98.0325273  58.2693663  68.1713645 107.7554957
  57.5275399  68.3196281 108.3419588  57.9486407  68.4321911 106.8921707
  74.5517277  73.7995550  95.4245471  75.0768601  74.1382823  94.6994791
  74.4639629  72.8642565  95.2408605  66.2137325  77.7129624 107.5535347
  66.5224452  77.4678770 108.4258047  67.0112807  77.9176262 107.0654218
  66.2357937  79.8667533  99.7840724  65.7962928  79.3743912 100.4773581
  66.9866054  79.3240501  99.5432799  63.6831810  75.4105542 101.8563026
  63.0611819  74.7476247 101.5565253  64.3536676  75.4366674 101.1736673
  63.7556337  63.8887330 111.4495532  63.8044493  64.7649453 111.0673301
  64.2978851  63.3464723 110.8767175  74.2411183  74.4328454 110.7296669
  73.4506726  74.4152592 110.1901168  74.0044537  74.9716747 111.4845705
  74.3609058  71.2820920 108.0429397  74.4107063  71.1170927 108.9844920
  74.2522981  70.4148179 107.6527278  71.6512820  67.2651848 109.3588704
  72.5522683  67.1258313 109.0672702  71.7260795  67.4306303 110.2986881
  65.9855626  64.6418703 108.2041890  65.1158935  64.9352269 107.9324479
  66.2215106  65.2259148 108.9249154  75.8627255  73.7017861 108.2871419
  75.5712063  74.0647842 109.1234880  75.2499386  72.9884870 108.1084751
  77.0622937  71.2670741 100.8073989  77.8969828  71.7060545 100.9711549
  77.1982066  70.7909394  99.9882235  74.1114443  68.8250476 106.7551477
  74.5868564  69.0178122 105.9470328  73.1880008  68.8809662 106.5094860
  68.6894659  60.8598320 105.7207311  69.2076603  61.5959347 105.3953799
  68.3349792  61.1662313 106.5554070  68.9407254  57.2798602 101.2408207
  69.2209007  56.6121791 101.8668634  69.7257860  57.4727698 100.7282871
  72.8116112  65.7016236 104.9879782  73.7633535  65.8014334 105.0092006
  72.6419562  64.9094505 105.4977867  70.8330491  62.7871819 105.1739183
  70.2380423  63.0676832 104.4785672  70.5480188  63.2765720 105.9455924
  69.9637982  76.7394746  93.9341816  70.8968655  76.6740308  94.1374691
  69.8761195  77.5751013  93.4756348  75.2904190  68.9222356 104.1022082
  75.2580510  67.9838357 104.2881766  75.9004813  69.0006393 103.3687907
  75.4398678  65.7133399 104.1480365  74.9237727  64.9291856 103.9610294
  76.3238627  65.3852116 104.3126885  73.1009405  59.4574415 100.1076178
  72.9034226  59.1489503 100.9919510  73.7109111  60.1836054 100.2374108
  81.1080740  69.9838363 103.2428119  81.8384128  69.7223651 103.8035822
  80.4987685  69.2467085 103.2830187  79.1896037  68.1246225 103.8402570
  78.4629200  67.9902190 103.2319062  78.7743324  68.4323054 104.6459288
  67.0126213  71.8436155 111.6049943  67.9329223  72.0214754 111.7989989
  66.9775796  70.8992200 111.4529642  60.0088286  69.7537190 104.2472724
  60.2274295  70.6854297 104.2660758  60.4214059  69.3945164 105.0327528
  66.9292503  60.2605275  96.2348413  66.1193232  59.9152360  96.6103659
  67.6176920  59.9512819  96.8236024  68.8583052  59.3383322  97.8572709
  69.4114090  59.7578775  98.5162732  69.0953138  58.4119070  97.8995665
  64.8816151  65.3270395 113.6375473  64.7812878  66.2764752 113.5687564
  64.6637693  64.9988634 112.7651543  72.2361859  61.4483847  97.3651373
  71.6560528  62.1068651  96.9829426  71.9697791  60.6261192  96.9538791
  70.6865425  60.8488905  99.5672694  71.1865204  60.9605439  98.7587013
  71.3301033  60.5449957 100.2073502  64.7447421  68.7567534 112.4540535
  64.2614503  69.5567894 112.6604424  64.8308360  68.7675479 111.5007979
  60.6720758  72.6472069 104.4908969  61.6264012  72.6156011 104.4238900
  60.4733282  72.1862693 105.3059194  61.2620141  71.2173185 107.0579766
  62.0813030  71.7117264 107.0814603  61.5356948  70.3005153 107.0297334
  71.0186737  63.6083937  96.4207722  70.1312592  63.8933588  96.2027916
  71.4340726  63.4477701  95.5734999  74.3701273  63.6330458 100.1362061
  75.1461663  64.1226911 100.4086678  73.6449407  64.0588512 100.5933930
  76.8073832  64.3458078 101.1936002  77.4018322  64.1053813 100.4829310
  76.8800415  63.6265208 101.8209538  59.0270987  78.1891688 101.5079166
  58.8925455  77.4292089 100.9417164  58.6103050  78.9132588 101.0407955
  74.8032566  64.9128205  97.4608131  74.5469501  64.5124841  98.2916339
  74.1785434  65.6271999  97.3358270  79.1144904  67.6524278  99.9679423
  78.5544462  67.7217468 100.7410985  78.5088408  67.4765263  99.2478919
  62.1840113  79.0861005 101.7197609  62.0672497  80.0306438 101.6176299
  61.3632559  78.7834567 102.1083408  56.5155055  65.5511319 107.7571963
  57.1613918  65.0410273 108.2459188  56.3072206  66.2880001 108.3315388
  69.0408447  72.6192166 113.2564104  69.9099607  72.7932819 112.8950739
  68.5615199  73.4386583 113.1339833  65.0358665  59.8151363  93.5095859
  65.0237335  60.7593203  93.6664130  65.9282087  59.6321509  93.2155321
  63.2094627  79.7389267 104.9353537  64.1121874  79.7712878 105.2520032
  62.9831997  78.8089718 104.9499873  64.9648229  78.4920254 101.5963616
  64.0143860  78.4922116 101.4827988  65.2680715  77.7452988 101.0799651
  68.8510785  56.4094140  97.7641796  68.0843181  55.8552627  97.9098479
  69.2621490  56.4816009  98.6255948  60.8552546  62.6978936 111.8546977
  61.7184007  62.3415741 112.0650302  60.2817956  62.3592831 112.5422382
  80.7000923  84.3280792 102.6609378  81.3379333  84.2087540 101.9572719
  80.5821766  85.2761636 102.7197331  77.5090629  84.2808220 102.5970903
  77.1709141  84.1649285 101.7091438  78.3780397  83.8799385 102.5771909
  73.3677445  86.1343697  98.5867794  72.8042310  86.0433634  97.8184082
  73.2529840  85.3143601  99.0670287  77.9910412  85.4343072 108.5557109
  77.9799053  85.0395870 107.6837612  78.1531052  84.7009145 109.1490880
  70.9141877  87.6294888 101.4252015  71.7063169  87.2885713 101.0098314
  71.1538527  87.7389863 102.3454168  78.9477003  89.8014665  93.8982259
  78.2964983  90.3868745  93.5116273  79.7421366  90.3320859  93.9577296
  72.8732631  86.8903802  94.2969393  73.6463507  86.3432789  94.1582269
  73.2258029  87.7548051  94.5083855  74.7117673  88.2180184 107.5036293
  74.4207539  89.1225815 107.3882959  75.3474658  88.2596712 108.2180362
  75.6373880  85.5957032 104.0937652  76.2337452  85.3713055 103.3794615
  75.6948852  84.8541778 104.6963100  75.2098908  83.0496468  91.9287843
  75.4624429  82.5277989  91.1671306  74.2723468  82.8862613  92.0314527
  80.2542191  82.0532246  99.7362587  81.0405280  81.6351669  99.3853004
  80.5180896  82.9578338  99.9044235  80.4252269  87.4905096  94.4351243
  79.7898102  87.5639723  95.1472148  80.0949675  88.0798695  93.7570323
  85.6550618  81.9907479 100.6395565  86.3875790  81.4206696 100.8733395
  84.8989974  81.6029080 101.0802071  74.9295197  84.9524574  94.1312218
  74.8131455  84.2769477  94.7993303  75.0397457  84.4656948  93.3144371
  77.2726738  84.4134721  97.8358907  76.9084945  83.8865342  98.5471829
  78.1293854  84.0233190  97.6625393  83.1776039  75.7029053 105.0990174
  82.8459364  76.5724464 104.8751389  82.5821652  75.3865337 105.7784204
  76.9132225  79.4424621  92.8320256  77.0806627  80.3104857  93.1990727
  76.7229394  79.6051902  91.9081545  79.6707558  87.9041599 104.4986086
  79.3708281  88.8066638 104.3901894  79.3258618  87.6373783 105.3507239
  73.1220040  84.3555396 100.5322791  72.1970536  84.2231610 100.7400483
  73.3704453  85.1349616 101.0292733  83.0704702  80.4224140 102.1783524
  82.1621579  80.3539548 101.8842285  83.0192298  80.8996085 103.0065349
  76.8921446  81.8982278  93.8166923  76.7721071  82.3439329  94.6552403
  76.1974034  82.2467596  93.2580461  70.4828851  83.9988670 101.3666580
  70.6121232  84.2523149 102.2805992  69.8026302  84.5916378 101.0471235
  74.6528338  94.6685920  97.4657054  74.5752368  95.6193745  97.5445535
  74.0489982  94.3231792  98.1231980  77.1445568  81.8413785 110.1218421
  76.3678902  82.4007705 110.1121286  77.7836131  82.3270568 110.6433291
  84.9366348  78.6240578 103.9561398  84.2940729  78.9173111 103.3101192
  84.4321277  78.5093498 104.7614594  82.5906512  82.3703751  94.6447257
  83.5024368  82.6031138  94.4694954  82.0816159  82.9540795  94.0822335
  75.3991940  84.6499239 109.6836388  76.1406625  85.1884283 109.4071212
  74.6928926  85.2765527 109.8407940  80.8747280  86.7928379 108.2808549
  81.2830636  86.3510790 107.5363182  80.1524541  86.2181007 108.5342742
  77.2278350  81.7300986 105.6542106  78.0739545  82.1540399 105.7976755
  77.1676987  81.0734610 106.3480669  81.1976094  87.3529570 102.0360838
  80.5684957  87.5175284 101.3336906  80.8101757  87.7671179 102.8071802
  85.0765326  88.2884008  99.3905202  84.3916364  88.6682909  98.8402235
  85.1609176  88.8979334 100.1237150  80.3777795  79.3905354 107.3123280
  80.1338727  80.1447415 106.7757556  80.6537726  79.7690702 108.1470527
  82.3316258  85.9343967 105.9900546  82.5433153  86.5775726 105.3134927
  82.2846006  85.1006283 105.5222476  79.9342487  78.5461787 102.8937118
  79.0726966  78.8443041 103.1853855  79.9604922  78.7632186 101.9618150
  76.7504056  87.0903978  99.3010923  77.2142402  87.3691681  98.5115546
  76.4860854  86.1887422  99.1184014  73.6428137  86.6375459 102.2390687
  74.2129494  87.0662728 101.6008171  74.2336249  86.3558044 102.9374872
  75.6872942  83.2127130  96.1100489  76.3896986  83.6648174  96.5774415
  75.3553571  82.5710949  96.7380382  74.1353304  81.8038887 110.4851698
  73.5051964  82.4855168 110.7187095  74.0289392  81.6921968 109.5404836
  69.4298276  81.4710683 101.4117622  68.6397330  81.7268211 100.9357733
  69.9209524  82.2859021 101.5169663  83.4462086  88.8115922 104.1622903
  84.2679530  88.4096109 103.8805585  83.4424489  88.7084156 105.1139019
  71.3813022  81.8355262  98.3701099  70.5844185  81.9473956  98.8884594
  71.1538614  82.1741914  97.5041989  77.2118689  88.3599965 106.3183613
  77.2763122  88.8220372 107.1541785  76.5029613  87.7297330 106.4465923
  67.7135979  81.7241173 103.8432613  67.9644018  82.6088183 104.1090189
  68.2495528  81.5445775 103.0707705  91.5368079  85.1554670 100.5107874
  90.7831787  84.5862069 100.3551879  91.6715620  85.1217335 101.4578509
  76.9266707  90.0268073  96.1862594  76.7912382  90.8719608  96.6147442
  77.4676519  90.2287350  95.4228528  73.4134047  76.1059653 112.8476949
  73.0200992  75.5525851 113.5224593  74.2300187  76.4170231 113.2383467
  70.3796104  87.5443511  96.7590519  70.8920625  88.3386761  96.9096084
  71.0318817  86.8469801  96.6924120  72.1890989  90.6609267  98.8413272
  72.3657617  91.5827232  98.6534256  72.9847823  90.3467686  99.2707652
  76.3302008  77.5217532 110.4397206  77.0711721  78.1224685 110.3601668
  76.5619930  76.7795169 109.8815248  71.4743346  82.7073899 108.7175435
  71.3596861  81.8059156 109.0182534  70.6187863  82.9537596 108.3660252
  78.5535183  90.6491639 110.3162936  78.1099038  89.8628018 109.9983840
  79.2152397  90.8370790 109.6506827  73.3122305  92.1787441 104.8423614
  73.8629730  92.0504504 104.0700608  72.4733780  92.4782330 104.4918507
  80.6516421  90.9294439 108.3444337  80.6334897  91.7503320 107.8524606
  81.5736341  90.8048514 108.5694478  77.1089476  88.4438569 109.1867845
  77.6417812  87.6826857 108.9567153  76.5803557  88.1512220 109.9292000
  80.2759171  73.5498635 104.7161487  79.9323440  74.4400276 104.6400598
  80.6438133  73.3600292 103.8531072  68.3445021  85.8732165  97.5350089
  69.1820243  86.2829173  97.3183797  68.5223289  84.9331607  97.5050283
  80.2409453  83.5407246  93.2233922  79.7256077  84.3111850  93.4622310
  79.9686762  82.8672382  93.8466984  77.8256564  78.3856947  98.2819161
  76.9698161  77.9963797  98.1024799  78.2383516  78.4648907  97.4218946
  79.3555711  75.9203290 102.6810720  78.8520507  75.8833425 101.8678526
  79.6486318  76.8296032 102.7407377  75.5998597  76.0042019 101.6876902
  76.4651594  75.8084828 101.3282792  75.6676106  75.7752371 102.6146259
  85.2143727  86.2939600  95.1587096  84.4373170  85.9550760  94.7142258
  85.8935208  86.2992224  94.4842061  80.0295756  81.4134338  95.0493704
  79.7245892  81.7280487  95.9003847  80.9826199  81.4915758  95.0921037
  78.4742188  87.5724561  96.6986658  77.9463550  86.8377321  96.3859895
  77.9729691  88.3499237  96.4526626  83.4535034  85.7673582 101.8153704
  82.7958709  86.4572843 101.9033832  84.2575434  86.1570014 102.1587690
  73.2060916  78.2344227  99.0593269  73.7804668  78.0119409  98.3266462
  73.7931898  78.3032922  99.8121870  82.2640493  84.1217954  99.8657646
  82.7772375  84.7547946 100.3679355  82.9141717  83.5219150  99.5001006
  73.5330503  80.2648688  93.0789154  72.6967815  80.6023375  93.3998429
  73.3935273  80.1297668  92.1416291  75.5083584  75.1085476  97.7868338
  74.8547996  74.7934494  97.1624953  75.4664058  74.4861217  98.5128161
  76.6194788  85.3904771  89.7021631  75.7121850  85.1594025  89.9012780
  77.1165820  84.5942391  89.8895612  79.5262867  94.1002279  92.6218317
  78.8524566  94.4033975  93.2303275  79.9128689  94.9031359  92.2723774
  78.7421324  81.5967410 102.1115986  77.8243885  81.8182357 101.9537674
  79.1581468  81.6713720 101.2527693  79.5256372  82.9958826  97.2418666
  80.2728191  83.5080223  96.9325788  79.7947961  82.6742878  98.1023060
  77.7983022  85.4917366  94.2245621  76.8894241  85.2076399  94.3218090
  77.8278106  85.9116445  93.3648927  83.0302289  89.1023956  97.9936788
  82.5764616  88.2614866  98.0501979  82.3996256  89.7385354  98.3311568
  81.9735209  80.0315942  99.2237456  81.2357966  79.5193328  99.5547698
  82.2261982  79.5916323  98.4120733  81.4735229  90.9400452  98.9286606
  81.7658203  91.5005510  98.2098972  81.9833849  91.2329013  99.6839765
  82.0746836  72.8092194  99.8179225  82.3805713  71.9489557  99.5305140
  82.7999441  73.4009814  99.6178219  68.3671192  83.2122880  98.2060823
  68.1695592  82.6192241  97.4811889  67.8117856  82.9075091  98.9236762
  76.3467916  83.1045987 100.3255416  76.4016526  82.1519823 100.2497893
  75.5359118  83.2605426 100.8096714  77.4959110  87.0326110  91.5633699
  77.0578540  86.3161969  91.1039337  78.2369551  87.2602225  91.0018791
  74.2860276  81.7223047  98.0845795  73.4728141  82.0217217  98.4910987
  74.7819270  81.3278735  98.8020277  76.4368854  91.7180804 100.0180060
  76.3945033  91.9441650  99.0888592  77.3531553  91.4844178 100.1665861
  79.8834488  82.1864871 106.9160689  80.2383875  82.4136344 107.7755154
  80.5306619  82.5183248 106.2937944  85.6132224  85.3083307  97.6210018
  85.4750123  85.4984903  96.6931207  85.2568443  86.0702690  98.0778069
  73.7774351  79.2941402 103.7007030  74.4173730  79.1530161 103.0029993
  72.9451881  79.0075916 103.3245632  85.6401604  87.3759834 102.6321289
  86.0738111  87.2835123 103.4804343  86.3533185  87.3517334 101.9941305
  74.5534655  88.5943833  99.8142022  75.3475253  88.0994153  99.6124597
  73.8426347  88.0661696  99.4509728  79.3729499  90.9761928 104.1654390
  79.4266521  91.5452864 104.9332106  78.5044280  91.1463813 103.8008427
  70.8617418  82.7386914  95.8901775  69.9315006  82.6771370  96.1071737
  70.9574890  82.2162867  95.0938416  70.7802967  79.2641727  98.4780017
  71.0409784  80.1787060  98.3689177  71.6020139  78.7966170  98.6276629
  72.2527892  80.6779484 105.6478841  72.9250946  80.4696846 104.9991490
  71.4257679  80.4801570 105.2084073  86.5017154  87.4183535 105.1654175
  86.6953044  88.3229345 105.4113450  86.4017772  86.9590954 105.9992760
  78.1553464  77.3041425 107.6644502  77.5081379  78.0031375 107.5708978
  78.9254480  77.7377569 108.0320750  81.5632262  87.5690277 110.7395055
  81.4117769  87.3400829 109.8225139  81.5536942  88.5260879 110.7526400
  78.3317599  85.1422190 105.7241322  79.2609659  85.2933350 105.5510289
  77.9108629  85.2306211 104.8689968  77.1305931  89.1672855 103.4939859
  76.9917016  88.7991639 104.3665797  76.3420527  89.6820494 103.3223817
  77.7254082  94.2681951  94.8365396  77.9005838  93.7969994  95.6511019
  77.0386871  94.8947717  95.0646657  78.6811146  88.5454457 100.8828697
  78.3460978  88.5055227 101.7786347  78.1815091  87.8799173 100.4099107
  72.6555390  83.9522087 106.4081278  72.5175188  83.2202326 107.0092817
  73.5660313  83.8630987 106.1265466  81.6170337  85.8910492  91.1565757
  80.9999508  85.1657320  91.0598809  81.1486826  86.6519852  90.8132831
  75.2837690  83.6642047 105.8964958  75.9937309  83.0235239 105.8551576
  75.2406998  83.9154941 106.8191139  83.2724469  90.6009400 108.8171537
  83.2137015  89.9168620 108.1502120  83.6743987  91.3428390 108.3652163
  73.9966624  80.6507264 107.7160597  73.4603981  80.1998003 108.3682194
  73.4083333  80.7853173 106.9731062  72.2915168  97.4171314 101.6105256
  72.5311766  98.0489838 102.2884275  71.4484364  97.0659354 101.8970615
  73.4068883  80.1095916  90.2787061  72.5298350  79.9884717  89.9149308
  73.8826636  79.3181994  90.0265950  83.2741876  88.5648984 107.0485517
  82.3868655  88.2274906 107.1711916  83.8440427  87.8332015 107.2854282
  64.9271023  84.8973076 100.3728568  65.6142063  84.5834806  99.7849584
  64.7719152  85.8014440 100.0995820  69.7305746  79.7863272 104.8013592
  69.6463934  79.1788942 104.0664002  68.9088452  80.2772290 104.8023088
  76.8043030  93.2250436 104.0146760  76.7313201  94.0305408 104.5266065
  76.3620423  93.4242402 103.1894781  76.5932809  92.4622206  97.5249582
  75.8100331  93.0043886  97.6187806  77.2925554  92.9796186  97.9243823
  79.9029459  78.2716836 100.1683787  80.3998159  77.5186798  99.8484857
  79.1316441  78.3081152  99.6026996  87.7559217  83.9757201 101.8102078
  87.7449093  84.8581917 101.4396012  86.8876596  83.6228752 101.6156616
  79.2641713  93.1237270 106.1704919  79.9769685  93.7584735 106.0980820
  78.7731742  93.2201136 105.3544921  80.9859240  87.0288523  97.7422210
  80.0515519  87.1489985  97.5726915  81.1635909  86.1260990  97.4782220
  76.4864428  80.4134219  99.8955472  76.1162216  79.8605259 100.5836377
  76.9823521  79.8092352  99.3430472  84.3731791  82.8705842  98.2772245
  84.8392244  83.7033834  98.2032547  84.8239292  82.4050824  98.9817503
  74.3153627  90.8731714 106.9910490  75.0163086  91.5068197 107.1439884
  73.8448742  91.2146445 106.2306129  82.4408023  89.2149664  95.2758397
  82.7167866  89.1006258  96.1852271  81.5712521  88.8167148  95.2370570
  82.3448454  75.2386429 102.3163146  81.4311534  75.4690656 102.4845353
  82.7741556  75.3224873 103.1677178  82.1154913  83.4276321 104.8163040
  81.4626363  83.6752229 104.1615493  82.4935293  82.6140459 104.4825517
  79.0762087  93.4636014  98.9191210  79.2584481  92.6457670  99.3818962
  79.8995073  93.6803707  98.4816100  79.4104252  92.3904199  96.1806259
  79.9392018  91.8796654  95.5676421  79.6732472  92.0746730  97.0451792
  78.1642486  84.1696132 111.3029077  77.4883123  84.0690262 111.9731452
  78.9870120  84.0135346 111.7665074  69.9121345  90.4068069 103.9241592
  70.4974782  89.6611757 104.0569496  69.7146183  90.7172025 104.8078256
  72.7660000  93.4419316  98.9404035  72.0970375  93.9265444  98.4568075
  72.6272870  93.6888537  99.8547413  64.5038999  82.9773669 102.6446035
  64.5423099  82.4437260 103.4383153  63.9979292  82.4508874 102.0257013
  76.9065269  95.4763060 105.5386693  77.4583577  95.6394681 106.3035778
  77.2471462  96.0667498 104.8666718  71.8829762  77.8238209 106.1408578
  71.9471088  78.6853040 105.7285975  71.8196882  77.2112211 105.4080936
  71.3582034  79.8961342 109.7881612  71.9854073  79.5138419 110.4019136
  70.5009953  79.6775544 110.1537304  68.1347577  81.7037771  95.7199967
  68.4301018  80.7948450  95.6667020  67.2335613  81.6825511  95.3980969
  80.0433656  93.4245035 102.5250375  79.9184795  92.6234775 102.0161321
  80.7012747  93.9191229 102.0364345  71.6641824  79.7793768 101.7027515
  70.9428410  80.3929735 101.5634989  72.4535080  80.3151533 101.6244161
  82.1068564  91.2254055 104.1529925  81.1598900  91.1059406 104.0808252
  82.4551337  90.3376553 104.2356187  74.4668138  77.1148194 107.9768167
  74.9902539  77.3610491 108.7394476  74.2480471  77.9468229 107.5571304
  69.8635419  79.3851869  95.8439292  69.5348125  78.5049248  95.6614398
  70.2174789  79.3299537  96.7315681  79.1114998  91.0206772 100.3534277
  78.9639960  90.0923479 100.5341847  79.9368491  91.0426862  99.8691353
  72.9777242  79.6724839  96.2114770  73.3173314  80.2010760  95.4893378
  73.4249362  80.0105245  96.9873336  82.7149119  91.8435330 101.4399150
  83.6395667  91.6378192 101.3023601  82.5464423  91.5951731 102.3488492
  75.6720683  78.0561889 105.6617838  75.3317503  77.2569702 106.0638518
  74.9659689  78.3563600 105.0894671  76.3237154  75.1411202 104.1145161
  77.1463224  74.6671680 103.9924051  76.5675218  75.9201685 104.6143847
  74.9645389  78.1699460  94.4108062  75.6853751  78.5480713  93.9071779
  74.3410693  78.8888337  94.5143040  79.1076512  78.8744609  95.3466395
  79.3240126  79.7569247  95.0455223  78.6270579  78.4830823  94.6172037
  73.8475733  81.8330322 101.9237139  73.7020314  82.1470625 102.8161421
  73.3700937  82.4515223 101.3708038  75.7072116  78.8232870 101.9718029
  75.6933685  77.9273964 101.6350327  76.4244544  78.8303534 102.6056315
  77.5598247  79.2570211 104.0171156  77.3016025  80.1787281 104.0155487
  77.0283287  78.8600645 104.7071620  82.5044436  92.3620998  96.7961242
  82.6781313  91.7967420  96.0435094  82.9973327  93.1621893  96.6140732
  68.3221395  84.3735667 104.8624800  67.7774863  85.1495475 104.9945075
  69.2000745  84.7206471 104.7043922  75.1109012  77.7047251  97.2405599
  75.2324923  76.7763897  97.4396486  74.8211054  77.7185937  96.3283914
  77.9800202  75.3902161 100.3772319  78.0021899  75.4541494  99.4224298
  78.3968261  74.5506670 100.5712825  88.3583827  85.1257421  98.4151541
  88.8014973  84.3764746  98.0170665  87.4810337  85.1167557  98.0325273
  83.4919608  91.6787762  93.8958140  84.1870513  92.2994455  94.1145455
  83.8342758  90.8283113  94.1710518  69.1087417  83.5005563 107.7554957
  68.3669153  83.6488198 108.3419588  68.7880162  83.7613829 106.8921707
  85.3911031  89.1287468  95.4245471  85.9162355  89.4674740  94.6994791
  85.3033384  88.1934483  95.2408605  77.0531080  93.0421541 107.5535347
  77.3618206  92.7970688 108.4258047  77.8506562  93.2468180 107.0654218
  77.0751692  95.1959451  99.7840724  76.6356682  94.7035830 100.4773581
  77.8259809  94.6532419  99.5432799  69.5544031  91.3870992  99.7865352
  70.3802051  91.0874764  99.4063995  69.2038083  90.6178614 100.2355141
  74.5225564  90.7397460 101.8563026  73.9005573  90.0768165 101.5565253
  75.1930431  90.7658592 101.1736673  67.7552636  89.3057318 100.7454286
  66.9184544  88.8779493 100.5638287  67.7276281  89.4989762 101.6825077
  74.5950092  79.2179248 111.4495532  74.6438247  80.0941371 111.0673301
  75.1372606  78.6756641 110.8767175  85.2002812  86.6112838 108.0429397
  85.2500817  86.4462845 108.9844920  85.0916736  85.7440097 107.6527278
  74.0839071  89.2901383  95.3321486  74.2327191  89.9736848  94.6788159
  74.8905514  89.2706473  95.8470942  82.4906575  82.5943766 109.3588704
  83.3916437  82.4550231 109.0672702  82.5654549  82.7598221 110.2986881
  76.8249380  79.9710620 108.2041890  75.9552689  80.2644186 107.9324479
  77.0608860  80.5551065 108.9249154  86.7021009  89.0309779 108.2871419
  86.4105817  89.3939760 109.1234880  86.0893140  88.3176787 108.1084751
  87.9016691  86.5962659 100.8073989  88.7363583  87.0352463 100.9711549
  88.0375820  86.1201312  99.9882235  84.9508197  84.1542394 106.7551477
  85.4262319  84.3470040 105.9470328  84.0273763  84.2101580 106.5094860
  71.8391704  85.3166561  96.3382555  71.5937746  84.4128891  96.5362765
  72.0087619  85.3183711  95.3962033  79.5288414  76.1890237 105.7207311
  80.0470358  76.9251264 105.3953799  79.1743547  76.4954231 106.5554070
  71.1087352  81.0494919  93.8368716  70.4156596  81.1239274  93.1808752
  70.8639103  80.2855262  94.3590233  79.7801008  72.6090520 101.2408207
  80.0602762  71.9413709 101.8668634  80.5651615  72.8019615 100.7282871
  77.5834477  91.7849514  92.8033234  77.0108444  92.4039701  92.3503705
  78.1567270  92.3348875  93.3373155  83.6509866  81.0308154 104.9879782
  84.6027289  81.1306252 105.0092006  83.4813317  80.2386422 105.4977867
  81.6724246  78.1163737 105.1739183  81.0774178  78.3968750 104.4785672
  81.3873943  78.6057638 105.9455924  80.8031736  92.0686664  93.9341816
  81.7362409  92.0032226  94.1374691  80.7154949  92.9042931  93.4756348
  83.4319753  91.3852534  90.8945763  83.3533385  91.0512398  91.7881521
  84.2529420  91.8774302  90.8937236  86.1297944  84.2514274 104.1022082
  86.0974264  83.3130274 104.2881766  86.7398568  84.3298310 103.3687907
  77.9681275  83.1210327  90.1449286  78.9140380  82.9916535  90.2137704
  77.5895520  82.3824988  90.6218714  86.2792433  81.0425317 104.1480365
  85.7631481  80.2583774 103.9610294  87.1632381  80.7144034 104.3126885
  83.9403160  74.7866333 100.1076178  83.7427981  74.4781421 100.9919510
  84.5502865  75.5127971 100.2374108  91.9474494  85.3130280 103.2428119
  92.6777882  85.0515569 103.8035822  91.3381439  84.5759002 103.2830187
  90.0289791  83.4538143 103.8402570  89.3022955  83.3194108 103.2319062
  89.6137078  83.7614972 104.6459288  77.8519968  87.1728073 111.6049943
  78.7722977  87.3506672 111.7989989  77.8169551  86.2284118 111.4529642
  76.1524192  81.0460303  90.0804171  75.2455648  80.7493416  90.1566885
  76.4300173  80.7490121  89.2138457  67.0702133  82.3666666 100.5303218
  66.7504917  81.5131975 100.2377592  66.5235561  82.5815244 101.2861185
  70.8482040  85.0829107 104.2472724  71.0668050  86.0146215 104.2660758
  71.2607814  84.7237082 105.0327528  77.7686258  75.5897193  96.2348413
  76.9586986  75.2444278  96.6103659  78.4570675  75.2804736  96.8236024
  79.6976806  74.6675239  97.8572709  80.2507845  75.0870693  98.5162732
  79.9346893  73.7410988  97.8995665  75.7209905  80.6562313 113.6375473
  75.6206632  81.6056670 113.5687564  75.5031447  80.3280552 112.7651543
  66.9390393  85.9869578 102.4996339  66.2453864  85.5723531 101.9866294
  67.6863384  86.0290114 101.9029758  83.0755613  76.7775765  97.3651373
  82.4954282  77.4360569  96.9829426  82.8091546  75.9553109  96.9538791
  81.5259180  76.1780822  99.5672694  82.0258958  76.2897357  98.7587013
  82.1694788  75.8741875 100.2073502  75.5841175  84.0859452 112.4540535
  75.1008257  84.8859812 112.6604424  75.6702115  84.0967397 111.5007979
  68.8527135  85.9187832 100.3762354  68.8297823  86.0175519  99.4244237
  69.1627772  86.7652982 100.6979520  71.5114513  87.9763987 104.4908969
  72.4657767  87.9447929 104.4238900  71.3127037  87.5154610 105.3059194
  72.1013895  86.5465103 107.0579766  72.9206784  87.0409181 107.0814603
  72.3750703  85.6297071 107.0297334  81.8580491  78.9375855  96.4207722
  80.9706346  79.2225506  96.2027916  82.2734480  78.7769618  95.5734999
  85.2095027  78.9622376 100.1362061  85.9855418  79.4518828 100.4086678
  84.4843162  79.3880430 100.5933930  87.6467586  79.6749995 101.1936002
  88.2412077  79.4345731 100.4829310  87.7194170  78.9557126 101.8209538
  69.8664742  93.5183606 101.5079166  69.7319210  92.7584007 100.9417164
  69.4496804  94.2424506 101.0407955  81.0023705  88.7020530  90.5155742
  81.7059555  88.9070532  91.1313397  80.2786354  89.2697292  90.7804825
  81.8321515  84.4530391  96.6358012  81.7756716  84.9098942  95.7965644
  82.3849857  83.6921076  96.4580855  85.6426321  80.2420123  97.4608131
  85.3863255  79.8416758  98.2916339  85.0179189  80.9563917  97.3358270
  89.9538659  82.9816196  99.9679423  89.3938217  83.0509385 100.7410985
  89.3482162  82.8057181  99.2478919  73.0233868  94.4152923 101.7197609
  72.9066252  95.3598356 101.6176299  72.2026314  94.1126485 102.1083408
  82.9110402  89.1403059  92.5654202  83.7456006  88.7084257  92.3831677
  82.7494745  88.9685073  93.4931096  82.5656294  85.6435172  93.9310541
  82.5105098  85.4779444  92.9898985  81.9402350  86.3511205  94.0872731
  67.3548809  80.8803237 107.7571963  68.0007673  80.3702191 108.2459188
  67.1465960  81.6171918 108.3315388  75.8752420  75.1443281  93.5095859
  75.8631090  76.0885121  93.6664130  76.7675842  74.9613427  93.2155321
  74.0488382  95.0681185 104.9353537  74.9515628  95.1004795 105.2520032
  73.8225752  94.1381636 104.9499873  75.8041984  93.8212172 101.5963616
  74.8537615  93.8214033 101.4827988  76.1074470  93.0744906 101.0799651
  79.6904539  71.7386058  97.7641796  78.9236935  71.1844545  97.9098479
  80.1015244  71.8107927  98.6255948  71.6946300  78.0270854 111.8546977
  72.5577762  77.6707658 112.0650302  71.1211711  77.6884748 112.5422382
  88.3484384  99.6100138 102.5970903  88.0102895  99.4941203 101.7091438
  89.2174152  99.2091303 102.5771909  84.2071199 101.4635614  98.5867794
  83.6436064 101.3725551  97.8184082  84.0923594 100.6435519  99.0670287
  81.7535631 102.9586806 101.4252015  82.5456923 102.6177631 101.0098314
  81.9932281 103.0681781 102.3454168  89.7870758 105.1306582  93.8982259
  89.1358738 105.7160663  93.5116273  90.5815121 105.6612777  93.9577296
  83.7126385 102.2195719  94.2969393  84.4857261 101.6724706  94.1582269
  84.0651784 103.0839969  94.5083855  86.0492663  98.3788385  91.9287843
  86.3018184  97.8569907  91.1671306  85.1117222  98.2154531  92.0314527
  91.0935946  97.3824164  99.7362587  91.8799035  96.9643587  99.3853004
  91.3574650  98.2870256  99.9044235  91.2646023 102.8197014  94.4351243
  90.6291856 102.8931641  95.1472148  90.9343430 103.4090613  93.7570323
  96.4944373  97.3199397 100.6395565  97.2269545  96.7498614 100.8733395
  95.7383729  96.9320997 101.0802071  85.7688952 100.2816491  94.1312218
  85.6525210  99.6061395  94.7993303  85.8791212  99.7948865  93.3144371
  88.1120493  99.7426639  97.8358907  87.7478700  99.2157259  98.5471829
  88.9687609  99.3525108  97.6625393  94.0169793  91.0320971 105.0990174
  93.6853118  91.9016382 104.8751389  93.4215407  90.7157255 105.7784204
  87.7525980  94.7716538  92.8320256  87.9200382  95.6396775  93.1990727
  87.5623149  94.9343820  91.9081545  83.9613794  99.6847314 100.5322791
  83.0364291  99.5523528 100.7400483  84.2098207 100.4641533 101.0292733
  87.7315200  97.2274196  93.8166923  87.6114826  97.6731246  94.6552403
  87.0367789  97.5759513  93.2580461  81.3222605  99.3280588 101.3666580
  81.4514986  99.5815066 102.2805992  80.6420057  99.9208296 101.0471235
  85.4922093 109.9977837  97.4657054  85.4146122 110.9485663  97.5445535
  84.8883736 109.6523710  98.1231980  93.4300267  97.6995669  94.6447257
  94.3418123  97.9323056  94.4694954  92.9209914  98.2832713  94.0822335
  90.7736241  93.8753705 102.8937118  89.9120720  94.1734958 103.1853855
  90.7998676  94.0924104 101.9618150  87.5897811 102.4195895  99.3010923
  88.0536156 102.6983598  98.5115546  87.3254609 101.5179340  99.1184014
  84.4821892 101.9667377 102.2390687  85.0523249 102.3954645 101.6008171
  85.0730004 101.6849962 102.9374872  86.5266697  98.5419048  96.1100489
  87.2290740  98.9940091  96.5774415  86.1947325  97.9002867  96.7380382
  80.2692031  96.8002600 101.4117622  79.4791085  97.0560129 100.9357733
  80.7603278  97.6150938 101.5169663  82.2206776  97.1647180  98.3701099
  81.4237939  97.2765874  98.8884594  81.9932368  97.5033832  97.5041989
  78.5529734  97.0533091 103.8432613  78.8037772  97.9380101 104.1090189
  79.0889282  96.8737692 103.0707705  87.7660461 105.3559990  96.1862594
  87.6306136 106.2011526  96.6147442  88.3070274 105.5579268  95.4228528
  81.2189859 102.8735428  96.7590519  81.7314379 103.6678679  96.9096084
  81.8712572 102.1761719  96.6924120  83.0284744 105.9901185  98.8413272
  83.2051372 106.9119149  98.6534256  83.8241577 105.6759604  99.2707652
  91.1152925  88.8790552 104.7161487  90.7717194  89.7692194 104.6400598
  91.4831888  88.6892210 103.8531072  79.1838776 101.2024083  97.5350089
  80.0213998 101.6121091  97.3183797  79.3617043 100.2623525  97.5050283
  91.0803208  98.8699163  93.2233922  90.5649831  99.6403768  93.4622310
  90.8080516  98.1964300  93.8466984  88.6650319  93.7148864  98.2819161
  87.8091915  93.3255715  98.1024799  89.0777271  93.7940825  97.4218946
  90.1949465  91.2495207 102.6810720  89.6914261  91.2125343 101.8678526
  90.4880072  92.1587950 102.7407377  86.4392351  91.3333937 101.6876902
  87.3045348  91.1376746 101.3282792  86.5069860  91.1044289 102.6146259
  96.0537482 101.6231518  95.1587096  95.2766925 101.2842678  94.7142258
  96.7328963 101.6284141  94.4842061  90.8689511  96.7426256  95.0493704
  90.5639646  97.0572405  95.9003847  91.8219953  96.8207675  95.0921037
  89.3135943 102.9016479  96.6986658  88.7857304 102.1669238  96.3859895
  88.8123445 103.6791155  96.4526626  84.0454670  93.5636145  99.0593269
  84.6198422  93.3411327  98.3266462  84.6325653  93.6324840  99.8121870
  93.1034248  99.4509872  99.8657646  93.6166129 100.0839864 100.3679355
  93.7535471  98.8511068  99.5001006  84.3724257  95.5940606  93.0789154
  83.5361570  95.9315293  93.3998429  84.2329027  95.4589586  92.1416291
  86.3477338  90.4377394  97.7868338  85.6941750  90.1226411  97.1624953
  86.3057812  89.8153134  98.5128161  87.4588543 100.7196689  89.7021631
  86.5515605 100.4885943  89.9012780  87.9559575  99.9234308  89.8895612
  90.3656622 109.4294196  92.6218317  89.6918321 109.7325893  93.2303275
  90.7522444 110.2323277  92.2723774  89.5815078  96.9259328 102.1115986
  88.6637640  97.1474275 101.9537674  89.9975222  97.0005638 101.2527693
  90.3650126  98.3250743  97.2418666  91.1121945  98.8372140  96.9325788
  90.6341716  98.0034796  98.1023060  88.6376776 100.8209284  94.2245621
  87.7287996 100.5368317  94.3218090  88.6671860 101.2408363  93.3648927
  92.8128963  95.3607859  99.2237456  92.0751720  94.8485246  99.5547698
  93.0655737  94.9208241  98.4120733  92.9140591  88.1384111  99.8179225
  93.2199467  87.2781475  99.5305140  93.6393196  88.7301732  99.6178219
  79.2064947  98.5414798  98.2060823  79.0089347  97.9484159  97.4811889
  78.6511611  98.2367008  98.9236762  87.1861670  98.4337905 100.3255416
  87.2410280  97.4811741 100.2497893  86.3752872  98.5897344 100.8096714
  88.3352864 102.3618028  91.5633699  87.8972294 101.6453887  91.1039337
  89.0763305 102.5894142  91.0018791  85.1254030  97.0514964  98.0845795
  84.3121896  97.3509135  98.4910987  85.6213025  96.6570653  98.8020277
  96.4525979 100.6375225  97.6210018  96.3143878 100.8276821  96.6931207
  96.0962198 101.3994607  98.0778069  84.6168105  94.6233320 103.7007030
  85.2567484  94.4822079 103.0029993  83.7845636  94.3367833 103.3245632
  85.3928409 103.9235750  99.8142022  86.1869008 103.4286070  99.6124597
  84.6820101 103.3953613  99.4509728  81.7011172  98.0678832  95.8901775
  80.7708761  98.0063287  96.1071737  81.7968644  97.5454785  95.0938416
  81.6196722  94.5933645  98.4780017  81.8803539  95.5078978  98.3689177
  82.4413894  94.1258087  98.6276629  83.0921647  96.0071402 105.6478841
  83.7644700  95.7988764 104.9991490  82.2651433  95.8093488 105.2084073
  88.5647837 109.5973869  94.8365396  88.7399593 109.1261912  95.6511019
  87.8780625 110.2239635  95.0646657  92.4564092 101.2202409  91.1565757
  91.8393262 100.4949237  91.0598809  91.9880580 101.9811770  90.8132831
  84.2462638  95.4387834  90.2787061  83.3692104  95.3176634  89.9149308
  84.7220391  94.6473912  90.0265950  75.7664778 100.2264993 100.3728568
  76.4535818  99.9126723  99.7849584  75.6112907 101.1306358 100.0995820
  80.5699500  95.1155190 104.8013592  80.4857689  94.5080859 104.0664002
  79.7482206  95.6064208 104.8023088  87.4326564 107.7914124  97.5249582
  86.6494086 108.3335804  97.6187806  88.1319309 108.3088104  97.9243823
  90.7423214  93.6008753 100.1683787  91.2391913  92.8478716  99.8484857
  89.9710195  93.6373070  99.6026996  91.8252995 102.3580441  97.7422210
  90.8909273 102.4781903  97.5726915  92.0029663 101.4552907  97.4782220
  87.3258183  95.7426136  99.8955472  86.9555970  95.1897177 100.5836377
  87.8217275  95.1384270  99.3430472  95.2125546  98.1997760  98.2772245
  95.6785998  99.0325751  98.2032547  95.6633046  97.7342741  98.9817503
  93.2801777 104.5441581  95.2758397  93.5561621 104.4298176  96.1852271
  92.4106276 104.1459066  95.2370570  93.1842209  90.5678347 102.3163146
  92.2705288  90.7982574 102.4845353  93.6135310  90.6516791 103.1677178
  90.2498007 107.7196117  96.1806259  90.7785773 107.2088572  95.5676421
  90.5126226 107.4038647  97.0451792  75.3432754  98.3065587 102.6446035
  75.3816853  97.7729177 103.4383153  74.8373047  97.7800792 102.0257013
  82.7223516  93.1530127 106.1408578  82.7864843  94.0144958 105.7285975
  82.6590637  92.5404129 105.4080936  78.9741332  97.0329689  95.7199967
  79.2694773  96.1240367  95.6667020  78.0729367  97.0117428  95.3980969
  82.5035579  95.1085685 101.7027515  81.7822164  95.7221653 101.5634989
  83.2928834  95.6443450 101.6244161  80.7029173  94.7143786  95.8439292
  80.3741879  93.8341165  95.6614398  81.0568544  94.6591455  96.7315681
  83.8170996  95.0016756  96.2114770  84.1567069  95.5302678  95.4893378
  84.2643117  95.3397162  96.9873336  86.5114437  93.3853807 105.6617838
  86.1711257  92.5861620 106.0638518  85.8053443  93.6855518 105.0894671
  87.1630909  90.4703119 104.1145161  87.9856978  89.9963598 103.9924051
  87.4068972  91.2493603 104.6143847  85.8039143  93.4991378  94.4108062
  86.5247506  93.8772631  93.9071779  85.1804448  94.2180255  94.5143040
  89.9470266  94.2036527  95.3466395  90.1633881  95.0861165  95.0455223
  89.4664333  93.8122740  94.6172037  84.6869488  97.1622240 101.9237139
  84.5414068  97.4762543 102.8161421  84.2094691  97.7807140 101.3708038
  86.5465871  94.1524788 101.9718029  86.5327439  93.2565881 101.6350327
  87.2638299  94.1595452 102.6056315  88.3992001  94.5862128 104.0171156
  88.1409779  95.5079199 104.0155487  87.8677042  94.1892563 104.7071620
  79.1615150  99.7027584 104.8624800  78.6168618 100.4787392 104.9945075
  80.0394500 100.0498389 104.7043922  85.9502767  93.0339168  97.2405599
  86.0718678  92.1055815  97.4396486  85.6604809  93.0477854  96.3283914
  88.8193957  90.7194079 100.3772319  88.8415654  90.7833412  99.4224298
  89.2362016  89.8798587 100.5712825  94.3313363 107.0079680  93.8958140
  95.0264267 107.6286372  94.1145455  94.6736513 106.1575031  94.1710518
  96.2304786 104.4579385  95.4245471  96.7556110 104.7966658  94.6994791
  96.1427138 103.5226401  95.2408605  80.3937785 106.7162909  99.7865352
  81.2195805 106.4166681  99.4063995  80.0431837 105.9470532 100.2355141
  78.5946390 104.6349236 100.7454286  77.7578299 104.2071410 100.5638287
  78.5670036 104.8281679 101.6825077  84.9232825 104.6193301  95.3321486
  85.0720946 105.3028765  94.6788159  85.7299269 104.5998391  95.8470942
  82.6785458 100.6458479  96.3382555  82.4331500  99.7420809  96.5362765
  82.8481373 100.6475629  95.3962033  90.3682168  91.5182155 105.7207311
  90.8864112  92.2543182 105.3953799  90.0137301  91.8246148 106.5554070
  81.9481106  96.3786836  93.8368716  81.2550351  96.4531191  93.1808752
  81.7032858  95.6147180  94.3590233  90.6194763  87.9382438 101.2408207
  90.8996516  87.2705627 101.8668634  91.4045369  88.1311533 100.7282871
  88.4228231 107.1141431  92.8033234  87.8502198 107.7331619  92.3503705
  88.9961025 107.6640793  93.3373155  91.6425491 107.3978582  93.9341816
  92.5756164 107.3324143  94.1374691  91.5548704 108.2334848  93.4756348
  94.2713507 106.7144452  90.8945763  94.1927139 106.3804316  91.7881521
  95.0923174 107.2066220  90.8937236  88.8075030  98.4502244  90.1449286
  89.7534134  98.3208452  90.2137704  88.4289274  97.7116906  90.6218714
  94.7796914  90.1158250 100.1076178  94.5821735  89.8073338 100.9919510
  95.3896620  90.8419889 100.2374108  86.9917947  96.3752221  90.0804171
  86.0849402  96.0785333  90.1566885  87.2693928  96.0782039  89.2138457
  77.9095887  97.6958584 100.5303218  77.5898671  96.8423892 100.2377592
  77.3629315  97.9107162 101.2861185  81.6875795 100.4121025 104.2472724
  81.9061804 101.3438133 104.2660758  82.1001568 100.0528999 105.0327528
  88.6080012  90.9189110  96.2348413  87.7980741  90.5736195  96.6103659
  89.2964429  90.6096654  96.8236024  90.5370561  89.9967157  97.8572709
  91.0901599  90.4162611  98.5162732  90.7740647  89.0702905  97.8995665
  85.7616731  93.2339156  90.2216150  86.6235895  93.5594054  90.4811968
  85.9467075  92.4470652  89.7089216  77.7784147 101.3161495 102.4996339
  77.0847618 100.9015448 101.9866294  78.5257138 101.3582032 101.9029758
  93.9149368  92.1067682  97.3651373  93.3348037  92.7652486  96.9829426
  93.6485300  91.2845027  96.9538791  92.3652934  91.5072740  99.5672694
  92.8652712  91.6189275  98.7587013  93.0088542  91.2033793 100.2073502
  79.6920890 101.2479749 100.3762354  79.6691578 101.3467437  99.4244237
  80.0021526 102.0944900 100.6979520  92.6974246  94.2667773  96.4207722
  91.8100101  94.5517423  96.2027916  93.1128235  94.1061536  95.5734999
  96.0488782  94.2914294 100.1362061  96.8249172  94.7810746 100.4086678
  95.3236916  94.7172348 100.5933930  98.4861341  95.0041913 101.1936002
  99.0805831  94.7637649 100.4829310  98.5587924  94.2849043 101.8209538
  91.8417459 104.0312447  90.5155742  92.5453309 104.2362450  91.1313397
  91.1180108 104.5989209  90.7804825  92.6715270  99.7822309  96.6358012
  92.6150471 100.2390860  95.7965644  93.2243612  99.0212993  96.4580855
  96.4820075  95.5712040  97.4608131  96.2257010  95.1708676  98.2916339
  95.8572943  96.2855834  97.3358270  93.7504157 104.4694977  92.5654202
  94.5849761 104.0376175  92.3831677  93.5888500 104.2976990  93.4931096
  93.4050049 100.9727090  93.9310541  93.3498853 100.8071361  92.9898985
  92.7796104 101.6803123  94.0872731  78.1942564  96.2095154 107.7571963
  78.8401427  95.6994108 108.2459188  77.9859715  96.9463836 108.3315388
  86.7146174  90.4735199  93.5095859  86.7024844  91.4177039  93.6664130
  87.6069596  90.2905344  93.2155321  90.5298294  87.0677975  97.7641796
  89.7630690  86.5136462  97.9098479  90.9408999  87.1399844  98.6255948
  95.2118012 110.9232524  93.0789154  94.3755324 111.2607210  93.3998429
  95.0722782 110.7881504  92.1416291  95.0856392 110.7679751  90.2787061
  94.2085859 110.6468552  89.9149308  95.5614145 109.9765830  90.0265950
  92.7874860 111.7078754  93.8368716  92.0944105 111.7823109  93.1808752
  92.5426612 110.9439098  94.3590233  97.8311701 111.7044138  90.0804171
  96.9243157 111.4077251  90.1566885  98.1087682 111.4073956  89.2138457
  96.6010486 108.5631073  90.2216150  97.4629650 108.8885972  90.4811968
  96.7860830 107.7762569  89.7089216  97.5539929 105.8027117  93.5095859
  97.5418599 106.7468956  93.6664130  98.4463351 105.6197262  93.2155321
  37.3425906   0.0175244  89.3854685  37.9804316  -0.1018008  88.6818025
  37.2246749   0.9656088  89.4442637  34.1515612  -0.0297328  89.3216210
  33.8134124  -0.1456263  88.4336745  35.0205381  -0.4306163  89.3017216
  30.0102428   1.8238149  85.3113101  29.4467293   1.7328086  84.5429389
  29.8954823   1.0038053  85.7915593  35.5901987   5.4909116  80.6227566
  34.9389967   6.0763197  80.2361579  36.3846350   6.0215311  80.6822603
  29.5157614   2.5798254  81.0214700  30.2888490   2.0327241  80.8827576
  29.8683013   3.4442503  81.2329161  31.8523892  -1.2609080  78.6533150
  32.1049412  -1.7827559  77.8916613  30.9148451  -1.4242935  78.7559834
  36.8967175  -2.2573302  86.4607893  37.6830264  -2.6753879  86.1098310
  37.1605879  -1.3527210  86.6289542  37.0677252   3.1799548  81.1596550
  36.4323085   3.2534175  81.8717455  36.7374658   3.7693147  80.4815629
  42.2975602  -2.3198069  87.3640872  43.0300774  -2.8898852  87.5978701
  41.5414957  -2.7076468  87.8047377  31.5720180   0.6419026  80.8557525
  31.4556439  -0.0336071  81.5238609  31.6822440   0.1551400  80.0389678
  33.9151721   0.1029173  84.5604214  33.5509929  -0.4240206  85.2717136
  34.7718837  -0.2872358  84.3870700  33.5557208  -4.8680928  79.5565563
  33.7231611  -4.0000691  79.9236034  33.3654377  -4.7053646  78.6326852
  36.3132542   3.5936051  91.2231393  36.0133265   4.4961090  91.1147200
  35.9683601   3.3268235  92.0752546  39.7129685  -3.8881408  88.9028830
  38.8046563  -3.9566000  88.6087591  39.6617281  -3.4109464  89.7310656
  33.5346429  -2.4123270  80.5412229  33.4146054  -1.9666219  81.3797710
  32.8399018  -2.0637952  79.9825768  31.2953321  10.3580372  84.1902361
  31.2177351  11.3088197  84.2690841  30.6914965  10.0126244  84.8477287
  39.2331495  -1.9401797  81.3692564  40.1449352  -1.7074410  81.1940261
  38.7241142  -1.3564753  80.8067642  37.8401078   3.0424022  88.7606145
  37.2109940   3.2069736  88.0582213  37.4526740   3.4565631  89.5317109
  41.7190310   3.9778459  86.1150509  41.0341348   4.3577361  85.5647542
  41.8034159   4.5873786  86.8482456  33.3929040   2.7798430  86.0256230
  33.8567385   3.0586133  85.2360853  33.1285838   1.8781874  85.8429321
  32.3297926  -1.0978418  82.8345795  33.0321969  -0.6457374  83.3019722
  31.9978554  -1.7394599  83.4625688  40.0887069   4.5010374  90.8868210
  40.9104513   4.0990561  90.6050891  40.0849472   4.3978608  91.8384325
  48.1793062   0.8449122  87.2353181  47.4256771   0.2756520  87.0797185
  48.3140603   0.8111787  88.1823816  33.5691690   5.7162525  82.9107900
  33.4337365   6.5614060  83.3392748  34.1101503   5.9181802  82.1473834
  27.0221088   3.2337963  83.4835826  27.5345608   4.0281213  83.6341390
  27.6743800   2.5364253  83.4169427  28.8315972   6.3503719  85.5658579
  29.0082601   7.2721684  85.3779563  29.6272806   6.0362138  85.9952958
  29.9547288   7.8681893  91.5668921  30.5054713   7.7398956  90.7945915
  29.1158764   8.1676782  91.2163814  36.8834437  -0.7698302  79.9479229
  36.3681060   0.0006302  80.1867616  36.6111745  -1.4433166  80.5712290
  41.8568711   1.9834052  81.8832402  41.0798153   1.6445212  81.4387565
  42.5360192   1.9886675  81.2087368  36.6720740  -2.8971210  81.7739010
  36.3670875  -2.5825061  82.6249153  37.6251182  -2.8189790  81.8166343
  35.1167172   3.2619013  83.4231964  34.5888533   2.5271773  83.1105202
  34.6154674   4.0393689  83.1771932  40.0960018   1.4568034  88.5399010
  39.4383692   2.1467295  88.6279139  40.9000417   1.8464465  88.8832997
  38.9065476  -0.1887594  86.5902952  39.4197358   0.4442398  87.0924662
  39.5566700  -0.7886398  86.2246312  33.2619772   1.0799223  76.4266937
  32.3546833   0.8488477  76.6258086  33.7590804   0.2836843  76.6140919
  36.1687851   9.7896730  79.3463623  35.4949549  10.0928427  79.9548581
  36.5553673  10.5925811  78.9969080  36.1681355  -1.3146723  83.9663973
  36.9153174  -0.8025325  83.6571095  36.4372945  -1.6362670  84.8268367
  34.4408005   1.1811818  80.9490927  33.5319224   0.8970851  81.0463397
  34.4703089   1.6010897  80.0894234  39.6727273   4.7918408  84.7182095
  39.2189600   3.9509318  84.7747285  39.0421239   5.4279806  85.0556875
  38.6160192  -4.2789606  85.9482762  37.8782949  -4.7912220  86.2793005
  38.8686966  -4.7189225  85.1366039  38.1160212   6.6294904  85.6531913
  38.4083186   7.1899961  84.9344279  38.6258832   6.9223465  86.4085072
  32.9892899  -1.2059561  87.0500723  33.0441509  -2.1585725  86.9743199
  32.1784101  -1.0500122  87.5342021  34.1384093   2.7220562  78.2879006
  33.7003523   2.0056421  77.8284643  34.8794534   2.9496677  77.7264097
  30.9285259  -2.5882501  84.8091101  30.1153125  -2.2888331  85.2156294
  31.4244253  -2.9826813  85.5265584  33.0793837   7.4075255  86.7425366
  33.0370016   7.6336102  85.8133898  33.9956536   7.1738630  86.8911167
  42.2557208   0.9977759  84.3455324  42.1175106   1.1879355  83.4176514
  41.8993427   1.7597142  84.8023376  42.2826587   3.0654286  89.3566596
  42.7163094   2.9729575  90.2049650  42.9958168   3.0411786  88.7186612
  31.1959638   4.2838284  86.5387329  31.9900236   3.7888605  86.3369904
  30.4851330   3.7556148  86.1755034  36.0154482   6.6656380  90.8899697
  36.0691505   7.2347316  91.6577412  35.1469264   6.8358265  90.5253734
  43.1442137   3.1077987  91.8899481  43.3378027   4.0123797  92.1358756
  43.0442755   2.6485406  92.7238066  33.7730914   4.8567306  90.2185166
  33.6342000   4.4886091  91.0911104  32.9845510   5.3714946  90.0469124
  34.3679066   9.9576403  81.5610703  34.5430821   9.4864446  82.3756325
  33.6811854  10.5842169  81.7891963  35.3236129   4.2348909  87.6074004
  34.9885962   4.1949679  88.5031654  34.8240075   3.5693625  87.1344414
  38.2595321   1.5804943  77.8811063  37.6424491   0.8551772  77.7844116
  37.7911809   2.3414304  77.5378138  28.9340151  13.1065766  88.3350563
  29.1736749  13.7384290  89.0129581  28.0909348  12.7553806  88.6215922
  33.4468013   8.9144888  90.7392067  33.3738184   9.7199860  91.2511371
  33.0045406   9.1136854  89.9140088  33.2357793   8.1516658  84.2494888
  32.4525314   8.6938338  84.3433113  33.9350538   8.6690638  84.6489129
  36.5454443  -6.0388712  86.8929094  37.0423142  -6.7918750  86.5730164
  35.7741424  -6.0024396  86.3272303  44.3984200  -0.3348347  88.5347385
  44.3874076   0.5476369  88.1641318  43.5301580  -0.6876796  88.3401922
  35.9066696   8.8131722  92.8950225  36.6194669   9.4479187  92.8226127
  35.4156725   8.9095588  92.0790227  37.6284223   2.7182975  84.4667517
  36.6940502   2.8384437  84.2972221  37.8060892   1.8155442  84.2027527
  41.0156775  -1.4399706  85.0017551  41.4817227  -0.6071714  84.9277854
  41.4664275  -1.9054724  85.7062810  39.0833006   4.9044115  82.0003703
  39.3592850   4.7900710  82.9097577  38.2137505   4.5061600  81.9615876
  35.7187070   9.1530466  85.6436517  35.9009464   8.3352122  86.1064269
  36.5420056   9.3698158  85.2061407  36.0529235   8.0798651  82.9051565
  36.5817002   7.5691106  82.2921727  36.3157455   7.7641182  83.7697098
  29.4084983   9.1313768  85.6649341  28.7395359   9.6159896  85.1813381
  29.2697853   9.3782988  86.5792720  33.5490252  11.1657512  92.2632000
  34.1008560  11.3289133  93.0281085  33.8896445  11.7561949  91.5912024
  36.6858639   9.1139487  89.2495682  36.5609779   8.3129227  88.7406627
  37.3437730   9.6085680  88.7609652  38.7493548   6.9148507  90.8775232
  37.8023883   6.7953858  90.8053559  39.0976321   6.0271005  90.9601493
  35.7539981   6.7101223  87.0779584  35.6064943   5.7817931  87.2587154
  36.5793474   6.7321314  86.5936659  39.3574103   7.5329782  88.1644457
  40.2820650   7.3272643  88.0268908  39.1889406   7.2846183  89.0733798
  35.7501495  -5.4360939  82.0711701  35.9665110  -4.5536301  81.7700529
  35.2695562  -5.8274726  81.3417343  39.1469419   8.0515450  83.5206548
  39.3206296   7.4861872  82.7680401  39.6398310   8.8516344  83.3386038
  45.0008810   0.8151873  85.1396848  45.4439956   0.0659198  84.7415971
  44.1235320   0.8062009  84.7570580  40.1344591   7.3682214  80.6203447
  40.8295496   7.9888907  80.8390761  40.4767742   6.5177565  80.8955824
  42.0336014   4.8181920  82.1490777  42.5587339   5.1569192  81.4240097
  41.9458367   3.8828935  81.9653912  33.7176675  10.8853903  86.5086030
  33.2781666  10.3930281  87.2018887  34.4684792  10.3426870  86.2678106
  26.1969014   7.0765444  86.5110659  27.0227034   6.7769216  86.1309302
  25.8463066   6.3073066  86.9600447  31.1650547   6.4291912  88.5808332
  30.5430557   5.7662617  88.2810560  31.8355414   6.4553044  87.8981980
  24.3977619   4.9951770  87.4699592  23.5609528   4.5673944  87.2883593
  24.3701265   5.1884213  88.4070383  30.7264054   4.9795835  82.0566793
  30.8752175   5.6631300  81.4033465  31.5330498   4.9600925  82.5716248
  43.3445992   4.7204231  95.0116725  43.0530801   5.0834212  95.8480186
  42.7318124   4.0071239  94.8330057  44.5441675   2.2857111  87.5319296
  45.3788566   2.7246915  87.6956856  44.6800804   1.8095764  86.7127541
  28.4816687   1.0061013  83.0627862  28.2362729   0.1023343  83.2608072
  28.6512602   1.0078163  82.1207340  34.2259460   7.4743966  79.5278540
  33.6533427   8.0934153  79.0749012  34.7992253   8.0243327  80.0618462
  37.4456720   7.7581116  80.6587122  38.3787393   7.6926677  80.8619998
  37.3579932   8.5937383  80.2001655  40.0744736   7.0746986  77.6191070
  39.9958368   6.7406850  78.5126828  40.8954403   7.5668754  77.6182542
  42.7722927  -0.0591275  90.8267389  42.7399248  -0.9975274  91.0127072
  43.3823551   0.0192762  90.0933213  34.6106258  -1.1895222  76.8694593
  35.5565363  -1.3189013  76.9383011  34.2320503  -1.9280560  77.3464021
  48.5899477   1.0024732  89.9673425  49.3202866   0.7410020  90.5281129
  47.9806423   0.2653454  90.0075493  46.6714774  -0.8567405  90.5647877
  45.9447938  -0.9911440  89.9564368  46.2562061  -0.5490577  91.3704595
  32.7949175  -3.2645245  76.8049478  31.8880631  -3.5612132  76.8812191
  33.0725156  -3.5615427  75.9383764  39.7180597  -7.5329784  84.0896680
  39.1379266  -6.8744979  83.7074732  39.4516529  -8.3552439  83.6784098
  38.5005475  -5.3729693  83.1453028  37.6131330  -5.0880043  82.9273223
  38.9159464  -5.5335930  82.2980305  41.8520011  -5.3483172  86.8607368
  42.6280401  -4.8586720  87.1331984  41.1268145  -4.9225118  87.3179237
  44.2892569  -4.6355553  87.9181308  44.8837060  -4.8759817  87.2074616
  44.3619153  -5.3548422  88.5454844  26.5089725   9.2078058  88.2324473
  26.3744193   8.4478459  87.6662471  26.0921787   9.9318958  87.7653262
  37.6448688   4.3914982  77.2401048  38.3484538   4.5964984  77.8558704
  36.9211337   4.9591743  77.5050132  38.4746498   0.1424843  83.3603318
  38.4181700   0.5993394  82.5210951  39.0274841  -0.6184473  83.1826161
  42.2851304  -4.0685425  84.1853438  42.0288238  -4.4688790  85.0161646
  41.6604172  -3.3541631  84.0603577  46.5963642  -1.3289352  86.6924729
  46.0363200  -1.2596163  87.4656291  45.9907145  -1.5048367  85.9724226
  29.6658851  10.1047375  88.4442916  29.5491235  11.0492808  88.3421606
  28.8451297   9.8020937  88.8328715  39.5535385   4.8297511  79.2899508
  40.3880989   4.3978709  79.1076983  39.3919728   4.6579524  80.2176403
  39.2081278   1.3329624  80.6555848  39.1530081   1.1673895  79.7144292
  38.5827333   2.0405657  80.8118037  30.6913365  10.7575637  91.6598844
  31.5940612  10.7899247  91.9765339  30.4650735   9.8276088  91.6745180
  32.4466967   9.5106623  88.3208923  31.4962598   9.5108485  88.2073295
  32.7499453   8.7639358  87.8044957  48.1819661  15.3467162  89.3854685
  48.8198071  15.2273909  88.6818025  48.0640503  16.2948006  89.4442637
  44.9909367  15.2994590  89.3216210  44.6527878  15.1835655  88.4336745
  45.8599135  14.8985755  89.3017216  40.8496183  17.1530066  85.3113101
  40.2861048  17.0620003  84.5429389  40.7348578  16.3329971  85.7915593
  45.4729150  16.4529442  95.2802415  45.4617791  16.0582240  94.4082919
  45.6349789  15.7195514  95.8736187  38.3960614  18.6481258  88.1497321
  39.1881906  18.3072083  87.7343621  38.6357265  18.7576233  89.0699475
  46.4295741  20.8201034  80.6227566  45.7783721  21.4055114  80.2361579
  47.2240104  21.3507229  80.6822603  40.3551368  17.9090171  81.0214700
  41.1282244  17.3619158  80.8827576  40.7076767  18.7734421  81.2329161
  42.1936411  19.2366553  94.2281599  41.9026277  20.1412184  94.1128266
  42.8293395  19.2783081  94.9425669  43.1192618  16.6143402  90.8182959
  43.7156190  16.3899424  90.1039922  43.1767589  15.8728147  91.4208407
  42.6917646  14.0682837  78.6533150  42.9443167  13.5464359  77.8916613
  41.7542205  13.9048983  78.7559834  47.7360929  13.0718616  86.4607893
  48.5224018  12.6538039  86.1098310  47.9999633  13.9764708  86.6289542
  47.9071006  18.5091466  81.1596550  47.2716839  18.5826093  81.8717455
  47.5768413  19.0985065  80.4815629  53.1369356  13.0093849  87.3640872
  53.8694528  12.4393066  87.5978701  52.3808712  12.6215449  87.8047377
  42.4113935  15.9710943  80.8557525  42.2950193  15.2955847  81.5238609
  42.5216195  15.4843317  80.0389678  44.7545476  15.4321090  84.5604214
  44.3903683  14.9051711  85.2717136  45.6112592  15.0419559  84.3870700
  50.6594777   6.7215423  91.8235480  50.3278101   7.5910834  91.5996695
  50.0640390   6.4051707  92.5029511  44.3950963  10.4610990  79.5565563
  44.5625365  11.3291227  79.9236034  44.2048132  10.6238272  78.6326852
  47.1526296  18.9227969  91.2231393  46.8527019  19.8253008  91.1147200
  46.8077356  18.6560152  92.0752546  40.6038778  15.3741766  87.2568097
  39.6789274  15.2417980  87.4645789  40.8523191  16.1535985  87.7538040
  50.5523440  11.4410509  88.9028830  49.6440317  11.3725918  88.6087591
  50.5011036  11.9182454  89.7310656  44.3740184  12.9168648  80.5412229
  44.2539809  13.3625698  81.3797710  43.6792772  13.2653965  79.9825768
  37.9647589  15.0175039  88.0911886  38.0939970  15.2709518  89.0051298
  37.2845040  15.6102747  87.7716542  42.1347076  25.6872289  84.1902361
  42.0571106  26.6380114  84.2690841  41.5308719  25.3418162  84.8477287
  44.6264306  12.8600155  96.8463728  43.8497640  13.4194075  96.8366592
  45.2654869  13.3456938  97.3678598  52.4185086   9.6426948  90.6806704
  51.7759466   9.9359481  90.0346499  51.9140015   9.5279868  91.4859901
  50.0725250  13.3890121  81.3692564  50.9843106  13.6217508  81.1940261
  49.5634897  13.9727165  80.8067642  42.8810678  15.6685608  96.4081695
  43.6225362  16.2070652  96.1316518  42.1747663  16.2951897  96.5653246
  48.3566018  17.8114749  95.0053856  48.7649374  17.3697159  94.2608488
  47.6343279  17.2367376  95.2588049  44.7097088  12.7487355  92.3787413
  45.5558283  13.1726769  92.5222062  44.6495725  12.0920980  93.0725976
  48.6794832  18.3715939  88.7606145  48.0503695  18.5361653  88.0582213
  48.2920494  18.7857549  89.5317109  52.5584064  19.3070377  86.1150509
  51.8735102  19.6869278  85.5647542  52.6427913  19.9165704  86.8482456
  47.8596533  10.4091724  94.0368587  47.6157465  11.1633784  93.5002862
  48.1356463  10.7877071  94.8715834  49.8134996  16.9530336  92.7145852
  50.0251891  17.5962096  92.0380233  49.7664744  16.1192653  92.2467782
  47.4161225   9.5648157  89.6182424  46.5545704   9.8629410  89.9099162
  47.4423659   9.7818556  88.6863457  44.2322794  18.1090347  86.0256230
  44.6961140  18.3878050  85.2360853  43.9679592  17.2073792  85.8429321
  41.1246875  17.6561829  88.9635993  41.6948232  18.0849097  88.3253478
  41.7154987  17.3744414  89.6620179  43.1691680  14.2313500  82.8345795
  43.8715723  14.6834543  83.3019722  42.8372309  13.5897319  83.4625688
  41.6172042  12.8225256  97.2097005  40.9870702  13.5041537  97.4432401
  41.5108130  12.7108338  96.2650143  36.9117014  12.4897052  88.1362929
  36.1216068  12.7454581  87.6603039  37.4028261  13.3045390  88.2414969
  50.9280824  19.8302292  90.8868210  51.7498267  19.4282479  90.6050891
  50.9243227  19.7270526  91.8384325  38.8631759  12.8541632  85.0946405
  38.0662923  12.9660326  85.6129901  38.6357352  13.1928284  84.2287296
  44.6937427  19.3786335  93.0428920  44.7581860  19.8406742  93.8787092
  43.9848351  18.7483700  93.1711230  35.1954717  12.7427543  90.5677920
  35.4462756  13.6274553  90.8335496  35.7314265  12.5632144  89.7953011
  59.0186817  16.1741040  87.2353181  58.2650525  15.6048438  87.0797185
  59.1534358  16.1403705  88.1823816  44.4085445  21.0454442  82.9107900
  44.2731120  21.8905978  83.3392748  44.9495257  21.2473720  82.1473834
  37.8614842  18.5629880  83.4835826  38.3739363  19.3573131  83.6341390
  38.5137555  17.8656171  83.4169427  39.6709727  21.6795637  85.5658579
  39.8476355  22.6013601  85.3779563  40.4666560  21.3654056  85.9952958
  43.8120745   8.5403901  97.1642512  44.5530459   9.1411054  97.0846975
  44.0438668   7.7981539  96.6060555  38.9562083  13.7260269  95.4420742
  38.8415599  12.8245526  95.7427841  38.1006601  13.9723965  95.0905558
  46.0353921  21.6678009  97.0408242  45.5917775  20.8814387  96.7229147
  46.6971135  21.8557159  96.3752133  40.7941042  23.1973810  91.5668921
  41.3448467  23.0690874  90.7945915  39.9552518  23.4968699  91.2163814
  48.1335159  21.9480809  95.0689644  48.1153635  22.7689690  94.5769913
  49.0555079  21.8234884  95.2939785  44.5908213  19.4624938  95.9113152
  45.1236550  18.7013226  95.6812460  44.0622294  19.1698590  96.6537307
  47.7577908   4.5685004  91.4406794  47.4142178   5.4586646  91.3645904
  48.1256871   4.3786662  90.5776379  35.8263759  16.8918535  84.2595396
  36.6638981  17.3015543  84.0429104  36.0042027  15.9517977  84.2295590
  47.7228191  14.5593615  79.9479229  47.2074814  15.3298220  80.1867616
  47.4505499  13.8858751  80.5712290  45.3075302   9.4043316  85.0064467
  44.4516898   9.0150166  84.8270106  45.7202254   9.4835277  84.1464253
  46.8374449   6.9389659  89.4056027  46.3339244   6.9019795  88.5923832
  47.1305056   7.8482402  89.4652684  43.0817335   7.0228389  88.4122209
  43.9470331   6.8271198  88.0528098  43.1494844   6.7938741  89.3391566
  52.6962465  17.3125970  81.8832402  51.9191908  16.9737129  81.4387565
  53.3753946  17.3178593  81.2087368  47.5114494  12.4320707  81.7739010
  47.2064630  12.7466857  82.6249153  48.4644936  12.5102127  81.8166343
  45.9560926  18.5910931  83.4231964  45.4282288  17.8563690  83.1105202
  45.4548429  19.3685607  83.1771932  50.9353772  16.7859951  88.5399010
  50.2777447  17.4759213  88.6279139  51.7394171  17.1756383  88.8832997
  40.6879654   9.2530597  85.7838576  41.2623406   9.0305778  85.0511769
  41.2750636   9.3219292  86.5367177  49.7459231  15.1404324  86.5902952
  50.2591113  15.7734316  87.0924662  50.3960455  14.5405519  86.2246312
  41.0149241  11.2835058  79.8034461  40.1786553  11.6209745  80.1243736
  40.8754010  11.1484038  78.8661598  42.9902321   6.1271846  84.5113645
  42.3366734   5.8120863  83.8870260  42.9482796   5.5047586  85.2373468
  44.1013526  16.4091141  76.4266937  43.1940588  16.1780394  76.6258086
  44.5984558  15.6128760  76.6140919  47.0081605  25.1188648  79.3463623
  46.3343304  25.4220345  79.9548581  47.3947427  25.9217729  78.9969080
  46.2240062  12.6153779  88.8361293  45.3062623  12.8368726  88.6782981
  46.6400205  12.6900090  87.9773000  47.0075110  14.0145195  83.9663973
  47.7546928  14.5266592  83.6571095  47.2766699  13.6929248  84.8268367
  45.2801760  16.5103736  80.9490927  44.3712979  16.2262769  81.0463397
  45.3096843  16.9302814  80.0894234  50.5121027  20.1210325  84.7182095
  50.0583354  19.2801235  84.7747285  49.8814994  20.7571724  85.0556875
  49.4553947  11.0502311  85.9482762  48.7176703  10.5379698  86.2793005
  49.7080720  10.6102693  85.1366039  48.9553966  21.9586822  85.6531913
  49.2476941  22.5191879  84.9344279  49.4652587  22.2515383  86.4085072
  49.5565574   3.8278563  86.5424532  49.8624451   2.9675927  86.2550447
  50.2818179   4.4196184  86.3423525  35.8489930  14.2309250  84.9306129
  35.6514330  13.6378611  84.2057196  35.2936594  13.9261460  85.6482068
  43.8286654  14.1232356  87.0500723  43.8835264  13.1706193  86.9743199
  43.0177856  14.2791796  87.5342021  44.9777847  18.0512480  78.2879006
  44.5397277  17.3348338  77.8284643  45.7188288  18.2788594  77.7264097
  41.7679014  12.7409416  84.8091101  40.9546879  13.0403587  85.2156294
  42.2638008  12.3465105  85.5265584  43.9187592  22.7367173  86.7425366
  43.8763770  22.9628019  85.8133898  44.8350290  22.5030548  86.8911167
  47.3653225  13.2051241  93.6405995  47.7202613  13.4322714  94.5000461
  48.0125357  13.5369617  93.0183251  53.0950962  16.3269677  84.3455324
  52.9568861  16.5171273  83.4176514  52.7387181  17.0889059  84.8023376
  41.2593088  10.3127772  90.4252336  41.8992468  10.1716531  89.7275300
  40.4270619  10.0262285  90.0490938  53.1220342  18.3946204  89.3566596
  53.5556849  18.3021493  90.2049650  53.8351923  18.3703704  88.7186612
  42.0353392  19.6130202  86.5387329  42.8293991  19.1180522  86.3369904
  41.3245085  19.0848065  86.1755034  46.8548237  21.9948298  90.8899697
  46.9085259  22.5639234  91.6577412  45.9863018  22.1650183  90.5253734
  38.3436156  13.7573284  82.6147082  37.4133744  13.6957739  82.8317044
  38.4393628  13.2349237  81.8183723  38.2621705  10.2828097  85.2025323
  38.5228522  11.1973430  85.0934484  39.0838877   9.8152539  85.3521936
  39.7346630  11.6965854  92.3724148  40.4069684  11.4883216  91.7236797
  38.9076417  11.4987940  91.9329380  53.9835891  18.4369904  91.8899481
  54.1771782  19.3415715  92.1358756  53.8836510  17.9777323  92.7238066
  45.6372202   8.3227795  94.3889809  44.9900117   9.0217744  94.2954285
  46.4073218   8.7563939  94.7566057  49.0451000  18.5876647  97.4640362
  48.8936507  18.3587199  96.5470446  49.0355680  19.5447248  97.4771707
  45.8136337  16.1608560  92.4486628  46.7428397  16.3119719  92.2755596
  45.3927367  16.2492580  91.5935275  44.6124668  20.1859224  90.2185166
  44.4735754  19.8178009  91.0911104  43.8239265  20.7006864  90.0469124
  45.2072820  25.2868321  81.5610703  45.3824576  24.8156364  82.3756325
  44.5205608  25.9134087  81.7891963  46.1629883  19.5640827  87.6074004
  45.8279716  19.5241597  88.5031654  45.6633829  18.8985543  87.1344414
  40.1374127  14.9708457  93.1326585  39.9993925  14.2388696  93.7338124
  41.0479051  14.8817357  92.8510773  49.0989075  16.9096861  77.8811063
  48.4818246  16.1843689  77.7844116  48.6305564  17.6706221  77.5378138
  42.7656428  14.6828416  92.6210265  43.4756047  14.0421608  92.5796883
  42.7225736  14.9341311  93.5436445  50.7543207  21.6195770  95.5416844
  50.6955753  20.9354990  94.8747427  51.1562725  22.3614760  95.0897470
  41.4785362  11.6693634  94.4405904  40.9422719  11.2184373  95.0927500
  40.8902071  11.8039543  93.6976368  39.7733906  28.4357683  88.3350563
  40.0130504  29.0676208  89.0129581  38.9303102  28.0845723  88.6215922
  40.8887621  11.1282285  77.0032368  40.0117087  11.0071086  76.6394614
  41.3645374  10.3368364  76.7511256  50.7560614  19.5835353  93.7730823
  49.8687393  19.2461275  93.8957222  51.3259165  18.8518385  94.0099589
  32.4089761  15.9159445  87.0973875  33.0960801  15.6021175  86.5094890
  32.2537890  16.8200810  86.8241126  37.2124483  10.8049642  91.5258899
  37.1282672  10.1975311  90.7909308  36.3907190  11.2958660  91.5268395
  44.2861767  24.2436806  90.7392067  44.2131939  25.0491777  91.2511371
  43.8439161  24.4428772  89.9140088  44.0751547  23.4808576  84.2494888
  43.2919069  24.0230256  84.3433113  44.7744292  23.9982555  84.6489129
  47.3848197   9.2903205  86.8929094  47.8816897   8.5373168  86.5730164
  46.6135179   9.3267522  86.3272303  55.2377955  14.9943571  88.5347385
  55.2267831  15.8768286  88.1641318  54.3695334  14.6415122  88.3401922
  46.7460451  24.1423640  92.8950225  47.4588423  24.7771105  92.8226127
  46.2550480  24.2387506  92.0790227  48.4677978  18.0474893  84.4667517
  47.5334257  18.1676355  84.2972221  48.6454646  17.1447359  84.2027527
  43.9683166  11.4320588  86.6200778  43.5980953  10.8791629  87.3081684
  44.4642258  10.8278722  86.0675778  51.8550529  13.8892212  85.0017551
  52.3210981  14.7220203  84.9277854  52.3058030  13.4237193  85.7062810
  41.7972364  21.8918083  93.7155796  42.4981824  22.5254566  93.8685190
  41.3267479  22.2332815  92.9551435  49.9226760  20.2336033  82.0003703
  50.1986604  20.1192628  82.9097577  49.0531259  19.8353518  81.9615876
  49.8267192   6.2572799  89.0408452  48.9130272   6.4877026  89.2090659
  50.2560293   6.3411243  89.8922485  49.5973650  14.4462691  91.5408347
  48.9445101  14.6938598  90.8860799  49.9754030  13.6326829  91.2070824
  46.5580824  24.4822384  85.6436517  46.7403219  23.6644040  86.1064269
  47.3813810  24.6990076  85.2061407  46.8922990  23.4090569  82.9051565
  47.4210756  22.8983024  82.2921727  47.1551209  23.0933099  83.7697098
  45.6461223  15.1882502  98.0274384  44.9701860  15.0876631  98.6976759
  46.4688857  15.0321716  98.4910381  37.3940083  21.4254438  90.6486899
  37.9793519  20.6798126  90.7814803  37.1964921  21.7358395  91.5323563
  40.2478738  24.4605686  85.6649341  39.5789113  24.9451813  85.1813381
  40.1091607  24.7074906  86.5792720  31.9857737  13.9960039  89.3691342
  32.0241837  13.4623629  90.1628460  31.4798030  13.4695244  88.7502319
  44.3884006  26.4949429  92.2632000  44.9402314  26.6581051  93.0281085
  44.7290200  27.0853867  91.5912024  39.3648500   8.8424579  92.8653884
  39.4289826   9.7039410  92.4531282  39.3015620   8.2298581  92.1326243
  38.8400772  10.9147712  96.5126919  39.4672811  10.5324789  97.1264443
  37.9828691  10.6961914  96.8782611  49.2394881  21.3210687  98.1180654
  49.7834785  21.9340645  97.6235609  48.6581726  21.8790265  98.6347667
  35.6166315  12.7224141  82.4445273  35.9119756  11.8134819  82.3912327
  34.7154351  12.7011880  82.1226276  47.5252394  24.4431405  89.2495682
  47.4003533  23.6421145  88.7406627  48.1831485  24.9377598  88.7609652
  39.1460562  10.7980137  88.4272822  38.4247148  11.4116105  88.2880295
  39.9353818  11.3337902  88.3489468  49.5887302  22.2440425  90.8775232
  48.6417638  22.1245776  90.8053559  49.9370075  21.3562923  90.9601493
  41.9486875   8.1334564  94.7013474  42.4721277   8.3796860  95.4639783
  41.7299209   8.9654599  94.2816611  37.3454156  10.4038238  82.5684599
  37.0166863   9.5235617  82.3859704  37.6993527  10.3485907  83.4560988
  46.5933735  22.0393141  87.0779584  46.4458698  21.1109848  87.2587154
  47.4187229  22.0613232  86.5936659  40.4595980  10.6911208  82.9360076
  40.7992052  11.2197129  82.2138685  40.9068100  11.0291614  83.7118643
  50.1967857  22.8621700  88.1644457  51.1214405  22.6564561  88.0268908
  50.0283161  22.6138101  89.0733798  43.1539420   9.0748259  92.3863144
  42.8136241   8.2756072  92.7883824  42.4478427   9.3749970  91.8139977
  43.8055892   6.1597571  90.8390467  44.6281962   5.6858050  90.7169358
  44.0493956   6.9388055  91.3389154  42.4464127   9.1885830  81.1353369
  43.1672489   9.5667083  80.6317086  41.8229431   9.9074707  81.2388347
  46.5895250   9.8930979  82.0711701  46.8058864  10.7755617  81.7700529
  46.1089317   9.5017192  81.3417343  41.3294471  12.8516692  88.6482446
  41.1839052  13.1656995  89.5406727  40.8519675  13.4701592  88.0953345
  43.1890854   9.8419240  88.6963335  43.1752423   8.9460333  88.3595633
  43.9063282   9.8489904  89.3301621  45.0416985  10.2756580  90.7416463
  44.7834762  11.1973651  90.7400793  44.5102025   9.8787015  91.4316927
  49.9863173  23.3807367  83.5206548  50.1600051  22.8153790  82.7680401
  50.4792065  24.1808262  83.3386038  35.8040133  15.3922036  91.5870107
  35.2593601  16.1681844  91.7190381  36.6819483  15.7392841  91.4289229
  42.5927750   8.7233620  83.9650906  42.7143661   7.7950266  84.1641793
  42.3029792   8.7372306  83.0529221  45.4618940   6.4088531  87.1017625
  45.4840637   6.4727864  86.1469605  45.8786999   5.5693039  87.2958132
  55.8402565  16.1443790  85.1396848  56.2833711  15.3951115  84.7415971
  54.9629075  16.1353927  84.7570580  50.9738346  22.6974132  80.6203447
  51.6689250  23.3180824  80.8390761  51.3161496  21.8469483  80.8955824
  36.5906155  14.5191933  94.4800264  35.8487891  14.6674568  95.0664894
  36.2698899  14.7800198  93.6167013  52.8729769  20.1473837  82.1490777
  53.3981093  20.4861110  81.4240097  52.7852122  19.2120853  81.9653912
  44.5349818  24.0607911  94.2780654  44.8436944  23.8157058  95.1503354
  45.3325300  24.2654549  93.7899524  44.5570430  26.2145820  86.5086030
  44.1175420  25.7222199  87.2018887  45.3078547  25.6718788  86.2678106
  37.0362769  22.4057361  86.5110659  37.8620789  22.1061133  86.1309302
  36.6856821  21.6364984  86.9600447  42.0044302  21.7583830  88.5808332
  41.3824311  21.0954535  88.2810560  42.6749169  21.7844961  87.8981980
  35.2371374  20.3243688  87.4699592  34.4003282  19.8965862  87.2883593
  35.2095019  20.5176131  88.4070383  42.0768829  10.2365618  98.1740838
  42.1256985  11.1127740  97.7918608  42.6191344   9.6943011  97.6012481
  52.5623675  20.7806741  97.4541975  51.7719219  20.7630880  96.9146475
  52.3257030  21.3195035  98.2091012  52.6821550  17.6299207  94.7674704
  52.7319555  17.4649215  95.7090227  52.5735473  16.7626466  94.3772585
  41.5657809  20.3087753  82.0566793  41.7145929  20.9923217  81.4033465
  42.3724252  20.2892843  82.5716248  49.9725312  13.6130135  96.0834011
  50.8735175  13.4736600  95.7918008  50.0473287  13.7784590  97.0232188
  44.3068118  10.9896990  94.9287197  43.4371427  11.2830556  94.6569785
  44.5427598  11.5737435  95.6494460  54.1839747  20.0496149  95.0116725
  53.8924555  20.4126129  95.8480186  53.5711878  19.3363157  94.8330057
  55.3835429  17.6149029  87.5319296  56.2182321  18.0538833  87.6956856
  55.5194558  17.1387682  86.7127541  52.4326935  15.1728763  93.4796783
  52.9081057  15.3656410  92.6715635  51.5092501  15.2287949  93.2340167
  39.3210442  16.3352931  83.0627862  39.0756484  15.4315261  83.2608072
  39.4906356  16.3370081  82.1207340  47.0107152   7.2076607  92.4452617
  47.5289096   7.9437634  92.1199106  46.6562284   7.5140600  93.2799376
  38.5906089  12.0681288  80.5614023  37.8975334  12.1425643  79.9054059
  38.3457841  11.3041632  81.0835540  47.2619746   3.6276889  87.9653514
  47.5421500   2.9600079  88.5913940  48.0470353   3.8205985  87.4528178
  45.0653214  22.8035883  79.5278540  44.4927181  23.4226070  79.0749012
  45.6386008  23.3535245  80.0618462  51.1328604  12.0494523  91.7125089
  52.0846027  12.1492621  91.7337313  50.9632055  11.2572792  92.2223173
  49.1542984   9.1350107  91.8984490  48.5592916   9.4155119  91.2030978
  48.8692680   9.6244008  92.6701231  48.2850474  23.0873033  80.6587122
  49.2181147  23.0218595  80.8619998  48.1973687  23.9229300  80.2001655
  50.9138491  22.4038904  77.6191070  50.8352122  22.0698767  78.5126828
  51.7348158  22.8960672  77.6182542  53.6116682  15.2700643  90.8267389
  53.5793002  14.3316644  91.0127072  54.2217306  15.3484680  90.0933213
  45.4500013  14.1396696  76.8694593  46.3959118  14.0102904  76.9383011
  45.0714258  13.4011358  77.3464021  53.7611170  12.0611687  90.8725672
  53.2450219  11.2770143  90.6855601  54.6451119  11.7330403  91.0372191
  51.4221897   5.8052702  86.8321484  51.2246718   5.4967790  87.7164816
  52.0321603   6.5314341  86.9619414  59.4293232  16.3316650  89.9673425
  60.1596620  16.0701938  90.5281129  58.8200177  15.5945372  90.0075493
  57.5108529  14.4724513  90.5647877  56.7841692  14.3380477  89.9564368
  57.0955816  14.7801341  91.3704595  45.3338705  18.1914442  98.3295250
  46.2541715  18.3693041  98.5235296  45.2988288  17.2470488  98.1774949
  43.6342930  12.0646672  76.8049478  42.7274385  11.7679785  76.8812191
  43.9118911  11.7676491  75.9383764  34.5520870  13.3853036  87.2548524
  34.2323655  12.5318344  86.9622898  34.0054299  13.6001614  88.0106492
  38.3300778  16.1015477  90.9718031  38.5486788  17.0332585  90.9906065
  38.7426552  15.7423451  91.7572835  45.2504996   6.6083562  82.9593719
  44.4405724   6.2630647  83.3348965  45.9389413   6.2991106  83.5481331
  47.1795544   5.6861609  84.5818016  47.7326583   6.1057062  85.2408039
  47.4165630   4.7597357  84.6240972  42.4041715   8.9233608  76.9461457
  43.2660879   9.2488506  77.2057274  42.5892059   8.1365104  76.4334523
  34.4209130  17.0055947  89.2241646  33.7272602  16.5909900  88.7111600
  35.1682121  17.0476484  88.6275065  50.5574351   7.7962134  84.0896680
  49.9773020   8.4546938  83.7074732  50.2910284   6.9739479  83.6784098
  49.0077917   7.1967192  86.2918000  49.5077696   7.3083726  85.4832319
  49.6513525   6.8928245  86.9318809  43.0659913  15.1045821  99.1785841
  42.5826995  15.9046182  99.3849730  43.1520852  15.1153766  98.2253285
  36.3345873  16.9374201  87.1007661  36.3116561  17.0361888  86.1489544
  36.6446509  17.7839352  87.4224827  38.9933251  18.9950356  91.2154275
  39.9476504  18.9634299  91.1484207  38.7945774  18.5340980  92.0304501
  39.5832633  17.5651472  93.7825073  40.4025522  18.0595551  93.8059910
  39.8569441  16.6483440  93.7542640  49.3399229   9.9562225  83.1453028
  48.4525084  10.2411875  82.9273223  49.7553218   9.7955988  82.2980305
  52.6913765   9.9808746  86.8607368  53.4674155  10.4705198  87.1331984
  51.9661899  10.4066800  87.3179237  55.1286324  10.6936365  87.9181308
  55.7230815  10.4532101  87.2074616  55.2012908   9.9743495  88.5454844
  37.3483480  24.5369976  88.2324473  37.2137947  23.7770377  87.6662471
  36.9315542  25.2610876  87.7653262  48.4842443  19.7206899  77.2401048
  49.1878293  19.9256902  77.8558704  47.7605091  20.2883661  77.5050132
  49.3140253  15.4716760  83.3603318  49.2575454  15.9285312  82.5210951
  49.8668595  14.7107445  83.1826161  53.1245059  11.2606492  84.1853438
  52.8681993  10.8603128  85.0161646  52.4997927  11.9750286  84.0603577
  57.4357397  14.0002566  86.6924729  56.8756955  14.0695755  87.4656291
  56.8300900  13.8243550  85.9724226  40.5052605  25.4339293  88.4442916
  40.3884990  26.3784725  88.3421606  39.6845052  25.1312854  88.8328715
  50.3929140  20.1589428  79.2899508  51.2274744  19.7270627  79.1076983
  50.2313483  19.9871442  80.2176403  50.0475032  16.6621542  80.6555848
  49.9923836  16.4965813  79.7144292  49.4221087  17.3697575  80.8118037
  34.8367547  11.8989606  94.4817270  35.4826411  11.3888560  94.9704495
  34.6284698  12.6358288  95.0560695  47.3620939  18.9670454  99.9809410
  48.2312099  19.1411106  99.6196045  46.8827691  19.7864870  99.8585140
  43.3571158   6.1629651  80.2341166  43.3449827   7.1071491  80.3909437
  44.2494579   5.9799796  79.9400627  41.5307120  26.0867555  91.6598844
  42.4334366  26.1191165  91.9765339  41.3044490  25.1568006  91.6745180
  43.2860722  24.8398541  88.3208923  42.3356353  24.8400403  88.2073295
  43.5893208  24.0931276  87.8044957  47.1723277   2.7572427  84.4887103
  46.4055673   2.2030914  84.6343785  47.5833982   2.8294296  85.3501254
  59.0213415  30.6759080  89.3854685  59.6591825  30.5565827  88.6818025
  58.9034258  31.6239923  89.4442637  55.8303121  30.6286508  89.3216210
  55.4921633  30.5127572  88.4336745  56.6992890  30.2277673  89.3017216
  51.6889937  32.4821984  85.3113101  51.1254802  32.3911921  84.5429389
  51.5742332  31.6621889  85.7915593  56.3122904  31.7821359  95.2802415
  56.3011545  31.3874158  94.4082919  56.4743544  31.0487432  95.8736187
  49.2354369  33.9773176  88.1497321  50.0275661  33.6364000  87.7343621
  49.4751019  34.0868151  89.0699475  57.2689496  36.1492952  80.6227566
  56.6177475  36.7347032  80.2361579  58.0633859  36.6799147  80.6822603
  51.1945123  33.2382089  81.0214700  51.9675999  32.6911076  80.8827576
  51.5470522  34.1026338  81.2329161  53.0330165  34.5658471  94.2281599
  52.7420031  35.4704102  94.1128266  53.6687150  34.6074999  94.9425669
  53.9586372  31.9435320  90.8182959  54.5549945  31.7191342  90.1039922
  54.0161344  31.2020065  91.4208407  53.5311401  29.3974755  78.6533150
  53.7836921  28.8756276  77.8916613  52.5935960  29.2340900  78.7559834
  58.5754684  28.4010533  86.4607893  59.3617773  27.9829957  86.1098310
  58.8393388  29.3056626  86.6289542  58.7464761  33.8383384  81.1596550
  58.1110594  33.9118010  81.8717455  58.4162167  34.4276983  80.4815629
  63.9763111  28.3385767  87.3640872  64.7088283  27.7684983  87.5978701
  63.2202466  27.9507367  87.8047377  53.2507689  31.3002861  80.8557525
  53.1343948  30.6247764  81.5238609  53.3609949  30.8135235  80.0389678
  55.5939230  30.7613008  84.5604214  55.2297438  30.2343629  85.2717136
  56.4506346  30.3711477  84.3870700  61.4988531  22.0507341  91.8235480
  61.1671856  22.9202752  91.5996695  60.9034144  21.7343625  92.5029511
  55.2344717  25.7902908  79.5565563  55.4019120  26.6583144  79.9236034
  55.0441886  25.9530189  78.6326852  57.9920051  34.2519887  91.2231393
  57.6920774  35.1544925  91.1147200  57.6471110  33.9852070  92.0752546
  51.4432532  30.7033684  87.2568097  50.5183028  30.5709898  87.4645789
  51.6916945  31.4827903  87.7538040  61.3917194  26.7702427  88.9028830
  60.4834072  26.7017835  88.6087591  61.3404790  27.2474372  89.7310656
  55.2133938  28.2460565  80.5412229  55.0933563  28.6917616  81.3797710
  54.5186527  28.5945883  79.9825768  48.8041343  30.3466957  88.0911886
  48.9333724  30.6001436  89.0051298  48.1238794  30.9394665  87.7716542
  52.9740830  41.0164207  84.1902361  52.8964860  41.9672032  84.2690841
  52.3702474  40.6710080  84.8477287  55.4658060  28.1892072  96.8463728
  54.6891394  28.7485993  96.8366592  56.1048623  28.6748855  97.3678598
  63.2578841  24.9718865  90.6806704  62.6153221  25.2651398  90.0346499
  62.7533769  24.8571786  91.4859901  60.9119004  28.7182038  81.3692564
  61.8236861  28.9509425  81.1940261  60.4028651  29.3019083  80.8067642
  53.7204432  30.9977526  96.4081695  54.4619117  31.5362570  96.1316518
  53.0141418  31.6243815  96.5653246  59.1959772  33.1406666  95.0053856
  59.6043128  32.6989077  94.2608488  58.4737034  32.5659294  95.2588049
  55.5490842  28.0779273  92.3787413  56.3952037  28.5018687  92.5222062
  55.4889480  27.4212897  93.0725976  59.5188587  33.7007857  88.7606145
  58.8897449  33.8653571  88.0582213  59.1314249  34.1149466  89.5317109
  63.3977819  34.6362295  86.1150509  62.7128857  35.0161196  85.5647542
  63.4821668  35.2457621  86.8482456  58.6990287  25.7383641  94.0368587
  58.4551219  26.4925702  93.5002862  58.9750218  26.1168989  94.8715834
  60.6528750  32.2822254  92.7145852  60.8645645  32.9254014  92.0380233
  60.6058498  31.4484570  92.2467782  58.2554979  24.8940074  89.6182424
  57.3939458  25.1921328  89.9099162  58.2817414  25.1110473  88.6863457
  55.0716549  33.4382265  86.0256230  55.5354894  33.7169968  85.2360853
  54.8073347  32.5365710  85.8429321  51.9640630  32.9853747  88.9635993
  52.5341987  33.4141015  88.3253478  52.5548741  32.7036331  89.6620179
  54.0085435  29.5605417  82.8345795  54.7109478  30.0126461  83.3019722
  53.6766063  28.9189236  83.4625688  52.4565796  28.1517174  97.2097005
  51.8264457  28.8333455  97.4432401  52.3501884  28.0400256  96.2650143
  47.7510769  27.8188970  88.1362929  46.9609823  28.0746499  87.6603039
  48.2422016  28.6337308  88.2414969  61.7674578  35.1594209  90.8868210
  62.5892022  34.7574396  90.6050891  61.7636981  35.0562443  91.8384325
  49.7025514  28.1833549  85.0946405  48.9056677  28.2952244  85.6129901
  49.4751106  28.5220201  84.2287296  55.5331182  34.7078252  93.0428920
  55.5975614  35.1698660  93.8787092  54.8242105  34.0775617  93.1711230
  46.0348472  28.0719460  90.5677920  46.2856510  28.9566470  90.8335496
  46.5708020  27.8924062  89.7953011  69.8580571  31.5032958  87.2353181
  69.1044280  30.9340356  87.0797185  69.9928112  31.4695622  88.1823816
  55.2479199  36.3746360  82.9107900  55.1124874  37.2197896  83.3392748
  55.7889012  36.5765638  82.1473834  51.7346539  22.4537940  99.5722256
  51.3413484  21.9004138 100.2469900  52.5512679  22.7648518  99.9628773
  48.7008597  33.8921798  83.4835826  49.2133117  34.6865048  83.6341390
  49.3531309  33.1948088  83.4169427  50.5103481  37.0087554  85.5658579
  50.6870110  37.9305519  85.3779563  51.3060315  36.6945974  85.9952958
  54.6514500  23.8695819  97.1642512  55.3924213  24.4702972  97.0846975
  54.8832423  23.1273457  96.6060555  49.7955838  29.0552186  95.4420742
  49.6809353  28.1537443  95.7427841  48.9400356  29.3015883  95.0905558
  56.8747676  36.9969926  97.0408242  56.4311530  36.2106305  96.7229147
  57.5364889  37.1849077  96.3752133  51.6334797  38.5265728  91.5668921
  52.1842222  38.3982791  90.7945915  50.7946273  38.8260617  91.2163814
  58.9728914  37.2772726  95.0689644  58.9547389  38.0981607  94.5769913
  59.8948834  37.1526802  95.2939785  55.4301968  34.7916856  95.9113152
  55.9630305  34.0305144  95.6812460  54.9016049  34.4990508  96.6537307
  58.5971663  19.8976922  91.4406794  58.2535932  20.7878564  91.3645904
  58.9650625  19.7078580  90.5776379  46.6657513  32.2210452  84.2595396
  47.5032735  32.6307461  84.0429104  46.8435781  31.2809894  84.2295590
  58.5621946  29.8885533  79.9479229  58.0468569  30.6590138  80.1867616
  58.2899254  29.2150669  80.5712290  56.1469057  24.7335234  85.0064467
  55.2910653  24.3442084  84.8270106  56.5596008  24.8127195  84.1464253
  57.6768203  22.2681577  89.4056027  57.1732999  22.2311712  88.5923832
  57.9698810  23.1774320  89.4652684  53.9211089  22.3520307  88.4122209
  54.7864086  22.1563115  88.0528098  53.9888598  22.1230659  89.3391566
  63.5356220  32.6417888  81.8832402  62.7585662  32.3029047  81.4387565
  64.2147701  32.6470511  81.2087368  58.3508249  27.7612625  81.7739010
  58.0458384  28.0758774  82.6249153  59.3038691  27.8394045  81.8166343
  56.7954681  33.9202848  83.4231964  56.2676042  33.1855608  83.1105202
  56.2942183  34.6977525  83.1771932  61.7747527  32.1151869  88.5399010
  61.1171201  32.8051130  88.6279139  62.5787926  32.5048301  88.8832997
  51.5273408  24.5822515  85.7838576  52.1017160  24.3597696  85.0511769
  52.1144391  24.6511209  86.5367177  60.5852985  30.4696242  86.5902952
  61.0984867  31.1026233  87.0924662  61.2354209  29.8697437  86.2246312
  51.8542995  26.6126976  79.8034461  51.0180308  26.9501662  80.1243736
  51.7147765  26.4775955  78.8661598  53.8296076  21.4563764  84.5113645
  53.1760488  21.1412781  83.8870260  53.7876550  20.8339504  85.2373468
  54.9407281  31.7383059  76.4266937  54.0334342  31.5072312  76.6258086
  55.4378313  30.9420678  76.6140919  57.8475360  40.4480566  79.3463623
  57.1737058  40.7512263  79.9548581  58.2341182  41.2509646  78.9969080
  57.0633816  27.9445697  88.8361293  56.1456378  28.1660644  88.6782981
  57.4793960  28.0192008  87.9773000  57.8468864  29.3437113  83.9663973
  58.5940683  29.8558510  83.6571095  58.1160454  29.0221166  84.8268367
  56.1195514  31.8395654  80.9490927  55.2106733  31.5554686  81.0463397
  56.1490598  32.2594732  80.0894234  61.3514782  35.4502243  84.7182095
  60.8977109  34.6093153  84.7747285  60.7208748  36.0863641  85.0556875
  60.2947701  26.3794229  85.9482762  59.5570458  25.8671615  86.2793005
  60.5474475  25.9394611  85.1366039  59.7947721  37.2878740  85.6531913
  60.0870695  37.8483797  84.9344279  60.3046341  37.5807301  86.4085072
  60.3959328  19.1570481  86.5424532  60.7018205  18.2967844  86.2550447
  61.1211933  19.7488101  86.3423525  46.6883685  29.5601168  84.9306129
  46.4908084  28.9670528  84.2057196  46.1330349  29.2553378  85.6482068
  54.6680408  29.4524274  87.0500723  54.7229018  28.4998111  86.9743199
  53.8571610  29.6083713  87.5342021  55.8171602  33.3804397  78.2879006
  55.3791032  32.6640256  77.8284643  56.5582043  33.6080512  77.7264097
  52.6072768  28.0701334  84.8091101  51.7940634  28.3695504  85.2156294
  53.1031762  27.6757023  85.5265584  54.7581346  38.0659091  86.7425366
  54.7157525  38.2919937  85.8133898  55.6744045  37.8322465  86.8911167
  58.2046980  28.5343158  93.6405995  58.5596368  28.7614631  94.5000461
  58.8519111  28.8661535  93.0183251  63.9344717  31.6561594  84.3455324
  63.7962615  31.8463190  83.4176514  63.5780936  32.4180977  84.8023376
  52.0986843  25.6419689  90.4252336  52.7386222  25.5008448  89.7275300
  51.2664373  25.3554203  90.0490938  63.9614096  33.7238121  89.3566596
  64.3950603  33.6313410  90.2049650  64.6745677  33.6995622  88.7186612
  52.8747147  34.9422120  86.5387329  53.6687745  34.4472440  86.3369904
  52.1638839  34.4139983  86.1755034  57.6941991  37.3240215  90.8899697
  57.7479014  37.8931152  91.6577412  56.8256773  37.4942100  90.5253734
  49.1829910  29.0865202  82.6147082  48.2527498  29.0249657  82.8317044
  49.2787382  28.5641154  81.8183723  49.1015459  25.6120014  85.2025323
  49.3622277  26.5265348  85.0934484  49.9232632  25.1444457  85.3521936
  50.5740385  27.0257772  92.3724148  51.2463438  26.8175134  91.7236797
  49.7470171  26.8279858  91.9329380  64.8229646  33.7661822  91.8899481
  65.0165536  34.6707632  92.1358756  64.7230264  33.3069241  92.7238066
  56.4765957  23.6519712  94.3889809  55.8293872  24.3509662  94.2954285
  57.2466972  24.0855856  94.7566057  59.8844755  33.9168565  97.4640362
  59.7330261  33.6879116  96.5470446  59.8749434  34.8739166  97.4771707
  56.6530091  31.4900477  92.4486628  57.5822151  31.6411637  92.2755596
  56.2321121  31.5784498  91.5935275  55.4518423  35.5151142  90.2185166
  55.3129508  35.1469926  91.0911104  54.6633019  36.0298781  90.0469124
  56.0466575  40.6160238  81.5610703  56.2218330  40.1448281  82.3756325
  55.3599363  41.2426004  81.7891963  57.0023638  34.8932744  87.6074004
  56.6673471  34.8533514  88.5031654  56.5027584  34.2277460  87.1344414
  50.9767882  30.3000375  93.1326585  50.8387680  29.5680613  93.7338124
  51.8872805  30.2109275  92.8510773  59.9382830  32.2388779  77.8811063
  59.3212000  31.5135607  77.7844116  59.4699318  32.9998139  77.5378138
  53.6050183  30.0120334  92.6210265  54.3149801  29.3713526  92.5796883
  53.5619491  30.2633229  93.5436445  61.5936961  36.9487687  95.5416844
  61.5349507  36.2646907  94.8747427  61.9956480  37.6906677  95.0897470
  52.3179117  26.9985552  94.4405904  51.7816474  26.5476290  95.0927500
  51.7295825  27.1331461  93.6976368  50.6127660  43.7649601  88.3350563
  50.8524258  44.3968125  89.0129581  49.7696857  43.4137641  88.6215922
  51.7281376  26.4574203  77.0032368  50.8510842  26.3363004  76.6394614
  52.2039129  25.6660281  76.7511256  61.5954369  34.9127271  93.7730823
  60.7081147  34.5753193  93.8957222  62.1652920  34.1810302  94.0099589
  43.2483516  31.2451363  87.0973875  43.9354555  30.9313093  86.5094890
  43.0931644  32.1492728  86.8241126  48.0518238  26.1341559  91.5258899
  47.9676427  25.5267229  90.7909308  47.2300944  26.6250578  91.5268395
  55.1255522  39.5728723  90.7392067  55.0525693  40.3783695  91.2511371
  54.6832915  39.7720689  89.9140088  54.9145302  38.8100493  84.2494888
  54.1312823  39.3522174  84.3433113  55.6138047  39.3274473  84.6489129
  58.2241952  24.6195123  86.8929094  58.7210651  23.8665085  86.5730164
  57.4528933  24.6559440  86.3272303  66.0771709  30.3235488  88.5347385
  66.0661585  31.2060204  88.1641318  65.2089088  29.9707039  88.3401922
  57.5854205  39.4715557  92.8950225  58.2982178  40.1063022  92.8226127
  57.0944234  39.5679423  92.0790227  59.3071732  33.3766810  84.4667517
  58.3728011  33.4968273  84.2972221  59.4848401  32.4739277  84.2027527
  54.8076920  26.7612506  86.6200778  54.4374708  26.2083546  87.3081684
  55.3036013  26.1570639  86.0675778  62.6944284  29.2184129  85.0017551
  63.1604736  30.0512121  84.9277854  63.1451784  28.7529111  85.7062810
  52.6366119  37.2210001  93.7155796  53.3375578  37.8546484  93.8685190
  52.1661234  37.5624733  92.9551435  60.7620515  35.5627951  82.0003703
  61.0380359  35.4484545  82.9097577  59.8925014  35.1645436  81.9615876
  60.6660946  21.5864716  89.0408452  59.7524026  21.8168943  89.2090659
  61.0954048  21.6703161  89.8922485  60.4367405  29.7754608  91.5408347
  59.7838855  30.0230516  90.8860799  60.8147785  28.9618747  91.2070824
  57.3974579  39.8114302  85.6436517  57.5796973  38.9935958  86.1064269
  58.2207565  40.0281994  85.2061407  57.7316744  38.7382487  82.9051565
  58.2604511  38.2274941  82.2921727  57.9944964  38.4225017  83.7697098
  56.4854978  30.5174419  98.0274384  55.8095615  30.4168549  98.6976759
  57.3082612  30.3613633  98.4910381  48.2333837  36.7546356  90.6486899
  48.8187274  36.0090044  90.7814803  48.0358675  37.0650313  91.5323563
  51.0872492  39.7897603  85.6649341  50.4182868  40.2743731  85.1813381
  50.9485362  40.0366824  86.5792720  42.8251492  29.3251956  89.3691342
  42.8635591  28.7915547  90.1628460  42.3191785  28.7987162  88.7502319
  55.2277761  41.8241347  92.2632000  55.7796069  41.9872968  93.0281085
  55.5683954  42.4145785  91.5912024  50.2042254  24.1716497  92.8653884
  50.2683581  25.0331328  92.4531282  50.1409374  23.5590498  92.1326243
  49.6794527  26.2439629  96.5126919  50.3066565  25.8616707  97.1264443
  48.8222445  26.0253831  96.8782611  60.0788635  36.6502604  98.1180654
  60.6228539  37.2632563  97.6235609  59.4975480  37.2082183  98.6347667
  46.4560069  28.0516058  82.4445273  46.7513510  27.1426737  82.3912327
  45.5548105  28.0303798  82.1226276  58.3646148  39.7723322  89.2495682
  58.2397288  38.9713062  88.7406627  59.0225239  40.2669516  88.7609652
  49.9854316  26.1272055  88.4272822  49.2640902  26.7408023  88.2880295
  50.7747572  26.6629820  88.3489468  60.4281057  37.5732343  90.8775232
  59.4811392  37.4537694  90.8053559  60.7763830  36.6854841  90.9601493
  52.7880630  23.4626481  94.7013474  53.3115032  23.7088778  95.4639783
  52.5692963  24.2946516  94.2816611  48.1847911  25.7330156  82.5684599
  47.8560617  24.8527535  82.3859704  48.5387282  25.6777825  83.4560988
  57.4327490  37.3685059  87.0779584  57.2852452  36.4401766  87.2587154
  58.2580983  37.3905149  86.5936659  51.2989734  26.0203126  82.9360076
  51.6385807  26.5489047  82.2138685  51.7461855  26.3583532  83.7118643
  61.0361612  38.1913617  88.1644457  61.9608159  37.9856479  88.0268908
  60.8676915  37.9430019  89.0733798  53.9933175  24.4040177  92.3863144
  53.6529995  23.6047990  92.7883824  53.2872181  24.7041887  91.8139977
  54.6449647  21.4889489  90.8390467  55.4675716  21.0149967  90.7169358
  54.8887710  22.2679973  91.3389154  53.2857881  24.5177747  81.1353369
  54.0066244  24.8959000  80.6317086  52.6623185  25.2366624  81.2388347
  57.4289004  25.2222896  82.0711701  57.6452619  26.1047534  81.7700529
  56.9483071  24.8309110  81.3417343  52.1688225  28.1808610  88.6482446
  52.0232806  28.4948913  89.5406727  51.6913429  28.7993510  88.0953345
  54.0284608  25.1711158  88.6963335  54.0146177  24.2752251  88.3595633
  54.7457036  25.1781821  89.3301621  55.8810739  25.6048498  90.7416463
  55.6228517  26.5265568  90.7400793  55.3495779  25.2078932  91.4316927
  60.8256928  38.7099285  83.5206548  60.9993805  38.1445707  82.7680401
  61.3185819  39.5100180  83.3386038  46.6433888  30.7213954  91.5870107
  46.0987356  31.4973762  91.7190381  47.5213238  31.0684758  91.4289229
  53.4321504  24.0525538  83.9650906  53.5537416  23.1242184  84.1641793
  53.1423547  24.0664224  83.0529221  56.3012695  21.7380448  87.1017625
  56.3234392  21.8019781  86.1469605  56.7180754  20.8984957  87.2958132
  66.6796319  31.4735708  85.1396848  67.1227465  30.7243033  84.7415971
  65.8022829  31.4645844  84.7570580  61.8132100  38.0266049  80.6203447
  62.5083005  38.6472742  80.8390761  62.1555250  37.1761401  80.8955824
  47.4299910  29.8483850  94.4800264  46.6881646  29.9966486  95.0664894
  47.1092654  30.1092116  93.6167013  63.7123523  35.4765755  82.1490777
  64.2374848  35.8153028  81.4240097  63.6245876  34.5412770  81.9653912
  55.3743572  39.3899829  94.2780654  55.6830699  39.1448975  95.1503354
  56.1719054  39.5946467  93.7899524  55.3964184  41.5437738  86.5086030
  54.9569175  41.0514117  87.2018887  56.1472301  41.0010706  86.2678106
  47.8756523  37.7349279  86.5110659  48.7014543  37.4353051  86.1309302
  47.5250575  36.9656901  86.9600447  52.8438056  37.0875747  88.5808332
  52.2218066  36.4246452  88.2810560  53.5142923  37.1136879  87.8981980
  46.0765128  35.6535605  87.4699592  45.2397037  35.2257780  87.2883593
  46.0488774  35.8468049  88.4070383  52.9162584  25.5657535  98.1740838
  52.9650739  26.4419658  97.7918608  53.4585098  25.0234928  97.6012481
  63.4017430  36.1098659  97.4541975  62.6112973  36.0922797  96.9146475
  63.1650784  36.6486952  98.2091012  63.5215305  32.9591125  94.7674704
  63.5713310  32.7941132  95.7090227  63.4129228  32.0918384  94.3772585
  52.4051563  35.6379671  82.0566793  52.5539684  36.3215135  81.4033465
  53.2118007  35.6184761  82.5716248  60.8119067  28.9422053  96.0834011
  61.7128930  28.8028518  95.7918008  60.8867041  29.1076508  97.0232188
  55.1461872  26.3188908  94.9287197  54.2765182  26.6122474  94.6569785
  55.3821353  26.9029353  95.6494460  65.0233501  35.3788066  95.0116725
  64.7318310  35.7418047  95.8480186  64.4105633  34.6655075  94.8330057
  66.2229184  32.9440946  87.5319296  67.0576075  33.3830750  87.6956856
  66.3588313  32.4679599  86.7127541  63.2720690  30.5020681  93.4796783
  63.7474811  30.6948327  92.6715635  62.3486255  30.5579867  93.2340167
  50.1604196  31.6644848  83.0627862  49.9150238  30.7607178  83.2608072
  50.3300111  31.6661999  82.1207340  57.8500906  22.5368525  92.4452617
  58.3682850  23.2729552  92.1199106  57.4956039  22.8432518  93.2799376
  49.4299844  27.3973206  80.5614023  48.7369089  27.4717561  79.9054059
  49.1851596  26.6333549  81.0835540  58.1013500  18.9568807  87.9653514
  58.3815254  18.2891996  88.5913940  58.8864107  19.1497903  87.4528178
  55.9046969  38.1327801  79.5278540  55.3320936  38.7517988  79.0749012
  56.4779762  38.6827163  80.0618462  61.9722359  27.3786441  91.7125089
  62.9239782  27.4784539  91.7337313  61.8025809  26.5864710  92.2223173
  59.9936738  24.4642024  91.8984490  59.3986670  24.7447037  91.2030978
  59.7086435  24.9535925  92.6701231  59.1244229  38.4164951  80.6587122
  60.0574902  38.3510513  80.8619998  59.0367441  39.2521218  80.2001655
  61.7532245  37.7330821  77.6191070  61.6745877  37.3990685  78.5126828
  62.5741912  38.2252589  77.6182542  64.4510436  30.5992561  90.8267389
  64.4186757  29.6608562  91.0127072  65.0611060  30.6776598  90.0933213
  56.2893767  29.4688614  76.8694593  57.2352872  29.3394822  76.9383011
  55.9108012  28.7303276  77.3464021  64.6004925  27.3903604  90.8725672
  64.0843974  26.6062061  90.6855601  65.4844873  27.0622321  91.0372191
  62.2615652  21.1344620  86.8321484  62.0640473  20.8259708  87.7164816
  62.8715357  21.8606259  86.9619414  70.2686986  31.6608568  89.9673425
  70.9990375  31.3993856  90.5281129  69.6593932  30.9237290  90.0075493
  68.3502283  29.8016430  90.5647877  67.6235447  29.6672395  89.9564368
  67.9349570  30.1093259  91.3704595  56.1732460  33.5206360  98.3295250
  57.0935469  33.6984959  98.5235296  56.1382043  32.5762405  98.1774949
  54.4736684  27.3938590  76.8049478  53.5668140  27.0971703  76.8812191
  54.7512665  27.0968408  75.9383764  45.3914625  28.7144954  87.2548524
  45.0717409  27.8610262  86.9622898  44.8448053  28.9293532  88.0106492
  49.1694532  31.4307395  90.9718031  49.3880542  32.3624502  90.9906065
  49.5820306  31.0715369  91.7572835  56.0898750  21.9375480  82.9593719
  55.2799478  21.5922565  83.3348965  56.7783167  21.6283024  83.5481331
  58.0189298  21.0153527  84.5818016  58.5720337  21.4348980  85.2408039
  58.2559385  20.0889275  84.6240972  54.0422398  27.0040600 100.3620780
  53.9419125  27.9534957 100.2932871  53.8243940  26.6758839  99.4896850
  53.2435469  24.2525525  76.9461457  54.1054633  24.5780424  77.2057274
  53.4285813  23.4657021  76.4334523  45.2602885  32.3347865  89.2241646
  44.5666356  31.9201818  88.7111600  46.0075876  32.3768402  88.6275065
  61.3968106  23.1254052  84.0896680  60.8166775  23.7838856  83.7074732
  61.1304038  22.3031396  83.6784098  59.8471672  22.5259110  86.2918000
  60.3471450  22.6375644  85.4832319  60.4907280  22.2220162  86.9318809
  53.9053668  30.4337739  99.1785841  53.4220749  31.2338099  99.3849730
  53.9914607  30.4445684  98.2253285  47.1739627  32.2666119  87.1007661
  47.1510315  32.3653806  86.1489544  47.4840264  33.1131270  87.4224827
  49.8327005  34.3242274  91.2154275  50.7870259  34.2926216  91.1484207
  49.6339529  33.8632898  92.0304501  50.4226387  32.8943390  93.7825073
  51.2419276  33.3887469  93.8059910  50.6963195  31.9775358  93.7542640
  60.1792984  25.2854142  83.1453028  59.2918839  25.5703793  82.9273223
  60.5946973  25.1247906  82.2980305  63.5307520  25.3100663  86.8607368
  64.3067910  25.7997116  87.1331984  62.8055654  25.7358717  87.3179237
  65.9680078  26.0228282  87.9181308  66.5624569  25.7824018  87.2074616
  66.0406662  25.3035413  88.5454844  48.1877234  39.8661893  88.2324473
  48.0531702  39.1062294  87.6662471  47.7709296  40.5902793  87.7653262
  59.3236197  35.0498817  77.2401048  60.0272047  35.2548819  77.8558704
  58.5998846  35.6175579  77.5050132  60.1534007  30.8008678  83.3603318
  60.0969209  31.2577230  82.5210951  60.7062350  30.0399363  83.1826161
  63.9638813  26.5898410  84.1853438  63.7075747  26.1895046  85.0161646
  63.3391681  27.3042204  84.0603577  68.2751151  29.3294483  86.6924729
  67.7150709  29.3987673  87.4656291  67.6694654  29.1535468  85.9724226
  51.3446360  40.7631210  88.4442916  51.2278744  41.7076643  88.3421606
  50.5238806  40.4604772  88.8328715  61.2322894  35.4881346  79.2899508
  62.0668498  35.0562545  79.1076983  61.0707237  35.3163360  80.2176403
  60.8868787  31.9913459  80.6555848  60.8317590  31.8257731  79.7144292
  60.2614842  32.6989492  80.8118037  45.6761302  27.2281524  94.4817270
  46.3220165  26.7180478  94.9704495  45.4678453  27.9650205  95.0560695
  58.2014694  34.2962371  99.9809410  59.0705853  34.4703024  99.6196045
  57.7221445  35.1156788  99.8585140  54.1964912  21.4921568  80.2341166
  54.1843582  22.4363408  80.3909437  55.0888334  21.3091714  79.9400627
  52.3700874  41.4159472  91.6598844  53.2728121  41.4483083  91.9765339
  52.1438244  40.4859923  91.6745180  54.1254476  40.1690459  88.3208923
  53.1750107  40.1692320  88.2073295  54.4286962  39.4223193  87.8044957
  58.0117032  18.0864345  84.4887103  57.2449427  17.5322832  84.6343785
  58.4227737  18.1586214  85.3501254  50.0158793  24.3749141  98.5792284
  50.8790254  24.0185946  98.7895609  49.4424203  24.0363036  99.2667688
  69.8607170  46.0050997  89.3854685  70.4985579  45.8857745  88.6818025
  69.7428012  46.9531841  89.4442637  66.6696876  45.9578425  89.3216210
  66.3315387  45.8419490  88.4336745  67.5386644  45.5569590  89.3017216
  62.5283692  47.8113902  85.3113101  61.9648557  47.7203839  84.5429389
  62.4136087  46.9913806  85.7915593  67.1516659  47.1113277  95.2802415
  67.1405300  46.7166075  94.4082919  67.3137298  46.3779350  95.8736187
  60.0748123  49.3065093  88.1497321  60.8669415  48.9655918  87.7343621
  60.3144774  49.4160068  89.0699475  63.8723920  49.8950389  94.2281599
  63.5813786  50.7996020  94.1128266  64.5080904  49.9366916  94.9425669
  64.7980127  47.2727237  90.8182959  65.3943699  47.0483260  90.1039922
  64.8555098  46.5311983  91.4208407  64.3705155  44.7266673  78.6533150
  64.6230676  44.2048194  77.8916613  63.4329714  44.5632818  78.7559834
  69.4148438  43.7302451  86.4607893  70.2011527  43.3121874  86.1098310
  69.6787142  44.6348543  86.6289542  69.5858515  49.1675301  81.1596550
  68.9504348  49.2409928  81.8717455  69.2555922  49.7568900  80.4815629
  74.8156865  43.6677684  87.3640872  75.5482037  43.0976901  87.5978701
  74.0596221  43.2799285  87.8047377  66.4332985  46.0904926  84.5604214
  66.0691192  45.5635547  85.2717136  67.2900101  45.7003395  84.3870700
  72.3382285  37.3799258  91.8235480  72.0065610  38.2494669  91.5996695
  71.7427899  37.0635542  92.5029511  66.0738472  41.1194825  79.5565563
  66.2412874  41.9875062  79.9236034  65.8835641  41.2822107  78.6326852
  68.8313805  49.5811804  91.2231393  68.5314528  50.4836843  91.1147200
  68.4864865  49.3143988  92.0752546  62.2826286  46.0325601  87.2568097
  61.3576783  45.9001815  87.4645789  62.5310700  46.8119820  87.7538040
  72.2310949  42.0994345  88.9028830  71.3227826  42.0309753  88.6087591
  72.1798545  42.5766289  89.7310656  66.0527693  43.5752483  80.5412229
  65.9327318  44.0209534  81.3797710  65.3580281  43.9237801  79.9825768
  59.6435098  45.6758875  88.0911886  59.7727479  45.9293354  89.0051298
  58.9632549  46.2686583  87.7716542  63.8134585  56.3456125  84.1902361
  63.7358615  57.2963950  84.2690841  63.2096228  56.0001997  84.8477287
  66.3051815  43.5183990  96.8463728  65.5285149  44.0777910  96.8366592
  66.9442378  44.0040773  97.3678598  74.0972595  40.3010783  90.6806704
  73.4546975  40.5943316  90.0346499  73.5927524  40.1863703  91.4859901
  71.7512759  44.0473956  81.3692564  72.6630615  44.2801343  81.1940261
  71.2422406  44.6311000  80.8067642  64.5598187  46.3269443  96.4081695
  65.3012871  46.8654487  96.1316518  63.8535172  46.9535732  96.5653246
  70.0353527  48.4698584  95.0053856  70.4436883  48.0280994  94.2608488
  69.3130788  47.8951211  95.2588049  66.3884597  43.4071191  92.3787413
  67.2345792  43.8310604  92.5222062  66.3283234  42.7504815  93.0725976
  70.3582341  49.0299775  88.7606145  69.7291204  49.1945489  88.0582213
  69.9708003  49.4441384  89.5317109  74.2371573  49.9654212  86.1150509
  73.5522611  50.3453114  85.5647542  74.3215422  50.5749539  86.8482456
  69.5384042  41.0675559  94.0368587  69.2944974  41.8217620  93.5002862
  69.8143972  41.4460907  94.8715834  71.4922505  47.6114171  92.7145852
  71.7039400  48.2545931  92.0380233  71.4452253  46.7776488  92.2467782
  69.0948734  40.2231992  89.6182424  68.2333213  40.5213246  89.9099162
  69.1211168  40.4402391  88.6863457  65.9110303  48.7674183  86.0256230
  66.3748649  49.0461886  85.2360853  65.6467101  47.8657627  85.8429321
  62.8034384  48.3145664  88.9635993  63.3735741  48.7432933  88.3253478
  63.3942496  48.0328249  89.6620179  64.8479189  44.8897335  82.8345795
  65.5503232  45.3418379  83.3019722  64.5159818  44.2481154  83.4625688
  63.2959551  43.4809092  97.2097005  62.6658211  44.1625373  97.4432401
  63.1895639  43.3692173  96.2650143  58.5904523  43.1480888  88.1362929
  57.8003577  43.4038416  87.6603039  59.0815770  43.9629226  88.2414969
  72.6068333  50.4886127  90.8868210  73.4285776  50.0866314  90.6050891
  72.6030736  50.3854361  91.8384325  60.5419268  43.5125467  85.0946405
  59.7450432  43.6244161  85.6129901  60.3144861  43.8512119  84.2287296
  66.3724936  50.0370170  93.0428920  66.4369369  50.4990577  93.8787092
  65.6635860  49.4067535  93.1711230  56.8742226  43.4011378  90.5677920
  57.1250264  44.2858388  90.8335496  57.4101774  43.2215980  89.7953011
  80.6974326  46.8324875  87.2353181  79.9438034  46.2632273  87.0797185
  80.8321867  46.7987540  88.1823816  66.0872954  51.7038278  82.9107900
  65.9518629  52.5489813  83.3392748  66.6282766  51.9057555  82.1473834
  62.5740293  37.7829858  99.5722256  62.1807239  37.2296056 100.2469900
  63.3906434  38.0940436  99.9628773  59.5402351  49.2213716  83.4835826
  60.0526872  50.0156966  83.6341390  60.1925064  48.5240006  83.4169427
  61.3497236  52.3379472  85.5658579  61.5263864  53.2597437  85.3779563
  62.1454069  52.0237891  85.9952958  65.4908254  39.1987737  97.1642512
  66.2317968  39.7994890  97.0846975  65.7226177  38.4565374  96.6060555
  60.6349592  44.3844104  95.4420742  60.5203108  43.4829361  95.7427841
  59.7794110  44.6307801  95.0905558  67.7141430  52.3261844  97.0408242
  67.2705284  51.5398223  96.7229147  68.3758644  52.5140995  96.3752133
  62.4728551  53.8557646  91.5668921  63.0235976  53.7274709  90.7945915
  61.6340027  54.1552535  91.2163814  69.8122668  52.6064644  95.0689644
  69.7941144  53.4273525  94.5769913  70.7342588  52.4818719  95.2939785
  66.2695722  50.1208774  95.9113152  66.8024059  49.3597062  95.6812460
  65.7409803  49.8282425  96.6537307  69.4365417  35.2268840  91.4406794
  69.0929687  36.1170481  91.3645904  69.8044380  35.0370497  90.5776379
  69.4015700  45.2177451  79.9479229  68.8862323  45.9882055  80.1867616
  69.1293008  44.5442587  80.5712290  66.9862811  40.0627151  85.0064467
  66.1304407  39.6734002  84.8270106  67.3989763  40.1419112  84.1464253
  68.5161958  37.5973495  89.4056027  68.0126753  37.5603630  88.5923832
  68.8092565  38.5066237  89.4652684  64.7604844  37.6812224  88.4122209
  65.6257840  37.4855033  88.0528098  64.8282352  37.4522576  89.3391566
  74.3749974  47.9709805  81.8832402  73.5979417  47.6320965  81.4387565
  75.0541455  47.9762428  81.2087368  69.1902003  43.0904543  81.7739010
  68.8852139  43.4050692  82.6249153  70.1432445  43.1685963  81.8166343
  67.6348435  49.2494766  83.4231964  67.1069797  48.5147526  83.1105202
  67.1335938  50.0269442  83.1771932  72.6141281  47.4443787  88.5399010
  71.9564956  48.1343048  88.6279139  73.4181680  47.8340218  88.8832997
  62.3667163  39.9114432  85.7838576  62.9410915  39.6889614  85.0511769
  62.9538145  39.9803127  86.5367177  71.4246740  45.7988159  86.5902952
  71.9378622  46.4318151  87.0924662  72.0747964  45.1989355  86.2246312
  62.6936750  41.9418893  79.8034461  61.8574062  42.2793580  80.1243736
  62.5541519  41.8067873  78.8661598  64.6689830  36.7855681  84.5113645
  64.0154243  36.4704698  83.8870260  64.6270305  36.1631422  85.2373468
  67.9027571  43.2737615  88.8361293  66.9850132  43.4952562  88.6782981
  68.3187714  43.3483925  87.9773000  68.6862618  44.6729030  83.9663973
  69.4334437  45.1850428  83.6571095  68.9554208  44.3513083  84.8268367
  66.9589269  47.1687571  80.9490927  66.0500488  46.8846604  81.0463397
  66.9884352  47.5886650  80.0894234  72.1908536  50.7794161  84.7182095
  71.7370863  49.9385071  84.7747285  71.5602503  51.4155559  85.0556875
  71.1341456  41.7086147  85.9482762  70.3964212  41.1963533  86.2793005
  71.3868229  41.2686528  85.1366039  70.6341475  52.6170657  85.6531913
  70.9264450  53.1775714  84.9344279  71.1440096  52.9099218  86.4085072
  71.2353083  34.4862399  86.5424532  71.5411960  33.6259762  86.2550447
  71.9605688  35.0780019  86.3423525  57.5277439  44.8893085  84.9306129
  57.3301839  44.2962446  84.2057196  56.9724103  44.5845296  85.6482068
  65.5074163  44.7816192  87.0500723  65.5622772  43.8290028  86.9743199
  64.6965365  44.9375631  87.5342021  63.4466523  43.3993252  84.8091101
  62.6334388  43.6987422  85.2156294  63.9425517  43.0048940  85.5265584
  65.5975101  53.3951008  86.7425366  65.5551279  53.6211855  85.8133898
  66.5137799  53.1614383  86.8911167  69.0440734  43.8635076  93.6405995
  69.3990122  44.0906549  94.5000461  69.6912866  44.1953453  93.0183251
  74.7738471  46.9853512  84.3455324  74.6356370  47.1755108  83.4176514
  74.4174690  47.7472895  84.8023376  62.9380597  40.9711607  90.4252336
  63.5779977  40.8300366  89.7275300  62.1058128  40.6846120  90.0490938
  74.8007851  49.0530039  89.3566596  75.2344358  48.9605328  90.2049650
  75.5139432  49.0287539  88.7186612  63.7140901  50.2714037  86.5387329
  64.5081500  49.7764358  86.3369904  63.0032594  49.7431901  86.1755034
  68.5335746  52.6532133  90.8899697  68.5872768  53.2223069  91.6577412
  67.6650527  52.8234018  90.5253734  60.0223665  44.4157119  82.6147082
  59.0921253  44.3541575  82.8317044  60.1181137  43.8933072  81.8183723
  59.9409214  40.9411932  85.2025323  60.2016031  41.8557265  85.0934484
  60.7626386  40.4736375  85.3521936  61.4134139  42.3549689  92.3724148
  62.0857193  42.1467051  91.7236797  60.5863926  42.1571775  91.9329380
  75.6623400  49.0953740  91.8899481  75.8559291  49.9999550  92.1358756
  75.5624019  48.6361159  92.7238066  67.3159711  38.9811630  94.3889809
  66.6687626  39.6801580  94.2954285  68.0860727  39.4147774  94.7566057
  70.7238509  49.2460482  97.4640362  70.5724016  49.0171034  96.5470446
  70.7143189  50.2031084  97.4771707  67.4923846  46.8192395  92.4486628
  68.4215906  46.9703555  92.2755596  67.0714876  46.9076416  91.5935275
  66.2912177  50.8443059  90.2185166  66.1523263  50.4761844  91.0911104
  65.5026774  51.3590699  90.0469124  66.8860329  55.9452156  81.5610703
  67.0612085  55.4740199  82.3756325  66.1993117  56.5717922  81.7891963
  67.8417392  50.2224662  87.6074004  67.5067225  50.1825432  88.5031654
  67.3421338  49.5569378  87.1344414  61.8161636  45.6292292  93.1326585
  61.6781434  44.8972531  93.7338124  62.7266560  45.5401192  92.8510773
  70.7776584  47.5680697  77.8811063  70.1605755  46.8427525  77.7844116
  70.3093073  48.3290057  77.5378138  64.4443937  45.3412252  92.6210265
  65.1543556  44.7005444  92.5796883  64.4013245  45.5925146  93.5436445
  72.4330716  52.2779605  95.5416844  72.3743262  51.5938825  94.8747427
  72.8350234  53.0198595  95.0897470  63.1572871  42.3277469  94.4405904
  62.6210228  41.8768208  95.0927500  62.5689579  42.4623378  93.6976368
  62.5675130  41.7866121  77.0032368  61.6904596  41.6654922  76.6394614
  63.0432883  40.9952199  76.7511256  72.4348123  50.2419189  93.7730823
  71.5474902  49.9045111  93.8957222  73.0046674  49.5102220  94.0099589
  54.0877270  46.5743281  87.0973875  54.7748310  46.2605011  86.5094890
  53.9325399  47.4784645  86.8241126  58.8911992  41.4633477  91.5258899
  58.8070181  40.8559147  90.7909308  58.0694699  41.9542495  91.5268395
  65.9649276  54.9020641  90.7392067  65.8919448  55.7075613  91.2511371
  65.5226670  55.1012607  89.9140088  65.7539056  54.1392411  84.2494888
  64.9706578  54.6814091  84.3433113  66.4531801  54.6566391  84.6489129
  69.0635706  39.9487041  86.8929094  69.5604406  39.1957003  86.5730164
  68.2922688  39.9851357  86.3272303  76.9165464  45.6527406  88.5347385
  76.9055340  46.5352122  88.1641318  76.0482843  45.2998957  88.3401922
  68.4247960  54.8007475  92.8950225  69.1375932  55.4354940  92.8226127
  67.9337989  54.8971341  92.0790227  70.1465487  48.7058728  84.4667517
  69.2121766  48.8260190  84.2972221  70.3242155  47.8031195  84.2027527
  65.6470675  42.0904424  86.6200778  65.2768462  41.5375464  87.3081684
  66.1429767  41.4862557  86.0675778  73.5338038  44.5476047  85.0017551
  73.9998490  45.3804039  84.9277854  73.9845539  44.0821029  85.7062810
  63.4759873  52.5501919  93.7155796  64.1769333  53.1838402  93.8685190
  63.0054988  52.8916650  92.9551435  71.6014269  50.8919868  82.0003703
  71.8774113  50.7776463  82.9097577  70.7318768  50.4937353  81.9615876
  71.5054701  36.9156634  89.0408452  70.5917781  37.1460861  89.2090659
  71.9347802  36.9995078  89.8922485  71.2761159  45.1046526  91.5408347
  70.6232610  45.3522434  90.8860799  71.6541539  44.2910664  91.2070824
  68.2368333  55.1406219  85.6436517  68.4190728  54.3227875  86.1064269
  69.0601319  55.3573912  85.2061407  68.5710499  54.0674404  82.9051565
  69.0998265  53.5566859  82.2921727  68.8338718  53.7516935  83.7697098
  67.3248732  45.8466337  98.0274384  66.6489369  45.7460466  98.6976759
  68.1476366  45.6905551  98.4910381  59.0727592  52.0838274  90.6486899
  59.6581028  51.3381962  90.7814803  58.8752430  52.3942230  91.5323563
  61.9266247  55.1189521  85.6649341  61.2576622  55.6035649  85.1813381
  61.7879116  55.3658742  86.5792720  53.6645246  44.6543874  89.3691342
  53.7029346  44.1207465  90.1628460  53.1585539  44.1279079  88.7502319
  66.0671515  57.1533265  92.2632000  66.6189823  57.3164886  93.0281085
  66.4077709  57.7437702  91.5912024  61.0436009  39.5008414  92.8653884
  61.1077335  40.3623245  92.4531282  60.9803129  38.8882416  92.1326243
  60.5188281  41.5731547  96.5126919  61.1460320  41.1908624  97.1264443
  59.6616200  41.3545749  96.8782611  70.9182390  51.9794522  98.1180654
  71.4622294  52.5924480  97.6235609  70.3369235  52.5374101  98.6347667
  57.2953824  43.3807976  82.4445273  57.5907265  42.4718654  82.3912327
  56.3941860  43.3595716  82.1226276  69.2039903  55.1015240  89.2495682
  69.0791042  54.3004980  88.7406627  69.8618994  55.5961433  88.7609652
  60.8248071  41.4563973  88.4272822  60.1034657  42.0699940  88.2880295
  61.6141327  41.9921737  88.3489468  71.2674811  52.9024260  90.8775232
  70.3205147  52.7829611  90.8053559  71.6157584  52.0146758  90.9601493
  63.6274384  38.7918399  94.7013474  64.1508786  39.0380696  95.4639783
  63.4086718  39.6238434  94.2816611  59.0241665  41.0622074  82.5684599
  58.6954372  40.1819453  82.3859704  59.3781036  41.0069742  83.4560988
  68.2721244  52.6976976  87.0779584  68.1246207  51.7693684  87.2587154
  69.0974738  52.7197067  86.5936659  62.1383489  41.3495044  82.9360076
  62.4779561  41.8780965  82.2138685  62.5855609  41.6875450  83.7118643
  71.8755366  53.5205535  88.1644457  72.8001914  53.3148396  88.0268908
  71.7070670  53.2721936  89.0733798  64.8326929  39.7332094  92.3863144
  64.4923750  38.9339907  92.7883824  64.1265936  40.0333805  91.8139977
  65.4843401  36.8181407  90.8390467  66.3069471  36.3441885  90.7169358
  65.7281465  37.5971890  91.3389154  64.1251636  39.8469665  81.1353369
  64.8459998  40.2250918  80.6317086  63.5016940  40.5658542  81.2388347
  68.2682759  40.5514814  82.0711701  68.4846373  41.4339452  81.7700529
  67.7876826  40.1601027  81.3417343  63.0081980  43.5100527  88.6482446
  62.8626561  43.8240830  89.5406727  62.5307184  44.1285428  88.0953345
  64.8678363  40.5003075  88.6963335  64.8539932  39.6044169  88.3595633
  65.5850791  40.5073739  89.3301621  66.7204494  40.9340415  90.7416463
  66.4622271  41.8557486  90.7400793  66.1889534  40.5370850  91.4316927
  71.6650682  54.0391203  83.5206548  71.8387560  53.4737625  82.7680401
  72.1579574  54.8392097  83.3386038  57.4827642  46.0505872  91.5870107
  56.9381110  46.8265680  91.7190381  58.3606992  46.3976676  91.4289229
  64.2715259  39.3817456  83.9650906  64.3931170  38.4534102  84.1641793
  63.9817301  39.3956142  83.0529221  67.1406449  37.0672366  87.1017625
  67.1628146  37.1311699  86.1469605  67.5574508  36.2276875  87.2958132
  77.5190074  46.8027626  85.1396848  77.9621220  46.0534951  84.7415971
  76.6416584  46.7937762  84.7570580  72.6525855  53.3557967  80.6203447
  73.3476759  53.9764660  80.8390761  72.9949005  52.5053318  80.8955824
  58.2693664  45.1775768  94.4800264  57.5275400  45.3258403  95.0664894
  57.9486408  45.4384034  93.6167013  74.5517278  50.8057673  82.1490777
  75.0768602  51.1444945  81.4240097  74.4639631  49.8704688  81.9653912
  66.2137327  54.7191746  94.2780654  66.5224453  54.4740893  95.1503354
  67.0112809  54.9238385  93.7899524  66.2357939  56.8729656  86.5086030
  65.7962929  56.3806035  87.2018887  66.9866056  56.3302623  86.2678106
  58.7150278  53.0641197  86.5110659  59.5408298  52.7644969  86.1309302
  58.3644330  52.2948819  86.9600447  63.6831811  52.4167665  88.5808332
  63.0611820  51.7538370  88.2810560  64.3536678  52.4428797  87.8981980
  56.9158883  50.9827523  87.4699592  56.0790791  50.5549697  87.2883593
  56.8882528  51.1759966  88.4070383  63.7556338  40.8949453  98.1740838
  63.8044494  41.7711576  97.7918608  64.2978853  40.3526846  97.6012481
  74.2411184  51.4390576  97.4541975  73.4506728  51.4214715  96.9146475
  74.0044539  51.9778870  98.2091012  74.3609059  48.2883043  94.7674704
  74.4107064  48.1233050  95.7090227  74.2522982  47.4210302  94.3772585
  71.6512821  44.2713971  96.0834011  72.5522684  44.1320435  95.7918008
  71.7260796  44.4368425  97.0232188  65.9855627  41.6480825  94.9287197
  65.1158936  41.9414391  94.6569785  66.2215107  42.2321270  95.6494460
  75.8627256  50.7079984  95.0116725  75.5712064  51.0709965  95.8480186
  75.2499387  49.9946992  94.8330057  77.0622938  48.2732864  87.5319296
  77.8969830  48.7122668  87.6956856  77.1982067  47.7971517  86.7127541
  74.1114444  45.8312599  93.4796783  74.5868566  46.0240245  92.6715635
  73.1880010  45.8871785  93.2340167  60.9997951  46.9936766  83.0627862
  60.7543993  46.0899096  83.2608072  61.1693865  46.9953916  82.1207340
  68.6894661  37.8660442  92.4452617  69.2076604  38.6021469  92.1199106
  68.3349793  38.1724436  93.2799376  60.2693598  42.7265123  80.5614023
  59.5762843  42.8009478  79.9054059  60.0245350  41.9625467  81.0835540
  68.9407255  34.2860725  87.9653514  69.2209009  33.6183914  88.5913940
  69.7257862  34.4789820  87.4528178  72.8116113  42.7078359  91.7125089
  73.7633536  42.8076456  91.7337313  72.6419564  41.9156627  92.2223173
  70.8330493  39.7933942  91.8984490  70.2380425  40.0738955  91.2030978
  70.5480189  40.2827843  92.6701231  69.9637983  53.7456869  80.6587122
  70.8968656  53.6802431  80.8619998  69.8761196  54.5813136  80.2001655
  72.5926000  53.0622739  77.6191070  72.5139631  52.7282603  78.5126828
  73.4135667  53.5544507  77.6182542  75.2904191  45.9284478  90.8267389
  75.2580511  44.9900479  91.0127072  75.9004815  46.0068515  90.0933213
  67.1287522  44.7980531  76.8694593  68.0746627  44.6686740  76.9383011
  66.7501767  44.0595193  77.3464021  75.4398679  42.7195522  90.8725672
  74.9237728  41.9353979  90.6855601  76.3238628  42.3914239  91.0372191
  73.1009406  36.4636537  86.8321484  72.9034227  36.1551626  87.7164816
  73.7109112  37.1898176  86.9619414  81.1080741  46.9900485  89.9673425
  81.8384129  46.7285773  90.5281129  80.4987686  46.2529207  90.0075493
  79.1896038  45.1308348  90.5647877  78.4629201  44.9964313  89.9564368
  78.7743325  45.4385177  91.3704595  67.0126214  48.8498278  98.3295250
  67.9329224  49.0276877  98.5235296  66.9775797  47.9054323  98.1774949
  65.3130439  42.7230508  76.8049478  64.4061894  42.4263621  76.8812191
  65.5906420  42.4260326  75.9383764  56.2308379  44.0436871  87.2548524
  55.9111164  43.1902179  86.9622898  55.6841808  44.2585449  88.0106492
  60.0088287  46.7599312  90.9718031  60.2274297  47.6916420  90.9906065
  60.4214061  46.4007287  91.7572835  66.9292505  37.2667398  82.9593719
  66.1193233  36.9214483  83.3348965  67.6176922  36.9574941  83.5481331
  68.8583053  36.3445444  84.5818016  69.4114092  36.7640898  85.2408039
  69.0953139  35.4181192  84.6240972  64.8816152  42.3332518 100.3620780
  64.7812879  43.2826875 100.2932871  64.6637694  42.0050757  99.4896850
  64.0829224  39.5817443  76.9461457  64.9448388  39.9072341  77.2057274
  64.2679568  38.7948939  76.4334523  56.0996639  47.6639783  89.2241646
  55.4060111  47.2493736  88.7111600  56.8469630  47.7060319  88.6275065
  72.2361860  38.4545970  84.0896680  71.6560529  39.1130774  83.7074732
  71.9697793  37.6323314  83.6784098  70.6865426  37.8551027  86.2918000
  71.1865205  37.9667562  85.4832319  71.3301034  37.5512080  86.9318809
  64.7447422  45.7629657  99.1785841  64.2614504  46.5630017  99.3849730
  64.8308361  45.7737602  98.2253285  58.0133382  47.5958037  87.1007661
  57.9904070  47.6945724  86.1489544  58.3234018  48.4423187  87.4224827
  60.6720760  49.6534192  91.2154275  61.6264013  49.6218134  91.1484207
  60.4733283  49.1924815  92.0304501  61.2620142  48.2235308  93.7825073
  62.0813031  48.7179386  93.8059910  61.5356950  47.3067276  93.7542640
  71.0186738  40.6146060  83.1453028  70.1312593  40.8995711  82.9273223
  71.4340727  40.4539823  82.2980305  74.3701274  40.6392581  86.8607368
  75.1461664  41.1289033  87.1331984  73.6449408  41.0650635  87.3179237
  76.8073833  41.3520200  87.9181308  77.4018324  41.1115936  87.2074616
  76.8800417  40.6327331  88.5454844  59.0270989  55.1953811  88.2324473
  58.8925456  54.4354212  87.6662471  58.6103051  55.9194711  87.7653262
  70.9927762  46.1300596  83.3603318  70.9362963  46.5869147  82.5210951
  71.5456104  45.3691280  83.1826161  74.8032568  41.9190328  84.1853438
  74.5469502  41.5186963  85.0161646  74.1785436  42.6334122  84.0603577
  79.1144906  44.6586401  86.6924729  78.5544464  44.7279590  87.4656291
  78.5088409  44.4827386  85.9724226  62.1840114  56.0923128  88.4442916
  62.0672499  57.0368561  88.3421606  61.3632561  55.7896690  88.8328715
  72.0716649  50.8173264  79.2899508  72.9062253  50.3854462  79.1076983
  71.9100992  50.6455277  80.2176403  71.7262541  47.3205377  80.6555848
  71.6711345  47.1549649  79.7144292  71.1008596  48.0281410  80.8118037
  56.5155056  42.5573441  94.4817270  57.1613920  42.0472395  94.9704495
  56.3072207  43.2942123  95.0560695  69.0408448  49.6254289  99.9809410
  69.9099608  49.7994941  99.6196045  68.5615200  50.4448706  99.8585140
  65.0358667  36.8213486  80.2341166  65.0237336  37.7655326  80.3909437
  65.9282088  36.6383631  79.9400627  63.2094629  56.7451390  91.6598844
  64.1121875  56.7775000  91.9765339  62.9831999  55.8151841  91.6745180
  64.9648231  55.4982376  88.3208923  64.0143862  55.4984238  88.2073295
  65.2680717  54.7515111  87.8044957  68.8510786  33.4156263  84.4887103
  68.0843182  32.8614749  84.6343785  69.2621491  33.4878131  85.3501254
  60.8552547  39.7041059  98.5792284  61.7184009  39.3477863  98.7895609
  60.2817958  39.3654953  99.2667688  80.7000924  61.3342915  89.3854685
  81.3379334  61.2149662  88.6818025  80.5821767  62.2823759  89.4442637
  77.5090630  61.2870343  89.3216210  77.1709142  61.1711408  88.4336745
  78.3780398  60.8861508  89.3017216  77.9910413  62.4405195  95.2802415
  77.9799054  62.0457993  94.4082919  78.1531053  61.7071267  95.8736187
  78.9477005  66.8076787  80.6227566  78.2964984  67.3930868  80.2361579
  79.7421368  67.3382982  80.6822603  74.7117674  65.2242307  94.2281599
  74.4207540  66.1287937  94.1128266  75.3474659  65.2658834  94.9425669
  75.6373881  62.6019155  90.8182959  76.2337454  62.3775177  90.1039922
  75.6948853  61.8603901  91.4208407  80.2542193  59.0594369  86.4607893
  81.0405282  58.6413792  86.1098310  80.5180897  59.9640461  86.6289542
  80.4252270  64.4967219  81.1596550  79.7898103  64.5701846  81.8717455
  80.0949676  65.0860818  80.4815629  85.6550620  58.9969602  87.3640872
  86.3875792  58.4268819  87.5978701  84.8989975  58.6091202  87.8047377
  77.2726739  61.4196843  84.5604214  76.9084947  60.8927464  85.2717136
  78.1293855  61.0295312  84.3870700  83.1776040  52.7091176  91.8235480
  82.8459365  53.5786587  91.5996695  82.5821653  52.3927460  92.5029511
  76.9132226  56.4486743  79.5565563  77.0806629  57.3166980  79.9236034
  76.7229395  56.6114025  78.6326852  79.6707560  64.9103722  91.2231393
  79.3708283  65.8128761  91.1147200  79.3258619  64.6435905  92.0752546
  73.1220041  61.3617519  87.2568097  72.1970537  61.2293733  87.4645789
  73.3704454  62.1411738  87.7538040  83.0704703  57.4286262  88.9028830
  82.1621581  57.3601671  88.6087591  83.0192299  57.9058207  89.7310656
  76.8921447  58.9044401  80.5412229  76.7721072  59.3501451  81.3797710
  76.1974036  59.2529718  79.9825768  77.1445569  58.8475908  96.8463728
  76.3678903  59.4069828  96.8366592  77.7836132  59.3332691  97.3678598
  84.9366350  55.6302701  90.6806704  84.2940730  55.9235234  90.0346499
  84.4321278  55.5155621  91.4859901  82.5906513  59.3765874  81.3692564
  83.5024369  59.6093261  81.1940261  82.0816160  59.9602918  80.8067642
  75.3991941  61.6561361  96.4081695  76.1406626  62.1946405  96.1316518
  74.6928927  62.2827650  96.5653246  80.8747281  63.7990502  95.0053856
  81.2830637  63.3572912  94.2608488  80.1524543  63.2243129  95.2588049
  77.2278351  58.7363108  92.3787413  78.0739546  59.1602522  92.5222062
  77.1676989  58.0796733  93.0725976  81.1976096  64.3591692  88.7606145
  80.5684958  64.5237406  88.0582213  80.8101758  64.7733302  89.5317109
  85.0765328  65.2946130  86.1150509  84.3916366  65.6745031  85.5647542
  85.1609177  65.9041457  86.8482456  80.3777796  56.3967477  94.0368587
  80.1338728  57.1509537  93.5002862  80.6537727  56.7752824  94.8715834
  82.3316259  62.9406089  92.7145852  82.5433154  63.5837849  92.0380233
  82.2846007  62.1068406  92.2467782  79.9342488  55.5523910  89.6182424
  79.0726967  55.8505163  89.9099162  79.9604923  55.7694309  88.6863457
  76.7504058  64.0966100  86.0256230  77.2142403  64.3753803  85.2360853
  76.4860856  63.1949545  85.8429321  73.6428139  63.6437582  88.9635993
  74.2129496  64.0724850  88.3253478  74.2336250  63.3620167  89.6620179
  75.6872944  60.2189253  82.8345795  76.3896987  60.6710296  83.3019722
  75.3553572  59.5773072  83.4625688  74.1353305  58.8101009  97.2097005
  73.5051966  59.4917290  97.4432401  74.0289393  58.6984091  96.2650143
  69.4298278  58.4772805  88.1362929  68.6397332  58.7330334  87.6603039
  69.9209525  59.2921143  88.2414969  83.4462087  65.8178045  90.8868210
  84.2679531  65.4158232  90.6050891  83.4424490  65.7146279  91.8384325
  71.3813023  58.8417385  85.0946405  70.5844186  58.9536079  85.6129901
  71.1538615  59.1804037  84.2287296  77.2118691  65.3662088  93.0428920
  77.2763123  65.8282495  93.8787092  76.5029614  64.7359453  93.1711230
  67.7135981  58.7303296  90.5677920  67.9644019  59.6150306  90.8335496
  68.2495529  58.5507897  89.7953011  91.5368080  62.1616793  87.2353181
  90.7831789  61.5924191  87.0797185  91.6715621  62.1279458  88.1823816
  73.4134048  53.1121775  99.5722256  73.0200993  52.5587974 100.2469900
  74.2300188  53.4232354  99.9628773  76.3302009  54.5279654  97.1642512
  77.0711722  55.1286807  97.0846975  76.5619932  53.7857292  96.6060555
  71.4743347  59.7136022  95.4420742  71.3596862  58.8121279  95.7427841
  70.6187865  59.9599718  95.0905558  78.5535185  67.6553762  97.0408242
  78.1099039  66.8690140  96.7229147  79.2152398  67.8432912  96.3752133
  80.6516423  67.9356562  95.0689644  80.6334898  68.7565443  94.5769913
  81.5736343  67.8110637  95.2939785  77.1089477  65.4500691  95.9113152
  77.6417814  64.6888979  95.6812460  76.5803558  65.1574343  96.6537307
  80.2759172  50.5560757  91.4406794  79.9323441  51.4462399  91.3645904
  80.6438134  50.3662415  90.5776379  80.2409455  60.5469368  79.9479229
  79.7256078  61.3173973  80.1867616  79.9686763  59.8734504  80.5712290
  77.8256566  55.3919069  85.0064467  76.9698162  55.0025920  84.8270106
  78.2383517  55.4711030  84.1464253  79.3555712  52.9265412  89.4056027
  78.8520508  52.8895548  88.5923832  79.6486319  53.8358155  89.4652684
  75.5998598  53.0104142  88.4122209  76.4651595  52.8146951  88.0528098
  75.6676107  52.7814494  89.3391566  85.2143729  63.3001723  81.8832402
  84.4373171  62.9612882  81.4387565  85.8935210  63.3054346  81.2087368
  80.0295758  58.4196460  81.7739010  79.7245893  58.7342610  82.6249153
  80.9826200  58.4977880  81.8166343  78.4742190  64.5786684  83.4231964
  77.9463551  63.8439443  83.1105202  77.9729692  65.3561360  83.1771932
  83.4535036  62.7735704  88.5399010  82.7958710  63.4634966  88.6279139
  84.2575435  63.1632136  88.8832997  73.2060917  55.2406350  85.7838576
  73.7804669  55.0181532  85.0511769  73.7931900  55.3095045  86.5367177
  82.2640494  61.1280077  86.5902952  82.7772376  61.7610069  87.0924662
  82.9141718  60.5281272  86.2246312  73.5330504  57.2710811  79.8034461
  72.6967817  57.6085498  80.1243736  73.3935274  57.1359791  78.8661598
  75.5083585  52.1147599  84.5113645  74.8547997  51.7996616  83.8870260
  75.4664059  51.4923339  85.2373468  79.5262869  71.1064401  79.3463623
  78.8524567  71.4096098  79.9548581  79.9128691  71.9093482  78.9969080
  78.7421325  58.6029532  88.8361293  77.8243887  58.8244479  88.6782981
  79.1581469  58.6775843  87.9773000  79.5256373  60.0020948  83.9663973
  80.2728192  60.5142345  83.6571095  79.7947963  59.6805001  84.8268367
  83.0302291  66.1086078  84.7182095  82.5764618  65.2676988  84.7747285
  82.3996257  66.7447477  85.0556875  81.9735210  57.0378064  85.9482762
  81.2357967  56.5255451  86.2793005  82.2261984  56.5978446  85.1366039
  81.4735230  67.9462575  85.6531913  81.7658204  68.5067632  84.9344279
  81.9833850  68.2391136  86.4085072  82.0746837  49.8154316  86.5424532
  82.3805714  48.9551680  86.2550447  82.7999442  50.4071937  86.3423525
  68.3671194  60.2185003  84.9306129  68.1695593  59.6254364  84.2057196
  67.8117858  59.9137213  85.6482068  76.3467917  60.1108109  87.0500723
  76.4016527  59.1581946  86.9743199  75.5359119  60.2667549  87.5342021
  74.2860277  58.7285169  84.8091101  73.4728143  59.0279340  85.2156294
  74.7819271  58.3340858  85.5265584  79.8834489  59.1926994  93.6405995
  80.2383877  59.4198467  94.5000461  80.5306620  59.5245370  93.0183251
  85.6132226  62.3145430  84.3455324  85.4750124  62.5047026  83.4176514
  85.2568445  63.0764812  84.8023376  73.7774352  56.3003525  90.4252336
  74.4173731  56.1592284  89.7275300  72.9451882  56.0138038  90.0490938
  85.6401605  64.3821957  89.3566596  86.0738112  64.2897246  90.2049650
  86.3533186  64.3579457  88.7186612  70.8617419  59.7449037  82.6147082
  69.9315007  59.6833492  82.8317044  70.9574891  59.2224990  81.8183723
  70.7802968  56.2703850  85.2025323  71.0409786  57.1849183  85.0934484
  71.6020141  55.8028292  85.3521936  72.2527894  57.6841607  92.3724148
  72.9250947  57.4758969  91.7236797  71.4257680  57.4863693  91.9329380
  86.5017155  64.4245657  91.8899481  86.6953045  65.3291468  92.1358756
  86.4017773  63.9653076  92.7238066  78.1553466  54.3103548  94.3889809
  77.5081381  55.0093497  94.2954285  78.9254481  54.7439692  94.7566057
  81.5632264  64.5752400  97.4640362  81.4117770  64.3462952  96.5470446
  81.5536943  65.5323001  97.4771707  78.3317600  62.1484313  92.4486628
  79.2609660  62.2995472  92.2755596  77.9108630  62.2368334  91.5935275
  77.7254084  71.2744074  81.5610703  77.9005839  70.8032117  82.3756325
  77.0386872  71.9009840  81.7891963  78.6811147  65.5516580  87.6074004
  78.3460980  65.5117350  88.5031654  78.1815093  64.8861296  87.1344414
  72.6555391  60.9584210  93.1326585  72.5175189  60.2264449  93.7338124
  73.5660314  60.8693110  92.8510773  81.6170339  62.8972614  77.8811063
  80.9999509  62.1719442  77.7844116  81.1486827  63.6581974  77.5378138
  75.2837692  60.6704169  92.6210265  75.9937310  60.0297361  92.5796883
  75.2407000  60.9217064  93.5436445  83.2724470  67.6071523  95.5416844
  83.2137016  66.9230743  94.8747427  83.6743989  68.3490513  95.0897470
  73.9966626  57.6569387  94.4405904  73.4603983  57.2060126  95.0927500
  73.4083334  57.7915296  93.6976368  73.4068884  57.1158038  77.0032368
  72.5298351  56.9946839  76.6394614  73.8826638  56.3244117  76.7511256
  83.2741878  65.5711106  93.7730823  82.3868656  65.2337028  93.8957222
  83.8440429  64.8394138  94.0099589  69.7305747  56.7925395  91.5258899
  69.6463935  56.1851064  90.7909308  68.9088453  57.2834413  91.5268395
  79.9029461  55.2778958  86.8929094  80.3998160  54.5248921  86.5730164
  79.1316442  55.3143275  86.3272303  87.7559218  60.9819324  88.5347385
  87.7449094  61.8644039  88.1641318  86.8876597  60.6290875  88.3401922
  79.2641714  70.1299393  92.8950225  79.9769687  70.7646858  92.8226127
  78.7731743  70.2263259  92.0790227  80.9859241  64.0350646  84.4667517
  80.0515520  64.1552108  84.2972221  81.1635910  63.1323112  84.2027527
  76.4864429  57.4196341  86.6200778  76.1162217  56.8667382  87.3081684
  76.9823522  56.8154475  86.0675778  84.3731793  59.8767965  85.0017551
  84.8392245  60.7095956  84.9277854  84.8239293  59.4112946  85.7062810
  82.4408024  66.2211786  82.0003703  82.7167868  66.1068381  82.9097577
  81.5712523  65.8229271  81.9615876  82.3448455  52.2448552  89.0408452
  81.4311535  52.4752779  89.2090659  82.7741557  52.3286996  89.8922485
  82.1154914  60.4338444  91.5408347  81.4626364  60.6814351  90.8860799
  82.4935294  59.6202582  91.2070824  79.4104253  69.3966322  82.9051565
  79.9392020  68.8858777  82.2921727  79.6732473  69.0808852  83.7697098
  78.1642487  61.1758255  98.0274384  77.4883124  61.0752384  98.6976759
  78.9870121  61.0197469  98.4910381  64.5039001  59.9835792  89.3691342
  64.5423100  59.4499382  90.1628460  63.9979294  59.4570997  88.7502319
  76.9065270  72.4825182  92.2632000  77.4583578  72.6456804  93.0281085
  77.2471463  73.0729620  91.5912024  71.8829763  54.8300332  92.8653884
  71.9471090  55.6915163  92.4531282  71.8196883  54.2174334  92.1326243
  71.3582036  56.9023465  96.5126919  71.9854074  56.5200542  97.1264443
  70.5009954  56.6837667  96.8782611  81.7576144  67.3086440  98.1180654
  82.3016048  67.9216398  97.6235609  81.1762989  67.8666018  98.6347667
  68.1347578  58.7099894  82.4445273  68.4301019  57.8010572  82.3912327
  67.2335614  58.6887633  82.1226276  71.6641825  56.7855890  88.4272822
  70.9428411  57.3991858  88.2880295  72.4535081  57.3213655  88.3489468
  82.1068565  68.2316178  90.8775232  81.1598901  68.1121529  90.8053559
  82.4551339  67.3438676  90.9601493  74.4668139  54.1210317  94.7013474
  74.9902541  54.3672613  95.4639783  74.2480472  54.9530352  94.2816611
  69.8635420  56.3913991  82.5684599  69.5348126  55.5111370  82.3859704
  70.2174791  56.3361660  83.4560988  72.9777243  56.6786961  82.9360076
  73.3173316  57.2072882  82.2138685  73.4249364  57.0167367  83.7118643
  82.7149121  68.8497453  88.1644457  83.6395668  68.6440314  88.0268908
  82.5464424  68.6013854  89.0733798  75.6720684  55.0624012  92.3863144
  75.3317504  54.2631825  92.7883824  74.9659690  55.3625723  91.8139977
  76.3237156  52.1473324  90.8390467  77.1463225  51.6733803  90.7169358
  76.5675219  52.9263808  91.3389154  74.9645390  55.1761583  81.1353369
  75.6853753  55.5542836  80.6317086  74.3410694  55.8950460  81.2388347
  79.1076513  55.8806732  82.0711701  79.3240127  56.7631370  81.7700529
  78.6270580  55.4892945  81.3417343  73.8475734  58.8392445  88.6482446
  73.7020315  59.1532748  89.5406727  73.3700938  59.4577345  88.0953345
  75.7072117  55.8294993  88.6963335  75.6933686  54.9336086  88.3595633
  76.4244545  55.8365657  89.3301621  77.5598248  56.2632333  90.7416463
  77.3016026  57.1849404  90.7400793  77.0283288  55.8662768  91.4316927
  82.5044437  69.3683120  83.5206548  82.6781314  68.8029543  82.7680401
  82.9973328  70.1684015  83.3386038  75.1109013  54.7109373  83.9650906
  75.2324924  53.7826019  84.1641793  74.8211056  54.7248059  83.0529221
  77.9800204  52.3964284  87.1017625  78.0021901  52.4603617  86.1469605
  78.3968263  51.5568792  87.2958132  88.3583828  62.1319543  85.1396848
  88.8014974  61.3826868  84.7415971  87.4810338  62.1229680  84.7570580
  83.4919609  68.6849885  80.6203447  84.1870514  69.3056577  80.8390761
  83.8342759  67.8345236  80.8955824  69.1087419  60.5067686  94.4800264
  68.3669155  60.6550321  95.0664894  68.7880163  60.7675951  93.6167013
  85.3911032  66.1349590  82.1490777  85.9162357  66.4736863  81.4240097
  85.3033385  65.1996606  81.9653912  77.0531081  70.0483664  94.2780654
  77.3618208  69.8032811  95.1503354  77.8506563  70.2530302  93.7899524
  74.5950093  56.2241371  98.1740838  74.6438248  57.1003493  97.7918608
  75.1372607  55.6818764  97.6012481  85.0804939  66.7682494  97.4541975
  84.2900482  66.7506633  96.9146475  84.8438293  67.3070788  98.2091012
  85.2002814  63.6174960  94.7674704  85.2500818  63.4524968  95.7090227
  85.0916737  62.7502219  94.3772585  82.4906576  59.6005888  96.0834011
  83.3916439  59.4612353  95.7918008  82.5654550  59.7660343  97.0232188
  76.8249381  56.9772743  94.9287197  75.9552691  57.2706309  94.6569785
  77.0608862  57.5613188  95.6494460  86.7021010  66.0371902  95.0116725
  86.4105819  66.4001882  95.8480186  86.0893142  65.3238910  94.8330057
  87.9016693  63.6024782  87.5319296  88.7363584  64.0414586  87.6956856
  88.0375822  63.1263435  86.7127541  84.9508199  61.1604516  93.4796783
  85.4262320  61.3532163  92.6715635  84.0273764  61.2163702  93.2340167
  71.8391705  62.3228684  83.0627862  71.5937747  61.4191014  83.2608072
  72.0087620  62.3245834  82.1207340  79.5288415  53.1952360  92.4452617
  80.0470359  53.9313387  92.1199106  79.1743548  53.5016353  93.2799376
  71.1087353  58.0557041  80.5614023  70.4156598  58.1301396  79.9054059
  70.8639105  57.2917385  81.0835540  79.7801009  49.6152642  87.9653514
  80.0602763  48.9475832  88.5913940  80.5651616  49.8081738  87.4528178
  77.5834478  68.7911636  79.5278540  77.0108445  69.4101824  79.0749012
  78.1567271  69.3410998  80.0618462  83.6509868  58.0370276  91.7125089
  84.6027291  58.1368374  91.7337313  83.4813318  57.2448545  92.2223173
  81.6724247  55.1225860  91.8984490  81.0774179  55.4030872  91.2030978
  81.3873944  55.6119761  92.6701231  80.8031738  69.0748787  80.6587122
  81.7362411  69.0094348  80.8619998  80.7154950  69.9105053  80.2001655
  83.4319754  68.3914657  77.6191070  83.3533386  68.0574520  78.5126828
  84.2529421  68.8836425  77.6182542  86.1297945  61.2576396  90.8267389
  86.0974266  60.3192397  91.0127072  86.7398569  61.3360433  90.0933213
  77.9681276  60.1272449  76.8694593  78.9140381  59.9978657  76.9383011
  77.5895521  59.3887111  77.3464021  86.2792434  58.0487440  90.8725672
  85.7631483  57.2645896  90.6855601  87.1632382  57.7206156  91.0372191
  83.9403161  51.7928455  86.8321484  83.7427982  51.4843543  87.7164816
  84.5502866  52.5190094  86.9619414  91.9474495  62.3192403  89.9673425
  92.6777884  62.0577691  90.5281129  91.3381441  61.5821125  90.0075493
  90.0289792  60.4600266  90.5647877  89.3022956  60.3256231  89.9564368
  89.6137079  60.7677094  91.3704595  77.8519969  64.1790195  98.3295250
  78.7722978  64.3568794  98.5235296  77.8169552  63.2346241  98.1774949
  76.1524193  58.0522426  76.8049478  75.2455649  57.7555538  76.8812191
  76.4300174  57.7552244  75.9383764  67.0702134  59.3728789  87.2548524
  66.7504918  58.5194097  86.9622898  66.5235562  59.5877367  88.0106492
  77.7686259  52.5959315  82.9593719  76.9586987  52.2506400  83.3348965
  78.4570676  52.2866859  83.5481331  79.6976807  51.6737362  84.5818016
  80.2507846  52.0932815  85.2408039  79.9346894  50.7473110  84.6240972
  75.7209907  57.6624436 100.3620780  75.6206634  58.6118793 100.2932871
  75.5031449  57.3342675  99.4896850  74.9222978  54.9109361  76.9461457
  75.7842142  55.2364259  77.2057274  75.1073322  54.1240857  76.4334523
  83.0755615  53.7837887  84.0896680  82.4954284  54.4422691  83.7074732
  82.8091547  52.9615232  83.6784098  81.5259181  53.1842945  86.2918000
  82.0258959  53.2959479  85.4832319  82.1694789  52.8803998  86.9318809
  75.5841177  61.0921575  99.1785841  75.1008258  61.8921935  99.3849730
  75.6702116  61.1029519  98.2253285  72.1013896  63.5527225  93.7825073
  72.9206785  64.0471304  93.8059910  72.3750704  62.6359193  93.7542640
  81.8580493  55.9437978  83.1453028  80.9706348  56.2287628  82.9273223
  82.2734482  55.7831741  82.2980305  85.2095029  55.9684499  86.8607368
  85.9855419  56.4580951  87.1331984  84.4843163  56.3942553  87.3179237
  87.6467587  56.6812118  87.9181308  88.2412078  56.4407854  87.2074616
  87.7194171  55.9619248  88.5454844  81.0023706  65.7082652  77.2401048
  81.7059556  65.9132655  77.8558704  80.2786355  66.2759414  77.5050132
  81.8321516  61.4592514  83.3603318  81.7756718  61.9161065  82.5210951
  82.3849859  60.6983198  83.1826161  85.6426322  57.2482245  84.1853438
  85.3863256  56.8478881  85.0161646  85.0179190  57.9626039  84.0603577
  89.9538660  59.9878319  86.6924729  89.3938218  60.0571508  87.4656291
  89.3482163  59.8119303  85.9724226  82.9110403  66.1465181  79.2899508
  83.7456007  65.7146380  79.1076983  82.7494746  65.9747195  80.2176403
  82.5656296  62.6497295  80.6555848  82.5105099  62.4841566  79.7144292
  81.9402351  63.3573328  80.8118037  67.3548811  57.8865359  94.4817270
  68.0007674  57.3764313  94.9704495  67.1465962  58.6234041  95.0560695
  79.8802203  64.9546207  99.9809410  80.7493362  65.1286859  99.6196045
  79.4008954  65.7740623  99.8585140  75.8752421  52.1505404  80.2341166
  75.8631091  53.0947244  80.3909437  76.7675843  51.9675549  79.9400627
  79.6904541  48.7448180  84.4887103  78.9236936  48.1906667  84.6343785
  80.1015245  48.8170049  85.3501254  71.6946302  55.0332976  98.5792284
  72.5577763  54.6769781  98.7895609  71.1211712  54.6946871  99.2667688
  91.5394679  76.6634833  89.3854685  92.1773088  76.5441580  88.6818025
  91.4215521  77.6115677  89.4442637  88.3484385  76.6162261  89.3216210
  88.0102896  76.5003325  88.4336745  89.2174153  76.2153426  89.3017216
  84.2071200  78.4697737  85.3113101  83.6436066  78.3787674  84.5429389
  84.0923596  77.6497642  85.7915593  88.8304168  77.7697112  95.2802415
  88.8192809  77.3749911  94.4082919  88.9924807  77.0363185  95.8736187
  81.7535632  79.9648929  88.1497321  82.5456924  79.6239753  87.7343621
  81.9932283  80.0743904  89.0699475  89.7870759  82.1368705  80.6227566
  89.1358739  82.7222785  80.2361579  90.5815122  82.6674900  80.6822603
  83.7126386  79.2257842  81.0214700  84.4857262  78.6786829  80.8827576
  84.0651785  80.0902091  81.2329161  85.5511429  80.5534224  94.2281599
  85.2601295  81.4579855  94.1128266  86.1868413  80.5950752  94.9425669
  86.4767636  77.9311073  90.8182959  87.0731208  77.7067095  90.1039922
  86.5342607  77.1895818  91.4208407  86.0492664  75.3850508  78.6533150
  86.3018185  74.8632029  77.8916613  85.1117223  75.2216653  78.7559834
  91.0935947  74.3886286  86.4607893  91.8799036  73.9705710  86.1098310
  91.3574651  75.2932379  86.6289542  91.2646024  79.8259137  81.1596550
  90.6291857  79.8993763  81.8717455  90.9343431  80.4152736  80.4815629
  96.4944374  74.3261520  87.3640872  97.2269546  73.7560736  87.5978701
  95.7383730  73.9383120  87.8047377  85.7688953  77.2878614  80.8557525
  85.6525211  76.6123517  81.5238609  85.8791213  76.8010988  80.0389678
  88.1120494  76.7488761  84.5604214  87.7478701  76.2219382  85.2717136
  88.9687610  76.3587230  84.3870700  94.0169794  68.0383094  91.8235480
  93.6853119  68.9078505  91.5996695  93.4215408  67.7219378  92.5029511
  87.7525981  71.7778661  79.5565563  87.9200383  72.6458897  79.9236034
  87.5623150  71.9405943  78.6326852  90.5101314  80.2395640  91.2231393
  90.2102037  81.1420679  91.1147200  90.1652374  79.9727823  92.0752546
  83.9613795  76.6909437  87.2568097  83.0364292  76.5585651  87.4645789
  84.2098209  77.4703656  87.7538040  93.9098458  72.7578180  88.9028830
  93.0015335  72.6893588  88.6087591  93.8586054  73.2350125  89.7310656
  87.7315202  74.2336318  80.5412229  87.6114827  74.6793369  81.3797710
  87.0367790  74.5821636  79.9825768  81.3222607  76.3342710  88.0911886
  81.4514988  76.5877189  89.0051298  80.6420058  76.9270418  87.7716542
  85.4922094  87.0039960  84.1902361  85.4146124  87.9547785  84.2690841
  84.8883737  86.6585833  84.8477287  87.9839324  74.1767825  96.8463728
  87.2072658  74.7361746  96.8366592  88.6229887  74.6624608  97.3678598
  95.7760104  70.9594618  90.6806704  95.1334484  71.2527151  90.0346499
  95.2715033  70.8447539  91.4859901  93.4300268  74.7057791  81.3692564
  94.3418124  74.9385178  81.1940261  92.9209915  75.2894836  80.8067642
  86.2385696  76.9853279  96.4081695  86.9800380  77.5238323  96.1316518
  85.5322681  77.6119568  96.5653246  91.7141036  79.1282419  95.0053856
  92.1224392  78.6864830  94.2608488  90.9918297  78.5535047  95.2588049
  88.0672106  74.0655026  92.3787413  88.9133301  74.4894440  92.5222062
  88.0070743  73.4088650  93.0725976  92.0369850  79.6883610  88.7606145
  91.4078713  79.8529324  88.0582213  91.6495512  80.1025219  89.5317109
  95.9159082  80.6238048  86.1150509  95.2310120  81.0036949  85.5647542
  96.0002931  81.2333374  86.8482456  91.2171551  71.7259394  94.0368587
  90.9732483  72.4801455  93.5002862  91.4931481  72.1044742  94.8715834
  93.1710014  78.2698007  92.7145852  93.3826909  78.9129767  92.0380233
  93.1239762  77.4360323  92.2467782  90.7736243  70.8815827  89.6182424
  89.9120722  71.1797081  89.9099162  90.7998677  71.0986226  88.6863457
  87.5897812  79.4258018  86.0256230  88.0536158  79.7045721  85.2360853
  87.3254610  78.5241463  85.8429321  84.4821893  78.9729500  88.9635993
  85.0523250  79.4016768  88.3253478  85.0730005  78.6912084  89.6620179
  86.5266698  75.5481170  82.8345795  87.2290741  76.0002214  83.3019722
  86.1947327  74.9064989  83.4625688  84.9747060  74.1392927  97.2097005
  84.3445720  74.8209208  97.4432401  84.8683148  74.0276009  96.2650143
  80.2692032  73.8064723  88.1362929  79.4791086  74.0622252  87.6603039
  80.7603279  74.6213061  88.2414969  94.2855842  81.1469962  90.8868210
  95.1073285  80.7450150  90.6050891  94.2818244  81.0438196  91.8384325
  82.2206777  74.1709302  85.0946405  81.4237941  74.2827997  85.6129901
  81.9932370  74.5095955  84.2287296  88.0512445  80.6954006  93.0428920
  88.1156878  81.1574413  93.8787092  87.3423369  80.0651370  93.1711230
  78.5529735  74.0595214  90.5677920  78.8037773  74.9442223  90.8335496
  79.0889283  73.8799815  89.7953011 102.3761835  77.4908711  87.2353181
 101.6225543  76.9216109  87.0797185 102.5109376  77.4571375  88.1823816
  87.7660463  82.3622113  82.9107900  87.6306138  83.2073649  83.3392748
  88.3070275  82.5641391  82.1473834  84.2527802  68.4413693  99.5722256
  83.8594748  67.8879891 100.2469900  85.0693943  68.7524271  99.9628773
  81.2189860  79.8797551  83.4835826  81.7314381  80.6740801  83.6341390
  81.8712573  79.1823842  83.4169427  83.0284745  82.9963307  85.5658579
  83.2051373  83.9181272  85.3779563  83.8241578  82.6821727  85.9952958
  87.1695763  69.8571572  97.1642512  87.9105477  70.4578725  97.0846975
  87.4013686  69.1149210  96.6060555  82.3137101  75.0427939  95.4420742
  82.1990616  74.1413196  95.7427841  81.4581619  75.2891636  95.0905558
  89.3928939  82.9845680  97.0408242  88.9492793  82.1982058  96.7229147
  90.0546153  83.1724830  96.3752133  84.1516060  84.5141481  91.5668921
  84.7023485  84.3858544  90.7945915  83.3127536  84.8136370  91.2163814
  91.4910177  83.2648479  95.0689644  91.4728653  84.0857360  94.5769913
  92.4130097  83.1402555  95.2939785  87.9483231  80.7792609  95.9113152
  88.4811568  80.0180897  95.6812460  87.4197312  80.4866261  96.6537307
  91.1152926  65.8852675  91.4406794  90.7717196  66.7754317  91.3645904
  91.4831889  65.6954333  90.5776379  79.1838777  78.2086205  84.2595396
  80.0213999  78.6183214  84.0429104  79.3617045  77.2685648  84.2295590
  91.0803209  75.8761286  79.9479229  90.5649832  76.6465891  80.1867616
  90.8080517  75.2026422  80.5712290  88.6650320  70.7210987  85.0064467
  87.8091916  70.3317837  84.8270106  89.0777272  70.8002948  84.1464253
  90.1949467  68.2557330  89.4056027  89.6914262  68.2187465  88.5923832
  90.4880074  69.1650073  89.4652684  86.4392353  68.3396060  88.4122209
  87.3045349  68.1438868  88.0528098  86.5069861  68.1106412  89.3391566
  96.0537483  78.6293641  81.8832402  95.2766926  78.2904800  81.4387565
  96.7328964  78.6346264  81.2087368  90.8689512  73.7488378  81.7739010
  90.5639648  74.0634527  82.6249153  91.8219954  73.8269798  81.8166343
  89.3135944  79.9078601  83.4231964  88.7857306  79.1731361  83.1105202
  88.8123447  80.6853278  83.1771932  94.2928790  78.1027622  88.5399010
  93.6352464  78.7926883  88.6279139  95.0969189  78.4924054  88.8832997
  84.0454672  70.5698268  85.7838576  84.6198424  70.3473449  85.0511769
  84.6325654  70.6386962  86.5367177  93.1034249  76.4571995  86.5902952
  93.6166131  77.0901986  87.0924662  93.7535473  75.8573190  86.2246312
  84.3724259  72.6002729  79.8034461  83.5361571  72.9377415  80.1243736
  84.2329028  72.4651709  78.8661598  86.3477339  67.4439517  84.5113645
  85.6941752  67.1288534  83.8870260  86.3057813  66.8215257  85.2373468
  87.4588544  77.7258812  76.4266937  86.5515606  77.4948065  76.6258086
  87.9559576  76.9296431  76.6140919  90.3656623  86.4356319  79.3463623
  89.6918322  86.7388016  79.9548581  90.7522445  87.2385399  78.9969080
  89.5815080  73.9321450  88.8361293  88.6637641  74.1536397  88.6782981
  89.9975223  74.0067761  87.9773000  90.3650127  75.3312866  83.9663973
  91.1121946  75.8434263  83.6571095  90.6341717  75.0096919  84.8268367
  88.6376778  77.8271407  80.9490927  87.7287997  77.5430439  81.0463397
  88.6671861  78.2470485  80.0894234  93.8696045  81.4377996  84.7182095
  93.4158372  80.5968906  84.7747285  93.2390012  82.0739394  85.0556875
  92.8128965  72.3669982  85.9482762  92.0751721  71.8547368  86.2793005
  93.0655738  71.9270364  85.1366039  92.3128984  83.2754493  85.6531913
  92.6051959  83.8359550  84.9344279  92.8227605  83.5683054  86.4085072
  92.9140592  65.1446234  86.5424532  93.2199469  64.2843598  86.2550447
  93.6393197  65.7363854  86.3423525  79.2064948  75.5476921  84.9306129
  79.0089348  74.9546281  84.2057196  78.6511612  75.2429131  85.6482068
  87.1861672  75.4400027  87.0500723  87.2410281  74.4873864  86.9743199
  86.3752874  75.5959466  87.5342021  88.3352865  79.3680150  78.2879006
  87.8972295  78.6516009  77.8284643  89.0763306  79.5956265  77.7264097
  85.1254032  74.0577087  84.8091101  84.3121897  74.3571257  85.2156294
  85.6213026  73.6632776  85.5265584  87.2762609  84.0534844  86.7425366
  87.2338788  84.2795690  85.8133898  88.1925308  83.8198218  86.8911167
  90.7228243  74.5218911  93.6405995  91.0777631  74.7490385  94.5000461
  91.3700375  74.8537288  93.0183251  96.4525980  77.6437347  84.3455324
  96.3143879  77.8338943  83.4176514  96.0962199  78.4056730  84.8023376
  84.6168106  71.6295442  90.4252336  85.2567486  71.4884202  89.7275300
  83.7845637  71.3429956  90.0490938  96.4795360  79.7113874  89.3566596
  96.9131867  79.6189163  90.2049650  97.1926941  79.6871375  88.7186612
  85.3928410  80.9297873  86.5387329  86.1869009  80.4348193  86.3369904
  84.6820103  80.4015736  86.1755034  90.2123255  83.3115968  90.8899697
  90.2660277  83.8806905  91.6577412  89.3438036  83.4817853  90.5253734
  81.7011174  75.0740955  82.6147082  80.7708762  75.0125410  82.8317044
  81.7968646  74.5516907  81.8183723  81.6196723  71.5995767  85.2025323
  81.8803540  72.5141101  85.0934484  82.4413895  71.1320210  85.3521936
  83.0921648  73.0133525  92.3724148  83.7644702  72.8050887  91.7236797
  82.2651435  72.8155611  91.9329380  97.3410909  79.7537575  91.8899481
  97.5346799  80.6583385  92.1358756  97.2411528  79.2944994  92.7238066
  88.9947220  69.6395465  94.3889809  88.3475135  70.3385415  94.2954285
  89.7648236  70.0731609  94.7566057  92.4026018  79.9044318  97.4640362
  92.2511524  79.6754869  96.5470446  92.3930698  80.8614919  97.4771707
  89.1711354  77.4776230  92.4486628  90.1003414  77.6287390  92.2755596
  88.7502385  77.5660251  91.5935275  87.9699686  81.5026895  90.2185166
  87.8310772  81.1345679  91.0911104  87.1814282  82.0174534  90.0469124
  88.5647838  86.6035991  81.5610703  88.7399594  86.1324034  82.3756325
  87.8780626  87.2301757  81.7891963  89.5204901  80.8808498  87.6074004
  89.1854734  80.8409267  88.5031654  89.0208847  80.2153213  87.1344414
  83.4949145  76.2876128  93.1326585  83.3568943  75.5556366  93.7338124
  84.4054069  76.1985028  92.8510773  92.4564093  78.2264532  77.8811063
  91.8393264  77.5011360  77.7844116  91.9880582  78.9873892  77.5378138
  86.1231446  75.9996087  92.6210265  86.8331065  75.3589279  92.5796883
  86.0800754  76.2508982  93.5436445  94.1118225  82.9363440  95.5416844
  94.0530771  82.2522660  94.8747427  94.5137743  83.6782430  95.0897470
  84.8360380  72.9861305  94.4405904  84.2997737  72.5352043  95.0927500
  84.2477088  73.1207214  93.6976368  83.1308924  89.7525354  88.3350563
  83.3705522  90.3843878  89.0129581  82.2878120  89.4013394  88.6215922
  84.2462639  72.4449956  77.0032368  83.3692105  72.3238757  76.6394614
  84.7220392  71.6536034  76.7511256  94.1135632  80.9003024  93.7730823
  93.2262411  80.5628946  93.8957222  94.6834183  80.1686055  94.0099589
  80.5699501  72.1217312  91.5258899  80.4857690  71.5142982  90.7909308
  79.7482208  72.6126331  91.5268395  87.6436785  85.5604476  90.7392067
  87.5706957  86.3659448  91.2511371  87.2014178  85.7596442  89.9140088
  87.4326565  84.7976247  84.2494888  86.6494087  85.3397927  84.3433113
  88.1319310  85.3150226  84.6489129  90.7423215  70.6070876  86.8929094
  91.2391915  69.8540838  86.5730164  89.9710197  70.6435193  86.3272303
  98.5952973  76.3111242  88.5347385  98.5842849  77.1935957  88.1641318
  97.7270352  75.9582792  88.3401922  90.1035469  85.4591311  92.8950225
  90.8163441  86.0938775  92.8226127  89.6125498  85.5555177  92.0790227
  91.8252996  79.3642563  84.4667517  90.8909275  79.4844026  84.2972221
  92.0029664  78.4615030  84.2027527  87.3258184  72.7488259  86.6200778
  86.9555971  72.1959299  87.3081684  87.8217276  72.1446392  86.0675778
  95.2125547  75.2059882  85.0017551  95.6785999  76.0387874  84.9277854
  95.6633048  74.7404864  85.7062810  85.1547382  83.2085754  93.7155796
  85.8556842  83.8422237  93.8685190  84.6842497  83.5500486  92.9551435
  93.2801778  81.5503704  82.0003703  93.5561622  81.4360298  82.9097577
  92.4106277  81.1521189  81.9615876  93.1842210  67.5740469  89.0408452
  92.2705290  67.8044696  89.2090659  93.6135311  67.6578914  89.8922485
  92.9548668  75.7630361  91.5408347  92.3020119  76.0106269  90.8860799
  93.3329048  74.9494500  91.2070824  89.9155842  85.7990055  85.6436517
  90.0978237  84.9811711  86.1064269  90.7388828  86.0157747  85.2061407
  90.2498008  84.7258240  82.9051565  90.7785774  84.2150694  82.2921727
  90.5126227  84.4100770  83.7697098  89.0036241  76.5050172  98.0274384
  88.3276878  76.4044302  98.6976759  89.8263875  76.3489386  98.4910381
  80.7515101  82.7422109  90.6486899  81.3368537  81.9965797  90.7814803
  80.5539939  83.0526066  91.5323563  83.6053756  85.7773356  85.6649341
  82.9364131  86.2619484  85.1813381  83.4666625  86.0242577  86.5792720
  87.7459024  87.8117100  92.2632000  88.2977332  87.9748721  93.0281085
  88.0865218  88.4021538  91.5912024  82.7223518  70.1592250  92.8653884
  82.7864844  71.0207081  92.4531282  82.6590638  69.5466251  92.1326243
  82.1975790  72.2315382  96.5126919  82.8247829  71.8492460  97.1264443
  81.3403709  72.0129584  96.8782611  92.5969899  82.6378357  98.1180654
  93.1409803  83.2508316  97.6235609  92.0156743  83.1957936  98.6347667
  78.9741333  74.0391811  82.4445273  79.2694774  73.1302490  82.3912327
  78.0729369  74.0179551  82.1226276  90.8827412  85.7599075  89.2495682
  90.7578551  84.9588815  88.7406627  91.5406503  86.2545269  88.7609652
  82.5035580  72.1147808  88.4272822  81.7822166  72.7283776  88.2880295
  83.2928836  72.6505573  88.3489468  92.9462320  83.5608096  90.8775232
  91.9992656  83.4413447  90.8053559  93.2945093  82.6730594  90.9601493
  85.3061893  69.4502234  94.7013474  85.8296295  69.6964531  95.4639783
  85.0874227  70.2822269  94.2816611  80.7029174  71.7205909  82.5684599
  80.3741881  70.8403288  82.3859704  81.0568545  71.6653578  83.4560988
  89.9508753  83.3560812  87.0779584  89.8033716  82.4277519  87.2587154
  90.7762247  83.3780902  86.5936659  83.8170998  72.0078879  82.9360076
  84.1567070  72.5364800  82.2138685  84.2643118  72.3459285  83.7118643
  93.5542875  84.1789371  88.1644457  94.4789423  83.9732232  88.0268908
  93.3858178  83.9305772  89.0733798  86.5114438  70.3915930  92.3863144
  86.1711259  69.5923743  92.7883824  85.8053445  70.6917640  91.8139977
  87.1630910  67.4765242  90.8390467  87.9856980  67.0025720  90.7169358
  87.4068974  68.2555726  91.3389154  85.8039145  70.5053500  81.1353369
  86.5247507  70.8834753  80.6317086  85.1804449  71.2242377  81.2388347
  89.9470268  71.2098649  82.0711701  90.1633882  72.0923287  81.7700529
  89.4664335  70.8184863  81.3417343  84.6869489  74.1684363  88.6482446
  84.5414070  74.4824666  89.5406727  84.2094693  74.7869263  88.0953345
  86.5465872  71.1586911  88.6963335  86.5327441  70.2628004  88.3595633
  87.2638300  71.1657574  89.3301621  88.3992003  71.5924251  90.7416463
  88.1409780  72.5141321  90.7400793  87.8677043  71.1954685  91.4316927
  93.3438191  84.6975038  83.5206548  93.5175069  84.1321460  82.7680401
  93.8367083  85.4975933  83.3386038  79.1615151  76.7089707  91.5870107
  78.6168619  77.4849515  91.7190381  80.0394501  77.0560512  91.4289229
  85.9502768  70.0401291  83.9650906  86.0718679  69.1117937  84.1641793
  85.6604810  70.0539977  83.0529221  88.8193958  67.7256201  87.1017625
  88.8415655  67.7895534  86.1469605  89.2362017  66.8860710  87.2958132
  99.1977582  77.4611461  85.1396848  99.6408729  76.7118786  84.7415971
  98.3204093  77.4521597  84.7570580  94.3313364  84.0141802  80.6203447
  95.0264268  84.6348495  80.8390761  94.6736514  83.1637154  80.8955824
  79.9481173  75.8359603  94.4800264  79.2062909  75.9842239  95.0664894
  79.6273917  76.0967869  93.6167013  96.2304787  81.4641508  82.1490777
  96.7556111  81.8028781  81.4240097  96.1427139  80.5288523  81.9653912
  87.8924836  85.3775582  94.2780654  88.2011962  85.1324728  95.1503354
  88.6900318  85.5822220  93.7899524  87.9145448  87.5313491  86.5086030
  87.4750438  87.0389870  87.2018887  88.6653565  86.9886459  86.2678106
  80.3937787  83.7225032  86.5110659  81.2195807  83.4228804  86.1309302
  80.0431839  82.9532654  86.9600447  85.3619320  83.0751500  88.5808332
  84.7399329  82.4122205  88.2810560  86.0324187  83.1012632  87.8981980
  78.5946392  81.6411358  87.4699592  77.7578300  81.2133533  87.2883593
  78.5670037  81.8343802  88.4070383  85.4343847  71.5533288  98.1740838
  85.4832003  72.4295411  97.7918608  85.9766362  71.0110681  97.6012481
  95.9198693  82.0974412  97.4541975  95.1294237  82.0798550  96.9146475
  95.6832048  82.6362705  98.2091012  96.0396568  78.9466878  94.7674704
  96.0894573  78.7816885  95.7090227  95.9310491  78.0794137  94.3772585
  84.9232827  81.6255424  82.0566793  85.0720947  82.3090888  81.4033465
  85.7299270  81.6060514  82.5716248  93.3300330  74.9297806  96.0834011
  94.2310193  74.7904271  95.7918008  93.4048305  75.0952261  97.0232188
  87.6643136  72.3064661  94.9287197  86.7946445  72.5998227  94.6569785
  87.9002616  72.8905106  95.6494460  97.5414765  81.3663819  95.0116725
  97.2499573  81.7293800  95.8480186  96.9286896  80.6530828  94.8330057
  98.7410447  78.9316699  87.5319296  99.5757339  79.3706503  87.6956856
  98.8769576  78.4555352  86.7127541  95.7901953  76.4896434  93.4796783
  96.2656075  76.6824080  92.6715635  94.8667518  76.5455620  93.2340167
  82.6785460  77.6520601  83.0627862  82.4331502  76.7482931  83.2608072
  82.8481374  77.6537752  82.1207340  90.3682170  68.5244278  92.4452617
  90.8864113  69.2605305  92.1199106  90.0137302  68.8308271  93.2799376
  81.9481107  73.3848959  80.5614023  81.2550352  73.4593314  79.9054059
  81.7032859  72.6209302  81.0835540  90.6194764  64.9444560  87.9653514
  90.8996518  64.2767749  88.5913940  91.4045371  65.1373656  87.4528178
  88.4228232  84.1203554  79.5278540  87.8502199  84.7393741  79.0749012
  88.9961026  84.6702916  80.0618462  94.4903622  73.3662194  91.7125089
  95.4421045  73.4660292  91.7337313  94.3207073  72.5740463  92.2223173
  92.5118002  70.4517777  91.8984490  91.9167934  70.7322790  91.2030978
  92.2267698  70.9411678  92.6701231  91.6425492  84.4040704  80.6587122
  92.5756165  84.3386266  80.8619998  91.5548705  85.2396971  80.2001655
  94.2713509  83.7206575  77.6191070  94.1927140  83.3866438  78.5126828
  95.0923176  84.2128342  77.6182542  96.9691700  76.5868314  90.8267389
  96.9368020  75.6484315  91.0127072  97.5792324  76.6652351  90.0933213
  88.8075031  75.4564367  76.8694593  89.7534135  75.3270575  76.9383011
  88.4289276  74.7179029  77.3464021  97.1186188  73.3779357  90.8725672
  96.6025237  72.5937814  90.6855601  98.0026137  73.0498074  91.0372191
  94.7796915  67.1220373  86.8321484  94.5821736  66.8135461  87.7164816
  95.3896621  67.8482012  86.9619414 102.7868250  77.6484321  89.9673425
 103.5171638  77.3869609  90.5281129 102.1775195  76.9113043  90.0075493
 100.8683547  75.7892183  90.5647877 100.1416710  75.6548148  89.9564368
 100.4530834  76.0969012  91.3704595  88.6913723  79.5082113  98.3295250
  89.6116733  79.6860712  98.5235296  88.6563306  78.5638158  98.1774949
  86.9917948  73.3814343  76.8049478  86.0849403  73.0847456  76.8812191
  87.2693929  73.0844161  75.9383764  81.6875796  77.4183148  90.9718031
  81.9061806  78.3500255  90.9906065  82.1001570  77.0591122  91.7572835
  88.6080014  67.9251233  82.9593719  87.7980742  67.5798318  83.3348965
  89.2964431  67.6158777  83.5481331  90.5370562  67.0029280  84.5818016
  91.0901601  67.4224733  85.2408039  90.7740648  66.0765028  84.6240972
  86.5603661  72.9916353 100.3620780  86.4600388  73.9410710 100.2932871
  86.3425203  72.6634592  99.4896850  85.7616733  70.2401278  76.9461457
  86.6235897  70.5656177  77.2057274  85.9467077  69.4532774  76.4334523
  77.7784148  78.3223618  89.2241646  77.0847620  77.9077571  88.7111600
  78.5257139  78.3644155  88.6275065  93.9149369  69.1129805  84.0896680
  93.3348038  69.7714609  83.7074732  93.6485302  68.2907149  83.6784098
  92.3652935  68.5134863  86.2918000  92.8652714  68.6251397  85.4832319
  93.0088543  68.2095915  86.9318809  86.4234931  76.4213492  99.1785841
  85.9402013  77.2213852  99.3849730  86.5095870  76.4321437  98.2253285
  79.6920891  78.2541872  87.1007661  79.6691579  78.3529559  86.1489544
  80.0021527  79.1007023  87.4224827  82.3508269  80.3118027  91.2154275
  83.3051522  80.2801969  91.1484207  82.1520792  79.8508651  92.0304501
  82.9407651  78.8819143  93.7825073  83.7600540  79.3763222  93.8059910
  83.2144459  77.9651111  93.7542640  92.6974247  71.2729895  83.1453028
  91.8100102  71.5579546  82.9273223  93.1128236  71.1123659  82.2980305
  96.0488783  71.2976416  86.8607368  96.8249173  71.7872869  87.1331984
  95.3236917  71.7234470  87.3179237  98.4861342  72.0104035  87.9181308
  99.0805833  71.7699771  87.2074616  98.5587926  71.2911166  88.5454844
  80.7058497  85.8537646  88.2324473  80.5712965  85.0938047  87.6662471
  80.2890560  86.5778546  87.7653262  91.8417461  81.0374570  77.2401048
  92.5453311  81.2424572  77.8558704  91.1180109  81.6051332  77.5050132
  92.6715271  76.7884431  83.3603318  92.6150472  77.2452983  82.5210951
  93.2243613  76.0275116  83.1826161  96.4820077  72.5774163  84.1853438
  96.2257011  72.1770799  85.0161646  95.8572945  73.2917957  84.0603577
 100.7932415  75.3170236  86.6924729 100.2331973  75.3863426  87.4656291
 100.1875918  75.1411221  85.9724226  83.8627623  86.7506963  88.4442916
  83.7460008  87.6952396  88.3421606  83.0420070  86.4480525  88.8328715
  93.7504158  81.4757099  79.2899508  94.5849762  81.0438298  79.1076983
  93.5888501  81.3039113  80.2176403  93.4050050  77.9789212  80.6555848
  93.3498854  77.8133484  79.7144292  92.7796105  78.6865245  80.8118037
  78.1942565  73.2157277  94.4817270  78.8401429  72.7056231  94.9704495
  77.9859716  73.9525958  95.0560695  90.7195957  80.2838124  99.9809410
  91.5887117  80.4578777  99.6196045  90.2402709  81.1032541  99.8585140
  86.7146176  67.4797321  80.2341166  86.7024845  68.4239161  80.3909437
  87.6069597  67.2967467  79.9400627  84.8882137  87.4035225  91.6598844
  85.7909384  87.4358836  91.9765339  84.6619508  86.4735676  91.6745180
  86.6435740  86.1566212  88.3208923  85.6931371  86.1568073  88.2073295
  86.9468226  85.4098946  87.8044957  90.5298295  64.0740098  84.4887103
  89.7630691  63.5198585  84.6343785  90.9409000  64.1461967  85.3501254
  82.5340056  70.3624894  98.5792284  83.3971518  70.0061699  98.7895609
  81.9605467  70.0238789  99.2667688 102.3788433  91.9926750  89.3854685
 103.0166843  91.8733498  88.6818025 102.2609276  92.9407594  89.4442637
  99.1878139  91.9454178  89.3216210  98.8496651  91.8295243  88.4336745
 100.0567907  91.5445343  89.3017216  95.0464955  93.7989655  85.3113101
  94.4829820  93.7079592  84.5429389  94.9317350  92.9789559  85.7915593
  99.6697922  93.0989030  95.2802415  99.6586563  92.7041828  94.4082919
  99.8318562  92.3655103  95.8736187  92.5929387  95.2940846  88.1497321
  93.3850679  94.9531671  87.7343621  92.8326037  95.4035821  89.0699475
 100.6264514  97.4660622  80.6227566  99.9752493  98.0514703  80.2361579
 101.4208876  97.9966817  80.6822603  94.5520141  94.5549760  81.0214700
  95.3251017  94.0078747  80.8827576  94.9045540  95.4194009  81.2329161
  96.3905183  95.8826142  94.2281599  96.0995049  96.7871773  94.1128266
  97.0262168  95.9242669  94.9425669  97.3161390  93.2602990  90.8182959
  97.9124963  93.0359013  90.1039922  97.3736362  92.5187736  91.4208407
  96.8886419  90.7142426  78.6533150  97.1411939  90.1923947  77.8916613
  95.9510978  90.5508571  78.7559834 101.9329701  89.7178204  86.4607893
 102.7192791  89.2997627  86.1098310 102.1968406  90.6224296  86.6289542
 102.1039779  95.1551054  81.1596550 101.4685612  95.2285681  81.8717455
 101.7737185  95.7444653  80.4815629 107.3338129  89.6553437  87.3640872
 108.0663301  89.0852654  87.5978701 106.5777484  89.2675038  87.8047377
  96.6082707  92.6170532  80.8557525  96.4918966  91.9415435  81.5238609
  96.7184967  92.1302906  80.0389678  98.9514248  92.0780679  84.5604214
  98.5872456  91.5511300  85.2717136  99.8081364  91.6879148  84.3870700
 104.8563549  83.3675011  91.8235480 104.5246874  84.2370422  91.5996695
 104.2609162  83.0511295  92.5029511  98.5919735  87.1070578  79.5565563
  98.7594138  87.9750815  79.9236034  98.4016904  87.2697860  78.6326852
 101.3495068  95.5687557  91.2231393 101.0495792  96.4712596  91.1147200
 101.0046128  95.3019741  92.0752546  94.8007550  92.0201354  87.2568097
  93.8758046  91.8877568  87.4645789  95.0491963  92.7995573  87.7538040
 104.7492212  88.0870098  88.9028830 103.8409090  88.0185506  88.6087591
 104.6979808  88.5642043  89.7310656  98.5708956  89.5628236  80.5412229
  98.4508581  90.0085287  81.3797710  97.8761545  89.9113554  79.9825768
  92.1616361  91.6634628  88.0911886  92.2908742  91.9169107  89.0051298
  91.4813812  92.2562336  87.7716542  96.3315848 102.3331878  84.1902361
  96.2539878 103.2839703  84.2690841  95.7277492 101.9877750  84.8477287
  98.8233078  89.5059743  96.8463728  98.0466412  90.0653663  96.8366592
  99.4623641  89.9916526  97.3678598 106.6153859  86.2886536  90.6806704
 105.9728239  86.5819069  90.0346499 106.1108787  86.1739456  91.4859901
 104.2694022  90.0349709  81.3692564 105.1811878  90.2677096  81.1940261
 103.7603669  90.6186753  80.8067642  97.0779450  92.3145197  96.4081695
  97.8194135  92.8530240  96.1316518  96.3716436  92.9411485  96.5653246
 102.5534790  94.4574337  95.0053856 102.9618146  94.0156748  94.2608488
 101.8312052  93.8826965  95.2588049  98.9065860  89.3946944  92.3787413
  99.7527055  89.8186357  92.5222062  98.8464498  88.7380568  93.0725976
 102.8763605  95.0175528  88.7606145 102.2472467  95.1821242  88.0582213
 102.4889267  95.4317137  89.5317109 106.7552837  95.9529965  86.1150509
 106.0703875  96.3328867  85.5647542 106.8396686  96.5625292  86.8482456
 102.0565305  87.0551312  94.0368587 101.8126237  87.8093373  93.5002862
 102.3325236  87.4336660  94.8715834 104.0103768  93.5989924  92.7145852
 104.2220663  94.2421684  92.0380233 103.9633516  92.7652241  92.2467782
 101.6129997  86.2107745  89.6182424 100.7514476  86.5088999  89.9099162
 101.6392432  86.4278144  88.6863457  98.4291567  94.7549936  86.0256230
  98.8929912  95.0337639  85.2360853  98.1648365  93.8533380  85.8429321
  95.3215648  94.3021417  88.9635993  95.8917005  94.7308686  88.3253478
  95.9123759  94.0204002  89.6620179  97.3660453  90.8773088  82.8345795
  98.0684496  91.3294132  83.3019722  97.0341081  90.2356907  83.4625688
  95.8140814  89.4684845  97.2097005  95.1839475  90.1501126  97.4432401
  95.7076902  89.3567926  96.2650143  91.1085787  89.1356641  88.1362929
  90.3184841  89.3914169  87.6603039  91.5997034  89.9504979  88.2414969
 105.1249596  96.4761880  90.8868210 105.9467040  96.0742067  90.6050891
 105.1211999  96.3730114  91.8384325  93.0600532  89.5001220  85.0946405
  92.2631695  89.6119914  85.6129901  92.8326124  89.8387872  84.2287296
  98.8906200  96.0245923  93.0428920  98.9550632  96.4866330  93.8787092
  98.1817123  95.3943288  93.1711230  89.3923490  89.3887131  90.5677920
  89.6431528  90.2734141  90.8335496  89.9283038  89.2091733  89.7953011
 113.2155589  92.8200628  87.2353181 112.4619298  92.2508026  87.0797185
 113.3503130  92.7863293  88.1823816  98.6054217  97.6914031  82.9107900
  98.4699892  98.5365566  83.3392748  99.1464030  97.8933308  82.1473834
  95.0921557  83.7705611  99.5722256  94.6988502  83.2171809 100.2469900
  95.9087697  84.0816189  99.9628773  92.0583615  95.2089469  83.4835826
  92.5708135  96.0032719  83.6341390  92.7106327  94.5115759  83.4169427
  93.8678499  98.3255225  85.5658579  94.0445128  99.2473190  85.3779563
  94.6635333  98.0113644  85.9952958  98.0089518  85.1863490  97.1642512
  98.7499231  85.7870643  97.0846975  98.2407441  84.4441127  96.6060555
  93.1530856  90.3719857  95.4420742  93.0384371  89.4705114  95.7427841
  92.2975374  90.6183554  95.0905558 100.2322694  98.3137597  97.0408242
  99.7886548  97.5273976  96.7229147 100.8939907  98.5016748  96.3752133
  94.9909815  99.8433399  91.5668921  95.5417240  99.7150462  90.7945915
  94.1521291 100.1428288  91.2163814 102.3303932  98.5940397  95.0689644
 102.3122407  99.4149278  94.5769913 103.2523852  98.4694472  95.2939785
  98.7876986  96.1084527  95.9113152  99.3205323  95.3472815  95.6812460
  98.2591067  95.8158178  96.6537307 101.9546681  81.2144593  91.4406794
 101.6110950  82.1046234  91.3645904 102.3225643  81.0246250  90.5776379
  90.0232531  93.5378123  84.2595396  90.8607753  93.9475131  84.0429104
  90.2010799  92.5977565  84.2295590 101.9196964  91.2053204  79.9479229
 101.4043587  91.9757808  80.1867616 101.6474272  90.5318340  80.5712290
  99.5044075  86.0502904  85.0064467  98.6485671  85.6609755  84.8270106
  99.9171026  86.1294865  84.1464253 101.0343221  83.5849248  89.4056027
 100.5308017  83.5479383  88.5923832 101.3273828  84.4941990  89.4652684
  97.2786107  83.6687977  88.4122209  98.1439104  83.4730786  88.0528098
  97.3463616  83.4398329  89.3391566 106.8931238  93.9585558  81.8832402
 106.1160680  93.6196718  81.4387565 107.5722719  93.9638181  81.2087368
 101.7083267  89.0780296  81.7739010 101.4033402  89.3926445  82.6249153
 102.6613709  89.1561716  81.8166343 100.1529699  95.2370519  83.4231964
  99.6251060  94.5023279  83.1105202  99.6517201  96.0145195  83.1771932
 105.1322545  93.4319540  88.5399010 104.4746219  94.1218801  88.6279139
 105.9362944  93.8215972  88.8832997  94.8848426  85.8990185  85.7838576
  95.4592178  85.6765367  85.0511769  95.4719409  85.9678880  86.5367177
 103.9428003  91.7863912  86.5902952 104.4559885  92.4193904  87.0924662
 104.5929227  91.1865108  86.2246312  95.2118013  87.9294646  79.8034461
  94.3755325  88.2669333  80.1243736  95.0722783  87.7943626  78.8661598
  97.1871094  82.7731434  84.5113645  96.5335506  82.4580451  83.8870260
  97.1451568  82.1507175  85.2373468  98.2982299  93.0550729  76.4266937
  97.3909360  92.8239983  76.6258086  98.7953331  92.2588349  76.6140919
 101.2050378 101.7648237  79.3463623 100.5312076 102.0679933  79.9548581
 101.5916200 102.5677317  78.9969080 100.4208834  89.2613368  88.8361293
  99.5031396  89.4828315  88.6782981 100.8368978  89.3359678  87.9773000
 101.2043882  90.6604783  83.9663973 101.9515701  91.1726181  83.6571095
 101.4735472  90.3388836  84.8268367  99.4770532  93.1563324  80.9490927
  98.5681751  92.8722357  81.0463397  99.5065616  93.5762403  80.0894234
 104.7089800  96.7669914  84.7182095 104.2552127  95.9260824  84.7747285
 104.0783766  97.4031312  85.0556875 103.6522719  87.6961900  85.9482762
 102.9145476  87.1839286  86.2793005 103.9049493  87.2562281  85.1366039
 103.1522739  98.6046410  85.6531913 103.4445713  99.1651468  84.9344279
 103.6621359  98.8974971  86.4085072 103.7534346  80.4738152  86.5424532
 104.0593223  79.6135515  86.2550447 104.4786951  81.0655772  86.3423525
  90.0458703  90.8768838  84.9306129  89.8483102  90.2838199  84.2057196
  89.4905367  90.5721049  85.6482068  98.0255426  90.7691945  87.0500723
  98.0804036  89.8165781  86.9743199  97.2146628  90.9251384  87.5342021
  99.1746620  94.6972068  78.2879006  98.7366050  93.9807927  77.8284643
  99.9157061  94.9248183  77.7264097  95.9647786  89.3869005  84.8091101
  95.1515652  89.6863175  85.2156294  96.4606780  88.9924693  85.5265584
  98.1156364  99.3826761  86.7425366  98.0732543  99.6087608  85.8133898
  99.0319063  99.1490136  86.8911167 101.5621998  89.8510829  93.6405995
 101.9171386  90.0782302  94.5000461 102.2094129  90.1829206  93.0183251
 107.2919735  92.9729265  84.3455324 107.1537633  93.1630861  83.4176514
 106.9355954  93.7348648  84.8023376  95.4561861  86.9587360  90.4252336
  96.0961240  86.8176119  89.7275300  94.6239391  86.6721873  90.0490938
 107.3189114  95.0405792  89.3566596 107.7525621  94.9481081  90.2049650
 108.0320695  95.0163292  88.7186612  96.2322165  96.2589791  86.5387329
  97.0262763  95.7640111  86.3369904  95.5213857  95.7307654  86.1755034
 101.0517009  98.6407886  90.8899697 101.1054032  99.2098822  91.6577412
 100.1831791  98.8109771  90.5253734  92.5404928  90.4032872  82.6147082
  91.6102516  90.3417328  82.8317044  92.6362400  89.8808825  81.8183723
  92.4590477  86.9287685  85.2025323  92.7197295  87.8433018  85.0934484
  93.2807650  86.4612128  85.3521936  93.9315403  88.3425442  92.3724148
  94.6038456  88.1342804  91.7236797  93.1045189  88.1447528  91.9329380
 108.1804664  95.0829493  91.8899481 108.3740554  95.9875303  92.1358756
 108.0805282  94.6236912  92.7238066  99.8340975  84.9687383  94.3889809
  99.1868890  85.6677333  94.2954285 100.6041990  85.4023527  94.7566057
 103.2419773  95.2336235  97.4640362 103.0905279  95.0046787  96.5470446
 103.2324452  96.1906837  97.4771707 100.0105109  92.8068148  92.4486628
 100.9397169  92.9579308  92.2755596  99.5896139  92.8952169  91.5935275
  98.8093441  96.8318813  90.2185166  98.6704526  96.4637597  91.0911104
  98.0208037  97.3466452  90.0469124  99.4041593 101.9327909  81.5610703
  99.5793348 101.4615952  82.3756325  98.7174381 102.5593675  81.7891963
 100.3598656  96.2100415  87.6074004 100.0248489  96.1701185  88.5031654
  99.8602602  95.5445131  87.1344414  94.3342900  91.6168045  93.1326585
  94.1962698  90.8848284  93.7338124  95.2447823  91.5276945  92.8510773
 103.2957848  93.5556450  77.8811063 102.6787018  92.8303278  77.7844116
 102.8274336  94.3165810  77.5378138  96.9625201  91.3288005  92.6210265
  97.6724819  90.6881197  92.5796883  96.9194509  91.5800899  93.5436445
 104.9511979  98.2655358  95.5416844 104.8924525  97.5814578  94.8747427
 105.3531498  99.0074348  95.0897470  95.6754135  88.3153222  94.4405904
  95.1391492  87.8643961  95.0927500  95.0870843  88.4499131  93.6976368
  93.9702678 105.0817272  88.3350563  94.2099276 105.7135796  89.0129581
  93.1271874 104.7305312  88.6215922  95.0856393  87.7741874  77.0032368
  94.2085860  87.6530675  76.6394614  95.5614147  86.9827952  76.7511256
 104.9529386  96.2294942  93.7730823 104.0656165  95.8920864  93.8957222
 105.5227938  95.4977973  94.0099589  86.6058534  92.5619034  87.0973875
  87.2929573  92.2480764  86.5094890  86.4506662  93.4660398  86.8241126
  91.4093256  87.4509230  91.5258899  91.3251444  86.8434900  90.7909308
  90.5875962  87.9418248  91.5268395  98.4830540 100.8896394  90.7392067
  98.4100711 101.6951366  91.2511371  98.0407933 101.0888360  89.9140088
  98.2720319 100.1268164  84.2494888  97.4887841 100.6689844  84.3433113
  98.9713065 100.6442144  84.6489129 101.5816970  85.9362794  86.8929094
 102.0785669  85.1832756  86.5730164 100.8103951  85.9727110  86.3272303
 109.4346727  91.6403159  88.5347385 109.4236603  92.5227875  88.1641318
 108.5664106  91.2874710  88.3401922 100.9429223 100.7883228  92.8950225
 101.6557196 101.4230693  92.8226127 100.4519252 100.8847094  92.0790227
 102.6646750  94.6934481  84.4667517 101.7303029  94.8135943  84.2972221
 102.8423419  93.7906948  84.2027527  98.1651938  88.0780177  86.6200778
  97.7949726  87.5251217  87.3081684  98.6611031  87.4738310  86.0675778
 106.0519302  90.5351800  85.0017551 106.5179754  91.3679792  84.9277854
 106.5026802  90.0696782  85.7062810  95.9941137  98.5377672  93.7155796
  96.6950596  99.1714155  93.8685190  95.5236252  98.8792403  92.9551435
 104.1195533  96.8795621  82.0003703 104.3955377  96.7652216  82.9097577
 103.2500031  96.4813106  81.9615876 104.0235964  82.9032387  89.0408452
 103.1099044  83.1336614  89.2090659 104.4529066  82.9870831  89.8922485
 103.7942423  91.0922279  91.5408347 103.1413873  91.3398187  90.8860799
 104.1722803  90.2786417  91.2070824 100.7549597 101.1281972  85.6436517
 100.9371991 100.3103628  86.1064269 101.5782583 101.3449665  85.2061407
 101.0891762 100.0550157  82.9051565 101.6179529  99.5442612  82.2921727
 101.3519982  99.7392688  83.7697098  99.8429996  91.8342090  98.0274384
  99.1670633  91.7336220  98.6976759 100.6657630  91.6781304  98.4910381
  91.5908855  98.0714027  90.6486899  92.1762292  97.3257715  90.7814803
  91.3933693  98.3817983  91.5323563  94.4447510 101.1065274  85.6649341
  93.7757885 101.5911402  85.1813381  94.3060380 101.3534495  86.5792720
  86.1826510  90.6419627  89.3691342  86.2210609  90.1083218  90.1628460
  85.6766803  90.1154832  88.7502319  98.5852779 103.1409018  92.2632000
  99.1371087 103.3040639  93.0281085  98.9258972 103.7313455  91.5912024
  93.5617272  85.4884167  92.8653884  93.6258599  86.3498998  92.4531282
  93.4984392  84.8758169  92.1326243  93.0369545  87.5607300  96.5126919
  93.6641583  87.1784377  97.1264443  92.1797463  87.3421502  96.8782611
  89.8135087  89.3683729  82.4445273  90.1088528  88.4594407  82.3912327
  88.9123123  89.3471469  82.1226276 101.7221166 101.0890993  89.2495682
 101.5972306 100.2880733  88.7406627 102.3800257 101.5837187  88.7609652
  93.3429334  87.4439726  88.4272822  92.6215920  88.0575693  88.2880295
  94.1322590  87.9797490  88.3489468 103.7856074  98.8900013  90.8775232
 102.8386410  98.7705364  90.8053559 104.1338848  98.0022511  90.9601493
  96.1455648  84.7794152  94.7013474  96.6690050  85.0256449  95.4639783
  95.9267981  85.6114187  94.2816611  91.5422929  87.0497827  82.5684599
  91.2135635  86.1695206  82.3859704  91.8962300  86.9945495  83.4560988
 100.7902508  98.6852729  87.0779584 100.6427470  97.7569437  87.2587154
 101.6156001  98.7072820  86.5936659  94.6564752  87.3370797  82.9360076
  94.9960825  87.8656718  82.2138685  95.1036873  87.6751203  83.7118643
 104.3936630  99.5081288  88.1644457 105.3183177  99.3024150  88.0268908
 104.2251933  99.2597689  89.0733798  97.3508193  85.7207847  92.3863144
  97.0105013  84.9215660  92.7883824  96.6447199  86.0209558  91.8139977
  98.0024665  82.8057160  90.8390467  98.8250734  82.3317638  90.7169358
  98.2462728  83.5847643  91.3389154  96.6432899  85.8345418  81.1353369
  97.3641262  86.2126671  80.6317086  96.0198203  86.5534295  81.2388347
 100.7864022  86.5390567  82.0711701 101.0027636  87.4215205  81.7700529
 100.3058089  86.1476781  81.3417343  95.5263243  89.4976280  88.6482446
  95.3807824  89.8116583  89.5406727  95.0488447  90.1161181  88.0953345
  97.3859626  86.4878828  88.6963335  97.3721195  85.5919922  88.3595633
  98.1032054  86.4949492  89.3301621  99.2385757  86.9216169  90.7416463
  98.9803535  87.8433239  90.7400793  98.7070797  86.5246603  91.4316927
 104.1831946 100.0266956  83.5206548 104.3568823  99.4613378  82.7680401
 104.6760837 100.8267851  83.3386038  90.0008906  92.0381625  91.5870107
  89.4562374  92.8141433  91.7190381  90.8788255  92.3852429  91.4289229
  96.7896522  85.3693209  83.9650906  96.9112433  84.4409855  84.1641793
  96.4998565  85.3831895  83.0529221  99.6587713  83.0548119  87.1017625
  99.6809409  83.1187452  86.1469605 100.0755772  82.2152628  87.2958132
 110.0371337  92.7903379  85.1396848 110.4802483  92.0410704  84.7415971
 109.1597847  92.7813515  84.7570580 105.1707118  99.3433720  80.6203447
 105.8658023  99.9640413  80.8390761 105.5130268  98.4929071  80.8955824
  90.7874927  91.1651521  94.4800264  90.0456664  91.3134156  95.0664894
  90.4667672  91.4259787  93.6167013 107.0698541  96.7933426  82.1490777
 107.5949866  97.1320698  81.4240097 106.9820894  95.8580441  81.9653912
  98.7318590 100.7067499  94.2780654  99.0405717 100.4616646  95.1503354
  99.5294072 100.9114138  93.7899524  98.7539202 102.8605409  86.5086030
  98.3144192 102.3681788  87.2018887  99.5047319 102.3178377  86.2678106
  91.2331541  99.0516950  86.5110659  92.0589561  98.7520722  86.1309302
  90.8825593  98.2824572  86.9600447  96.2013074  98.4043418  88.5808332
  95.5793084  97.7414123  88.2810560  96.8717941  98.4304550  87.8981980
  89.4340146  96.9703276  87.4699592  88.5972055  96.5425451  87.2883593
  89.4063792  97.1635720  88.4070383  96.2737602  86.8825206  98.1740838
  96.3225757  87.7587329  97.7918608  96.8160116  86.3402599  97.6012481
 106.8790323  94.2758796  94.7674704 106.9288327  94.1108803  95.7090227
 106.7704246  93.4086055  94.3772585  95.7626581  96.9547341  82.0566793
  95.9114702  97.6382806  81.4033465  96.5693025  96.9352431  82.5716248
 104.1694085  90.2589724  96.0834011 105.0703948  90.1196188  95.7918008
 104.2442059  90.4244178  97.0232188  98.5036890  87.6356578  94.9287197
  97.6340200  87.9290144  94.6569785  98.7396371  88.2197023  95.6494460
 108.3808519  96.6955737  95.0116725 108.0893328  97.0585718  95.8480186
 107.7680651  95.9822745  94.8330057 109.5804202  94.2608617  87.5319296
 110.4151093  94.6998421  87.6956856 109.7163330  93.7847270  86.7127541
 106.6295708  91.8188352  93.4796783 107.1049829  92.0115998  92.6715635
 105.7061273  91.8747538  93.2340167  93.5179214  92.9812519  83.0627862
  93.2725256  92.0774849  83.2608072  93.6875129  92.9829669  82.1207340
 101.2075924  83.8536195  92.4452617 101.7257868  84.5897222  92.1199106
 100.8531057  84.1600189  93.2799376  92.7874862  88.7140876  80.5614023
  92.0944107  88.7885231  79.9054059  92.5426614  87.9501220  81.0835540
 101.4588518  80.2736478  87.9653514 101.7390272  79.6059667  88.5913940
 102.2439125  80.4665573  87.4528178  99.2621987  99.4495472  79.5278540
  98.6895954 100.0685659  79.0749012  99.8354780  99.9994833  80.0618462
 105.3297377  88.6954112  91.7125089 106.2814800  88.7952209  91.7337313
 105.1600827  87.9032380  92.2223173 103.3511756  85.7809695  91.8984490
 102.7561688  86.0614708  91.2030978 103.0661453  86.2703596  92.6701231
 102.4819247  99.7332622  80.6587122 103.4149920  99.6678184  80.8619998
 102.3942459 100.5688889  80.2001655 105.1107263  99.0498492  77.6191070
 105.0320895  98.7158356  78.5126828 105.9316930  99.5420260  77.6182542
 107.8085454  91.9160232  90.8267389 107.7761774  90.9776232  91.0127072
 108.4186078  91.9944268  90.0933213  99.6468785  90.7856284  76.8694593
 100.5927890  90.6562493  76.9383011  99.2683030  90.0470946  77.3464021
 107.9579943  88.7071275  90.8725672 107.4418992  87.9229732  90.6855601
 108.8419891  88.3789992  91.0372191 105.6190670  82.4512291  86.8321484
 105.4215491  82.1427379  87.7164816 106.2290375  83.1773929  86.9619414
 113.6262004  92.9776238  89.9673425 114.3565393  92.7161526  90.5281129
 113.0168950  92.2404960  90.0075493 111.7077301  91.1184101  90.5647877
 110.9810465  90.9840066  89.9564368 111.2924588  91.4260930  91.3704595
  99.5307478  94.8374031  98.3295250 100.4510487  95.0152630  98.5235296
  99.4957061  93.8930076  98.1774949  97.8311702  88.7106261  76.8049478
  96.9243158  88.4139374  76.8812191  98.1087683  88.4136079  75.9383764
  88.7489643  90.0312624  87.2548524  88.4292427  89.1777932  86.9622898
  88.2023071  90.2461202  88.0106492  92.5269550  92.7475065  90.9718031
  92.7455560  93.6792173  90.9906065  92.9395324  92.3883040  91.7572835
  99.4473768  83.2543151  82.9593719  98.6374496  82.9090236  83.3348965
 100.1358185  82.9450694  83.5481331 101.3764316  82.3321197  84.5818016
 101.9295355  82.7516651  85.2408039 101.6134403  81.4056946  84.6240972
  97.3997416  88.3208271 100.3620780  97.2994143  89.2702628 100.2932871
  97.1818958  87.9926510  99.4896850  96.6010487  85.5693196  76.9461457
  97.4629651  85.8948094  77.2057274  96.7860831  84.7824692  76.4334523
  88.6177903  93.6515536  89.2241646  87.9241374  93.2369489  88.7111600
  89.3650894  93.6936072  88.6275065 104.7543124  84.4421723  84.0896680
 104.1741793  85.1006527  83.7074732 104.4879056  83.6199067  83.6784098
 103.2046690  83.8426780  86.2918000 103.7046468  83.9543315  85.4832319
 103.8482298  83.5387833  86.9318809  97.2628686  91.7505410  99.1785841
  96.7795767  92.5505770  99.3849730  97.3489625  91.7613355  98.2253285
  90.5314645  93.5833790  87.1007661  90.5085333  93.6821477  86.1489544
  90.8415282  94.4298940  87.4224827  93.1902023  95.6409945  91.2154275
  94.1445277  95.6093887  91.1484207  92.9914547  95.1800568  92.0304501
  93.7801405  94.2111061  93.7825073  94.5994294  94.7055139  93.8059910
  94.0538213  93.2943029  93.7542640 103.5368002  86.6021813  83.1453028
 102.6493857  86.8871464  82.9273223 103.9521991  86.4415576  82.2980305
 106.8882538  86.6268334  86.8607368 107.6642928  87.1164786  87.1331984
 106.1630672  87.0526388  87.3179237 109.3255096  87.3395953  87.9181308
 109.9199587  87.0991689  87.2074616 109.3981680  86.6203084  88.5454844
  91.5452252 101.1829564  88.2324473  91.4106720 100.4229965  87.6662471
  91.1284314 101.9070464  87.7653262 102.6811215  96.3666488  77.2401048
 103.3847065  96.5716490  77.8558704 101.9573864  96.9343249  77.5050132
 103.5109025  92.1176349  83.3603318 103.4544227  92.5744900  82.5210951
 104.0637368  91.3567033  83.1826161 107.3213831  87.9066081  84.1853438
 107.0650765  87.5062716  85.0161646 106.6966699  88.6209875  84.0603577
 111.6326169  90.6462154  86.6924729 111.0725727  90.7155343  87.4656291
 111.0269672  90.4703139  85.9724226  94.7021378 102.0798881  88.4442916
  94.5853762 103.0244314  88.3421606  93.8813824 101.7772443  88.8328715
 104.5897912  96.8049017  79.2899508 105.4243516  96.3730215  79.1076983
 104.4282255  96.6331030  80.2176403 104.2443805  93.3081130  80.6555848
 104.1892608  93.1425402  79.7144292 103.6189860  94.0157163  80.8118037
  89.0336320  88.5449194  94.4817270  89.6795183  88.0348148  94.9704495
  88.8253471  89.2817876  95.0560695  97.5539930  82.8089239  80.2341166
  97.5418600  83.7531079  80.3909437  98.4463352  82.6259385  79.9400627
  95.7275892 102.7327143  91.6598844  96.6303139 102.7650753  91.9765339
  95.5013262 101.8027594  91.6745180  97.4829494 101.4858130  88.3208923
  96.5325125 101.4859991  88.2073295  97.7861980 100.7390864  87.8044957
 101.3692049  79.4032016  84.4887103 100.6024445  78.8490502  84.6343785
 101.7802754  79.4753885  85.3501254  93.3733811  85.6916812  98.5792284
  94.2365272  85.3353616  98.7895609  92.7999221  85.3530706  99.2667688
 110.0271894 107.2746096  89.3216210 109.6890405 107.1587161  88.4336745
 110.8961662 106.8737261  89.3017216 105.8858709 109.1281572  85.3113101
 105.3223575 109.0371509  84.5429389 105.7711105 108.3081477  85.7915593
 103.4323141 110.6232764  88.1497321 104.2244433 110.2823589  87.7343621
 103.6719792 110.7327739  89.0699475 105.3913895 109.8841677  81.0214700
 106.1644771 109.3370664  80.8827576 105.7439294 110.7485927  81.2329161
 107.7280173 106.0434343  78.6533150 107.9805694 105.5215865  77.8916613
 106.7904732 105.8800489  78.7559834 112.7723456 105.0470122  86.4607893
 113.5586545 104.6289545  86.1098310 113.0362160 105.9516214  86.6289542
 112.9433533 110.4842972  81.1596550 112.3079366 110.5577599  81.8717455
 112.6130940 111.0736571  80.4815629 118.1731883 104.9845355  87.3640872
 118.9057055 104.4144572  87.5978701 117.4171239 104.5966955  87.8047377
 107.4476462 107.9462449  80.8557525 107.3312720 107.2707353  81.5238609
 107.5578722 107.4594823  80.0389678 109.7908003 107.4072596  84.5604214
 109.4266210 106.8803217  85.2717136 110.6475119 107.0171066  84.3870700
 115.6957303  98.6966929  91.8235480 115.3640628  99.5662340  91.5996695
 115.1002917  98.3803213  92.5029511 109.4313490 102.4362496  79.5565563
 109.5987892 103.3042733  79.9236034 109.2410659 102.5989778  78.6326852
 105.6401304 107.3493272  87.2568097 104.7151801 107.2169486  87.4645789
 105.8885718 108.1287491  87.7538040 109.4102711 104.8920154  80.5412229
 109.2902336 105.3377204  81.3797710 108.7155299 105.2405471  79.9825768
 103.0010116 106.9926545  88.0911886 103.1302497 107.2461024  89.0051298
 102.3207567 107.5854253  87.7716542 115.1087777 105.3641627  81.3692564
 116.0205633 105.5969014  81.1940261 114.5997424 105.9478671  80.8067642
 112.4523752 101.5399663  89.6182424 111.5908231 101.8380916  89.9099162
 112.4786186 101.7570062  88.6863457 109.2685321 110.0841853  86.0256230
 109.7323667 110.3629556  85.2360853 109.0042119 109.1825298  85.8429321
 106.1609402 109.6313335  88.9635993 106.7310759 110.0600603  88.3253478
 106.7517514 109.3495920  89.6620179 108.2054207 106.2065006  82.8345795
 108.9078250 106.6586049  83.3019722 107.8734836 105.5648825  83.4625688
 101.9479541 104.4648558  88.1362929 101.1578595 104.7206087  87.6603039
 102.4390788 105.2796896  88.2414969 103.8994286 104.8293138  85.0946405
 103.1025450 104.9411832  85.6129901 103.6719879 105.1679790  84.2287296
 100.2317244 104.7179049  90.5677920 100.4825282 105.6026059  90.8335496
 100.7676792 104.5383650  89.7953011 109.4447972 113.0205948  82.9107900
 109.3093646 113.8657484  83.3392748 109.9857784 113.2225226  82.1473834
 102.8977369 110.5381386  83.4835826 103.4101890 111.3324637  83.6341390
 103.5500082 109.8407677  83.4169427 104.7072254 113.6547143  85.5658579
 104.8838882 114.5765107  85.3779563 105.5029087 113.3405562  85.9952958
 112.7940435  96.5436510  91.4406794 112.4504705  97.4338152  91.3645904
 113.1619398  96.3538168  90.5776379 100.8626286 108.8670041  84.2595396
 101.7001508 109.2767049  84.0429104 101.0404554 107.9269483  84.2295590
 112.7590718 106.5345121  79.9479229 112.2437341 107.3049726  80.1867616
 112.4868026 105.8610258  80.5712290 110.3437829 101.3794822  85.0064467
 109.4879425 100.9901673  84.8270106 110.7564781 101.4586783  84.1464253
 111.8736976  98.9141165  89.4056027 111.3701771  98.8771301  88.5923832
 112.1667583  99.8233908  89.4652684 108.1179862  98.9979895  88.4122209
 108.9832858  98.8022704  88.0528098 108.1857370  98.7690247  89.3391566
 112.5477021 104.4072213  81.7739010 112.2427157 104.7218363  82.6249153
 113.5007463 104.4853633  81.8166343 110.9923453 110.5662437  83.4231964
 110.4644815 109.8315196  83.1105202 110.4910956 111.3437113  83.1771932
 105.7242181 101.2282103  85.7838576 106.2985933 101.0057285  85.0511769
 106.3113163 101.2970798  86.5367177 114.7821758 107.1155830  86.5902952
 115.2953640 107.7485822  87.0924662 115.4322982 106.5157025  86.2246312
 106.0511768 103.2586564  79.8034461 105.2149080 103.5961251  80.1243736
 105.9116537 103.1235544  78.8661598 108.0264848  98.1023352  84.5113645
 107.3729261  97.7872369  83.8870260 107.9845322  97.4799092  85.2373468
 109.1376053 108.3842647  76.4266937 108.2303115 108.1531900  76.6258086
 109.6347085 107.5880266  76.6140919 111.2602589 104.5905285  88.8361293
 110.3425150 104.8120233  88.6782981 111.6762732 104.6651596  87.9773000
 112.0437636 105.9896701  83.9663973 112.7909455 106.5018098  83.6571095
 112.3129226 105.6680754  84.8268367 110.3164287 108.4855242  80.9490927
 109.4075506 108.2014275  81.0463397 110.3459370 108.9054320  80.0894234
 114.4916474 103.0253817  85.9482762 113.7539230 102.5131204  86.2793005
 114.7443247 102.5854199  85.1366039 114.5928101  95.8030069  86.5424532
 114.8986978  94.9427433  86.2550447 115.3180706  96.3947690  86.3423525
 100.8852457 106.2060756  84.9306129 100.6876857 105.6130117  84.2057196
 100.3299121 105.9012966  85.6482068 108.8649181 106.0983862  87.0500723
 108.9197790 105.1457699  86.9743199 108.0540383 106.2543302  87.5342021
 110.0140374 110.0263986  78.2879006 109.5759804 109.3099844  77.8284643
 110.7550815 110.2540100  77.7264097 106.8041541 104.7160922  84.8091101
 105.9909406 105.0155093  85.2156294 107.3000535 104.3216611  85.5265584
 106.2955615 102.2879278  90.4252336 106.9354995 102.1468037  89.7275300
 105.4633146 102.0013791  90.0490938 107.0715919 111.5881708  86.5387329
 107.8656518 111.0932028  86.3369904 106.3607612 111.0599571  86.1755034
 103.3798683 105.7324790  82.6147082 102.4496271 105.6709245  82.8317044
 103.4756155 105.2100743  81.8183723 103.2984232 102.2579603  85.2025323
 103.5591049 103.1724936  85.0934484 104.1201404 101.7904045  85.3521936
 104.7709157 103.6717360  92.3724148 105.4432211 103.4634722  91.7236797
 103.9438944 103.4739446  91.9329380 114.1351602 108.8848367  77.8811063
 113.5180773 108.1595195  77.7844116 113.6668091 109.6457727  77.5378138
 105.9250148 103.1033792  77.0032368 105.0479614 102.9822592  76.6394614
 106.4007901 102.3119870  76.7511256  97.4452288 107.8910951  87.0973875
  98.1323328 107.5772681  86.5094890  97.2900417 108.7952316  86.8241126
 102.2487010 102.7801148  91.5258899 102.1645199 102.1726817  90.7909308
 101.4269717 103.2710166  91.5268395 112.4210724 101.2654711  86.8929094
 112.9179424 100.5124674  86.5730164 111.6497706 101.3019028  86.3272303
 113.5040505 110.0226399  84.4667517 112.5696784 110.1427861  84.2972221
 113.6817173 109.1198865  84.2027527 109.0045693 103.4072094  86.6200778
 108.6343480 102.8543135  87.3081684 109.5004785 102.8030228  86.0675778
 116.8913056 105.8643718  85.0017551 117.3573508 106.6971709  84.9277854
 117.3420557 105.3988699  85.7062810 114.8629719  98.2324305  89.0408452
 113.9492799  98.4628532  89.2090659 115.2922820  98.3162749  89.8922485
  97.0220264 105.9711545  89.3691342  97.0604364 105.4375135  90.1628460
  96.5160557 105.4446750  88.7502319 104.4011027 100.8176085  92.8653884
 104.4652353 101.6790916  92.4531282 104.3378147 100.2050087  92.1326243
 100.6528842 104.6975647  82.4445273 100.9482283 103.7886325  82.3912327
  99.7516878 104.6763386  82.1226276 104.1823089 102.7731643  88.4272822
 103.4609675 103.3867611  88.2880295 104.9716345 103.3089408  88.3489468
 102.3816683 102.3789744  82.5684599 102.0529390 101.4987123  82.3859704
 102.7356054 102.3237413  83.4560988 105.4958507 102.6662714  82.9360076
 105.8354579 103.1948635  82.2138685 105.9430627 103.0043120  83.7118643
 108.1901947 101.0499765  92.3863144 107.8498768 100.2507578  92.7883824
 107.4840954 101.3501476  91.8139977 108.8418419  98.1349077  90.8390467
 109.6644489  97.6609556  90.7169358 109.0856483  98.9139561  91.3389154
 107.4826654 101.1637336  81.1353369 108.2035016 101.5418589  80.6317086
 106.8591958 101.8826213  81.2388347 111.6257777 101.8682485  82.0711701
 111.8421391 102.7507123  81.7700529 111.1451844 101.4768698  81.3417343
 106.3656998 104.8268198  88.6482446 106.2201579 105.1408501  89.5406727
 105.8882202 105.4453098  88.0953345 108.2253381 101.8170746  88.6963335
 108.2114950 100.9211839  88.3595633 108.9425809 101.8241410  89.3301621
 110.0779512 102.2508086  90.7416463 109.8197289 103.1725157  90.7400793
 109.5464552 101.8538521  91.4316927 100.8402660 107.3673542  91.5870107
 100.2956128 108.1433350  91.7190381 101.7182010 107.7144347  91.4289229
 107.6290277 100.6985126  83.9650906 107.7506188  99.7701772  84.1641793
 107.3392319 100.7123812  83.0529221 110.4981467  98.3840037  87.1017625
 110.5203164  98.4479370  86.1469605 110.9149526  97.5444545  87.2958132
 102.0725296 114.3808867  86.5110659 102.8983316 114.0812639  86.1309302
 101.7219348 113.6116490  86.9600447 100.2733901 112.2995194  87.4699592
  99.4365809 111.8717368  87.2883593 100.2457546 112.4927637  88.4070383
 106.6020336 112.2839259  82.0566793 106.7508456 112.9674723  81.4033465
 107.4086779 112.2644349  82.5716248 104.3572969 108.3104437  83.0627862
 104.1119011 107.4066767  83.2608072 104.5268883 108.3121587  82.1207340
 112.0469679  99.1828113  92.4452617 112.5651622  99.9189140  92.1199106
 111.6924811  99.4892106  93.2799376 103.6268616 104.0432794  80.5614023
 102.9337861 104.1177149  79.9054059 103.3820368 103.2793138  81.0835540
 112.2982273  95.6028396  87.9653514 112.5784027  94.9351585  88.5913940
 113.0832880  95.7957491  87.4528178 110.4862540 106.1148202  76.8694593
 111.4321644 105.9854410  76.9383011 110.1076785 105.3762864  77.3464021
 116.4584424  97.7804208  86.8321484 116.2609245  97.4719296  87.7164816
 117.0684130  98.5065847  86.9619414 108.6705457 104.0398179  76.8049478
 107.7636912 103.7431291  76.8812191 108.9481438 103.7427997  75.9383764
  99.5883397 105.3604542  87.2548524  99.2686182 104.5069850  86.9622898
  99.0416825 105.5753120  88.0106492 103.3663305 108.0766983  90.9718031
 103.5849315 109.0084091  90.9906065 103.7789079 107.7174957  91.7572835
 110.2867523  98.5835068  82.9593719 109.4768251  98.2382153  83.3348965
 110.9751940  98.2742612  83.5481331 112.2158071  97.6613115  84.5818016
 112.7689110  98.0808568  85.2408039 112.4528157  96.7348863  84.6240972
 107.4404242 100.8985114  76.9461457 108.3023406 101.2240012  77.2057274
 107.6254586 100.1116610  76.4334523  99.4571657 108.9807453  89.2241646
  98.7635129 108.5661406  88.7111600 100.2044648 109.0227990  88.6275065
 115.5936878  99.7713640  84.0896680 115.0135547 100.4298444  83.7074732
 115.3272811  98.9490985  83.6784098 114.0440444  99.1718698  86.2918000
 114.5440223  99.2835232  85.4832319 114.6876052  98.8679751  86.9318809
 101.3708400 108.9125707  87.1007661 101.3479088 109.0113395  86.1489544
 101.6809036 109.7590858  87.4224827 114.3761756 101.9313731  83.1453028
 113.4887611 102.2163381  82.9273223 114.7915745 101.7707494  82.2980305
 117.7276292 101.9560252  86.8607368 118.5036682 102.4456704  87.1331984
 117.0024426 102.3818306  87.3179237 120.1648851 102.6687871  87.9181308
 120.7593342 102.4283607  87.2074616 120.2375434 101.9495001  88.5454844
 114.3502780 107.4468267  83.3603318 114.2937981 107.9036818  82.5210951
 114.9031122 106.6858951  83.1826161 118.1607586 103.2357998  84.1853438
 117.9044520 102.8354634  85.0161646 117.5360454 103.9501792  84.0603577
 115.0837559 108.6373048  80.6555848 115.0286363 108.4717319  79.7144292
 114.4583614 109.3449081  80.8118037  99.8730074 103.8741112  94.4817270
 100.5188938 103.3640066  94.9704495  99.6647225 104.6109794  95.0560695
 108.3933685  98.1381157  80.2341166 108.3812354  99.0822997  80.3909437
 109.2857106  97.9551302  79.9400627 112.2085804  94.7323933  84.4887103
 111.4418200  94.1782420  84.6343785 112.6196509  94.8045802  85.3501254
  44.9909368  -7.6943287  76.0461516  44.6527880  -7.8102223  75.1582051
  45.8599136  -8.0952122  76.0262523  40.8496184  -5.8407811  72.0358407
  40.2861049  -5.9317874  71.2674695  40.7348579  -6.6607907  72.5160900
  45.4729151  -6.5408436  82.0047722  45.4617792  -6.9355637  81.1328226
  45.6349791  -7.2742363  82.5981493  38.3960616  -4.3456619  74.8742628
  39.1881908  -4.6865795  74.4588927  38.6357266  -4.2361644  75.7944781
  46.4295743  -2.1736843  67.3472872  45.7783722  -1.5882763  66.9606886
  47.2240105  -1.6430648  67.4067910  40.3551370  -5.0847706  67.7460007
  41.1282246  -5.6318719  67.6072882  40.7076769  -4.2203457  67.9574468
  42.1936412  -3.7571324  80.9526906  41.9026278  -2.8525693  80.8373572
  42.8293397  -3.7154796  81.6670976  43.1192619  -6.3794475  77.5428266
  43.7156191  -6.6038453  76.8285229  43.1767591  -7.1209730  78.1453713
  42.6917647  -8.9255040  65.3778457  42.9443168  -9.4473519  64.6161920
  41.7542207  -9.0888895  65.4805140  47.9071008  -4.4846411  67.8841857
  47.2716841  -4.4111785  68.5962761  47.5768414  -3.8952813  67.2060936
  42.4113936  -7.0226934  67.5802832  42.2950194  -7.6982031  68.2483916
  42.5216196  -7.5094560  66.7634985  44.7545477  -7.5616787  71.2849521
  44.3903684  -8.0886166  71.9962442  45.6112593  -7.9518318  71.1116006
  47.1526297  -4.0709908  77.9476700  46.8527020  -3.1684870  77.8392507
  46.8077357  -4.3377725  78.7997853  40.6038779  -7.6196112  73.9813404
  39.6789275  -7.7519897  74.1891096  40.8523192  -6.8401892  74.4783346
  37.9647590  -7.9762838  74.8157193  38.0939971  -7.7228359  75.7296605
  37.2845041  -7.3835130  74.4961848  42.1347077   2.6934412  70.9147667
  42.0571107   3.6442237  70.9936148  41.5308721   2.3480284  71.5722594
  42.8810679  -7.3252269  83.1327001  43.6225364  -6.7867225  82.8561825
  42.1747665  -6.6985981  83.2898553  48.3566019  -5.1823129  81.7299163
  48.7649375  -5.6240718  80.9853795  47.6343280  -5.7570501  81.9833356
  48.6794833  -4.6221938  75.4851452  48.0503696  -4.4576224  74.7827519
  48.2920496  -4.2080329  76.2562416  52.5584065  -3.6867500  72.8395815
  51.8735104  -3.3068599  72.2892849  52.6427915  -3.0772174  73.5727763
  49.8134997  -6.0407541  79.4391159  50.0251892  -5.3975781  78.7625540
  49.7664745  -6.8745225  78.9713089  44.2322795  -4.8847530  72.7501537
  44.6961141  -4.6059827  71.9606159  43.9679593  -5.7864086  72.5674627
  41.1246876  -5.3376049  75.6881300  41.6948233  -4.9088780  75.0498784
  41.7154988  -5.6193464  76.3865486  43.1691681  -8.7624378  69.5591102
  43.8715725  -8.3103334  70.0265028  42.8372310  -9.4040559  70.1870995
  41.6172043 -10.1712621  83.9342311  40.9870704  -9.4896340  84.1677708
  41.5108131 -10.2829539  82.9895449  50.9280825  -3.1635586  77.6113516
  51.7498269  -3.5655399  77.3296198  50.9243228  -3.2667352  78.5629632
  44.6937428  -3.6151543  79.7674227  44.7581861  -3.1531135  80.6032399
  43.9848352  -4.2454178  79.8956537  44.4085446  -1.9483435  69.6353207
  44.2731121  -1.1031899  70.0638055  44.9495259  -1.7464157  68.8719141
  37.8614843  -4.4307997  70.2081132  38.3739364  -3.6364747  70.3586697
  38.5137556  -5.1281707  70.1414734  39.6709728  -1.3142241  72.2903885
  39.8476356  -0.3924276  72.1024869  40.4666562  -1.6283822  72.7198265
  46.0353922  -1.3259869  83.7653549  45.5917777  -2.1123490  83.4474454
  46.6971136  -1.1380718  83.0997440  40.7941044   0.2035933  78.2914228
  41.3448469   0.0752996  77.5191222  39.9552519   0.5030822  77.9409120
  48.1335160  -1.0457069  81.7934950  48.1153636  -0.2248188  81.3015220
  49.0555081  -1.1702993  82.0185092  44.5908215  -3.5312939  82.6358459
  45.1236551  -4.2924651  82.4057767  44.0622296  -3.8239287  83.3782613
  52.6962466  -5.6811907  68.6077709  51.9191909  -6.0200748  68.1632871
  53.3753947  -5.6759284  67.9332674  45.9560927  -4.4026947  70.1477271
  45.4282289  -5.1374187  69.8350508  45.4548430  -3.6252270  69.9017239
  50.9353773  -6.2077926  75.2644317  50.2777448  -5.5178665  75.3524446
  51.7394173  -5.8181494  75.6078303  44.1013528  -6.5846736  63.1512244
  43.1940589  -6.8157483  63.3503393  44.5984559  -7.3809117  63.3386225
  47.0081606   2.1250771  66.0708930  46.3343305   2.4282468  66.6793888
  47.3947428   2.9279851  65.7214387  45.2801761  -6.4834142  67.6736234
  44.3712980  -6.7675109  67.7708704  45.3096845  -6.0635063  66.8139541
  50.5121028  -2.8727552  71.4427401  50.0583355  -3.7136642  71.4992592
  49.8814995  -2.2366154  71.7802182  48.9553968  -1.0351055  72.3777220
  49.2476942  -0.4745998  71.6589585  49.4652588  -0.7422494  73.1330379
  44.9777849  -4.9425398  65.0124312  44.5397279  -5.6589539  64.5529950
  45.7188290  -4.7149283  64.4509404  43.9187593  -0.2570704  73.4670673
  43.8763772  -0.0309858  72.5379205  44.8350292  -0.4907330  73.6156474
  53.1220343  -4.5991674  76.0811903  53.5556850  -4.6916385  76.9294957
  53.8351924  -4.6234173  75.4431919  42.0353394  -3.3807675  73.2632636
  42.8293992  -3.8757355  73.0615211  41.3245086  -3.9089812  72.9000341
  46.8548238  -0.9989580  77.6145003  46.9085260  -0.4298643  78.3822719
  45.9863019  -0.8287695  77.2499040  53.9835893  -4.5567973  78.6144788
  54.1771783  -3.6522163  78.8604063  53.8836511  -5.0160554  79.4483373
  49.0451001  -4.4061230  84.1885669  48.8936508  -4.6350679  83.2715752
  49.0355681  -3.4490629  84.2017014  45.8136338  -6.8329318  79.1731935
  46.7428398  -6.6818158  79.0000902  45.3927368  -6.7445297  78.3180582
  44.6124670  -2.8078653  76.9430473  44.4735755  -3.1759869  77.8156411
  43.8239266  -2.2931014  76.7714430  45.2072822   2.2930443  68.2856009
  45.3824577   1.8218486  69.1001632  44.5205610   2.9196209  68.5137270
  46.1629885  -3.4297051  74.3319310  45.8279717  -3.4696281  75.2276960
  45.6633830  -4.0952335  73.8589721  40.1374129  -8.0229421  79.8571892
  39.9993927  -8.7549182  80.4583431  41.0479052  -8.1120520  79.5756079
  49.0989076  -6.0841016  64.6056370  48.4818247  -6.8094188  64.5089423
  48.6305565  -5.3231656  64.2623444  42.7656429  -8.3109461  79.3455571
  43.4756048  -8.9516269  79.3042190  42.7225738  -8.0596566  80.2681752
  50.7543208  -1.3742108  82.2662150  50.6955754  -2.0582888  81.5992733
  51.1562726  -0.6323118  81.8142776  39.7733907   5.4419806  75.0595869
  40.0130505   6.0738330  75.7374888  38.9303103   5.0907846  75.3461229
  50.7560615  -3.4102524  80.4976130  49.8687394  -3.7476602  80.6202529
  51.3259166  -4.1419493  80.7344896  44.2861769   1.2498928  77.4637373
  44.2131940   2.0553900  77.9756678  43.8439162   1.4490894  76.6385395
  44.0751548   0.4870698  70.9740195  43.2919070   1.0292379  71.0678419
  44.7744293   1.0044678  71.3734436  46.7460452   1.1485762  79.6195532
  47.4588424   1.7833227  79.5471433  46.2550481   1.2449628  78.8035534
  48.4677979  -4.9462985  71.1912824  47.5334258  -4.8261522  71.0217528
  48.6454648  -5.8490518  70.9272833  41.7972366  -1.1019794  80.4401103
  42.4981825  -0.4683311  80.5930497  41.3267481  -0.7605063  79.6796742
  49.9226762  -2.7601844  68.7249010  50.1986605  -2.8745250  69.6342884
  49.0531260  -3.1584359  68.6861183  46.5580826   1.4884507  72.3681823
  46.7403220   0.6706162  72.8309576  47.3813812   1.7052199  71.9306713
  46.8922991   0.4152692  69.6296872  47.4210758  -0.0954854  69.0167034
  47.1551211   0.0995222  70.4942405  45.6461225  -7.8055376  84.7519690
  44.9701862  -7.9061246  85.4222065  46.4688859  -7.9616162  85.2155687
  37.3940084  -1.5683439  77.3732205  37.9793521  -2.3139751  77.5060110
  37.1964922  -1.2579482  78.2568869  40.2478739   1.4667808  72.3894648
  39.5789114   1.9513936  71.9058688  40.1091609   1.7137029  73.3038026
  44.3884008   3.5011552  78.9877306  44.9402316   3.6643173  79.7526391
  44.7290201   4.0915990  78.3157331  49.2394882  -1.6727191  84.8425961
  49.7834786  -1.0597232  84.3480915  48.6581727  -1.1147612  85.3592974
  47.5252395   1.4493527  75.9740988  47.4003534   0.6483267  75.4651934
  48.1831486   1.9439721  75.4854958  49.5887303  -0.7497453  77.6020538
  48.6417639  -0.8692101  77.5298865  49.9370076  -1.6374955  77.6846800
  46.5933737  -0.9544736  73.8024891  46.4458699  -1.8828029  73.9832461
  47.4187230  -0.9324646  73.3181966  50.1967858  -0.1316178  74.8889763
  51.1214406  -0.3373316  74.7514215  50.0283162  -0.3799776  75.7979105
  41.3294472 -10.1421185  75.3727753  41.1839053  -9.8280882  76.2652034
  40.8519676  -9.5236285  74.8198651  49.9863175   0.3869490  70.2451855
  50.1600052  -0.1784088  69.4925707  50.4792066   1.1870385  70.0631345
  50.9738347  -0.2963746  67.3448753  51.6689252   0.3242947  67.5636068
  51.3161497  -1.1468395  67.6201131  52.8729770  -2.8464040  68.8736084
  53.3981094  -2.5076767  68.1485404  52.7852123  -3.7817025  68.6899219
  44.5349819   1.0670033  81.0025961  44.8436945   0.8219180  81.8748660
  45.3325301   1.2716672  80.5144831  44.5570431   3.2207943  73.2331337
  44.1175421   2.7284322  73.9264194  45.3078548   2.6780911  72.9923412
  37.0362770  -0.5880516  73.2355965  37.8620790  -0.8876744  72.8554609
  36.6856822  -1.3572894  73.6845754  42.0044303  -1.2354048  75.3053639
  41.3824312  -1.8983343  75.0055867  42.6749170  -1.2092916  74.6227287
  35.2371375  -2.6694190  74.1944899  34.4003283  -3.0972015  74.0128900
  35.2095020  -2.4761746  75.1315690  52.5623676  -2.2131137  84.1787282
  51.7719220  -2.2306998  83.6391781  52.3257031  -1.6742843  84.9336318
  52.6821551  -5.3638670  81.4920010  52.7319556  -5.5288663  82.4335533
  52.5735475  -6.2311411  81.1017891  41.5657810  -2.6850124  68.7812099
  41.7145930  -2.0014660  68.1278772  42.3724253  -2.7045034  69.2961555
  54.1839748  -2.9441729  81.7362032  53.8924556  -2.5811748  82.5725493
  53.5711879  -3.6574720  81.5575364  39.3210443  -6.6584947  69.7873168
  39.0756485  -7.5622617  69.9853378  39.4906358  -6.6567796  68.8452646
  45.0653216  -0.1901994  66.2523847  44.4927183   0.4288193  65.7994319
  45.6386009   0.3597368  66.7863769  48.2850475   0.0935156  67.3832429
  49.2181149   0.0280718  67.5865305  48.1973688   0.9291423  66.9246962
  50.9138492  -0.5898974  64.3436377  50.8352124  -0.9239110  65.2372135
  51.7348159  -0.0977206  64.3427849  45.3338707  -4.8023435  85.0540556
  46.2541716  -4.6244836  85.2480603  45.2988290  -5.7467390  84.9020256
  38.3300779  -6.8922401  77.6963337  38.5486789  -5.9605293  77.7151371
  38.7426553  -7.2514426  78.4818141  43.0659915  -7.8892056  85.9031148
  42.5826996  -7.0891696  86.1095037  43.1520854  -7.8784111  84.9498592
  36.3345874  -6.0563676  73.8252967  36.3116562  -5.9575989  72.8734850
  36.6446511  -5.2098525  74.1470133  38.9933252  -3.9987521  77.9399582
  39.9476506  -4.0303579  77.8729513  38.7945776  -4.4596897  78.7549808
  39.5832634  -5.4286405  80.5070379  40.4025523  -4.9342326  80.5305217
  39.8569442  -6.3454437  80.4787947  37.3483481   1.5432098  74.9569780
  37.2137949   0.7832499  74.3907778  36.9315543   2.2672998  74.4898569
  48.4842444  -3.2730978  63.9646355  49.1878294  -3.0680976  64.5804011
  47.7605093  -2.7054216  64.2295438  40.5052607   2.4401415  75.1688222
  40.3884991   3.3846848  75.0666913  39.6845053   2.1374977  75.5574021
  50.3929141  -2.8348449  66.0144815  51.2274745  -3.2667251  65.8322290
  50.2313484  -3.0066435  66.9421709  50.0475033  -6.3316336  67.3801154
  49.9923837  -6.4972064  66.4389598  49.4221089  -5.6240303  67.5363344
  47.3620941  -4.0267424  86.7054717  48.2312100  -3.8526772  86.3441352
  46.8827692  -3.2073007  86.5830446  41.5307121   3.0929677  78.3844151
  42.4334368   3.1253287  78.7010646  41.3044491   2.1630128  78.3990487
  43.2860723   1.8460664  75.0454229  42.3356354   1.8462525  74.9318602
  43.5893209   1.0993398  74.5290264  59.0213416   7.6821202  76.1099992
  59.6591826   7.5627949  75.4063332  58.9034259   8.6302046  76.1687944
  55.8303123   7.6348630  76.0461516  55.4921634   7.5189695  75.1582051
  56.6992891   7.2339795  76.0262523  51.6889938   9.4884107  72.0358407
  51.1254803   9.3974044  71.2674695  51.5742333   8.6684011  72.5160900
  56.3122906   8.7883482  82.0047722  56.3011546   8.3936280  81.1328226
  56.4743545   8.0549555  82.5981493  49.2354370  10.9835298  74.8742628
  50.0275662  10.6426123  74.4588927  49.4751020  11.0930273  75.7944781
  57.2689497  13.1555074  67.3472872  56.6177477  13.7409155  66.9606886
  58.0633860  13.6861269  67.4067910  51.1945124  10.2444212  67.7460007
  51.9676000   9.6973199  67.6072882  51.5470523  11.1088461  67.9574468
  53.0330167  11.5720594  80.9526906  52.7420033  12.4766225  80.8373572
  53.6687151  11.6137121  81.6670976  53.9586374   8.9497442  77.5428266
  54.5549946   8.7253465  76.8285229  54.0161345   8.2082188  78.1453713
  53.5311402   6.4036878  65.3778457  53.7836923   5.8818399  64.6161920
  52.5935961   6.2403023  65.4805140  58.5754685   5.4072656  73.1853200
  59.3617774   4.9892079  72.8343617  58.8393389   6.3118748  73.3534848
  58.7464762  10.8445506  67.8841857  58.1110595  10.9180133  68.5962761
  58.4162169  11.4339105  67.2060936  63.9763112   5.3447889  74.0886178
  64.7088284   4.7747106  74.3224008  63.2202468   4.9569490  74.5292684
  53.2507691   8.3064984  67.5802832  53.1343949   7.6309887  68.2483916
  53.3609951   7.8197358  66.7634985  55.5939232   7.7675131  71.2849521
  55.2297439   7.2405752  71.9962442  56.4506348   7.3773600  71.1116006
  61.4988532  -0.9430537  78.5480787  61.1671857  -0.0735126  78.3242002
  60.9034146  -1.2594253  79.2274817  55.2344719   2.7965030  66.2810869
  55.4019121   3.6645267  66.6481340  55.0441888   2.9592312  65.3572159
  57.9920052  11.2582009  77.9476700  57.6920775  12.1607048  77.8392507
  57.6471111  10.9914192  78.7997853  51.4432533   7.7095806  73.9813404
  50.5183030   7.5772020  74.1891096  51.6916946   8.4890025  74.4783346
  61.3917196   3.7764549  75.6274137  60.4834073   3.7079958  75.3332898
  61.3404791   4.2536494  76.4555962  55.2133939   5.2522688  67.2657536
  55.0933565   5.6979739  68.1043016  54.5186528   5.6008006  66.7071074
  48.8041344   7.3529080  74.8157193  48.9333725   7.6063559  75.7296605
  48.1238796   7.9456788  74.4961848  52.9740832  18.0226330  70.9147667
  52.8964861  18.9734155  70.9936148  52.3702475  17.6772202  71.5722594
  55.4658061   5.1954195  83.5709034  54.6891395   5.7548115  83.5611899
  56.1048624   5.6810978  84.0923904  63.2578842   1.9780988  77.4052011
  62.6153222   2.2713521  76.7591805  62.7533771   1.8633908  78.2105208
  60.9119006   5.7244161  68.0937870  61.8236862   5.9571548  67.9185568
  60.4028653   6.3081205  67.5312949  53.7204434   8.0039648  83.1327001
  54.4619118   8.5424692  82.8561825  53.0141419   8.6305937  83.2898553
  59.1959773  10.1468789  81.7299163  59.6043129   9.7051199  80.9853795
  58.4737035   9.5721416  81.9833356  55.5490843   5.0841396  79.1032720
  56.3952039   5.5080809  79.2467369  55.4889481   4.4275020  79.7971283
  59.5188588  10.7069980  75.4851452  58.8897450  10.8715694  74.7827519
  59.1314250  11.1211589  76.2562416  63.3977820  11.6424417  72.8395815
  62.7128858  12.0223319  72.2892849  63.4821669  12.2519744  73.5727763
  58.6990289   2.7445764  80.7613893  58.4551221   3.4987825  80.2248169
  58.9750219   3.1231112  81.5961140  60.6528751   9.2884376  79.4391159
  60.8645647   9.9316136  78.7625540  60.6058500   8.4546693  78.9713089
  58.2554980   1.9002197  76.3427731  57.3939459   2.1983451  76.6344469
  58.2817415   2.1172596  75.4108764  55.0716550  10.4444388  72.7501537
  55.5354895  10.7232091  71.9606159  54.8073348   9.5427832  72.5674627
  51.9640631   9.9915869  75.6881300  52.5341988  10.4203138  75.0498784
  52.5548743   9.7098454  76.3865486  54.0085436   6.5667540  69.5591102
  54.7109479   7.0188584  70.0265028  53.6766064   5.9251359  70.1870995
  52.4565797   5.1579297  83.9342311  51.8264458   5.8395577  84.1677708
  52.3501885   5.0462378  82.9895449  47.7510770   4.8251093  74.8608235
  46.9609824   5.0808621  74.3848346  48.2422017   5.6399430  74.9660276
  61.7674579  12.1656332  77.6113516  62.5892023  11.7636519  77.3296198
  61.7636982  12.0624566  78.5629632  49.7025515   5.1895672  71.8191712
  48.9056679   5.3014366  72.3375208  49.4751107   5.5282324  70.9532603
  55.5331183  11.7140375  79.7674227  55.5975615  12.1760782  80.6032399
  54.8242107  11.0837740  79.8956537  46.0348473   5.0781583  77.2923226
  46.2856511   5.9628593  77.5580802  46.5708021   4.8986185  76.5198318
  69.8580572   8.5095080  73.9598488  69.1044281   7.9402478  73.8042492
  69.9928114   8.4757745  74.9069122  55.2479201  13.3808483  69.6353207
  55.1124875  14.2260018  70.0638055  55.7889013  13.5827760  68.8719141
  51.7346540  -0.5399938  86.2967562  51.3413486  -1.0933739  86.9715207
  52.5512680  -0.2289359  86.6874080  48.7008598  10.8983921  70.2081132
  49.2133118  11.6927171  70.3586697  49.3531311  10.2010211  70.1414734
  50.5103483  14.0149677  72.2903885  50.6870111  14.9367642  72.1024869
  51.3060316  13.7008096  72.7198265  54.6514501   0.8757942  83.8887819
  55.3924215   1.4765095  83.8092281  54.8832424   0.1335579  83.3305861
  49.7955839   6.0614309  82.1666049  49.6809354   5.1599566  82.4673147
  48.9400357   6.3078006  81.8150865  56.8747677  14.0032049  83.7653549
  56.4311531  13.2168428  83.4474454  57.5364890  14.1911200  83.0997440
  51.6334798  15.5327851  78.2914228  52.1842223  15.4044914  77.5191222
  50.7946274  15.8322740  77.9409120  58.9728915  14.2834849  81.7934950
  58.9547390  15.1043730  81.3015220  59.8948835  14.1588924  82.0185092
  55.4301969  11.7978979  82.6358459  55.9630306  11.0367267  82.4057767
  54.9016050  11.5052630  83.3782613  58.5971664  -3.0960956  78.1652101
  58.2535933  -2.2059314  78.0891211  58.9650627  -3.2859298  77.3021686
  46.6657515   9.2272575  70.9840703  47.5032737   9.6369583  70.7674410
  46.8435782   8.2872017  70.9540897  58.5621947   6.8947656  66.6724536
  58.0468570   7.6652260  66.9112923  58.2899255   6.2212792  67.2957597
  56.1469058   1.7397356  71.7309774  55.2910654   1.3504207  71.5515413
  56.5596010   1.8189317  70.8709560  57.6768204  -0.7256300  76.1301334
  57.1733000  -0.7626165  75.3169139  57.9698811   0.1836442  76.1897990
  53.9211090  -0.6417571  75.1367516  54.7864087  -0.8374762  74.7773405
  53.9888599  -0.8707219  76.0636872  63.5356221   9.6480010  68.6077709
  62.7585664   9.3091170  68.1632871  64.2147702   9.6532633  67.9332674
  58.3508250   4.7674748  68.4984317  58.0458386   5.0820897  69.3494460
  59.3038692   4.8456168  68.5411650  56.7954682  10.9264971  70.1477271
  56.2676043  10.1917731  69.8350508  56.2942185  11.7039647  69.9017239
  61.7747528   9.1213991  75.2644317  61.1171202   9.8113253  75.3524446
  62.5787927   9.5110423  75.6078303  51.5273409   1.5884637  72.5083882
  52.1017161   1.3659819  71.7757075  52.1144392   1.6573332  73.2612484
  60.5852987   7.4758364  73.3148259  61.0984868   8.1088356  73.8169969
  61.2354211   6.8759560  72.9491619  51.8542997   3.6189098  66.5279768
  51.0180309   3.9563785  66.8489042  51.7147766   3.4838078  65.5906905
  53.8296077  -1.5374114  71.2358952  53.1760489  -1.8525097  70.6115567
  53.7876551  -2.1598373  71.9618775  54.9407282   8.7445181  63.1512244
  54.0334344   8.5134435  63.3503393  55.4378314   7.9482801  63.3386225
  57.8475361  17.4542688  66.0708930  57.1737060  17.7574385  66.6793888
  58.2341183  18.2571769  65.7214387  57.0633817   4.9507820  75.5606599
  56.1456379   5.1722767  75.4028287  57.4793961   5.0254130  74.7018307
  57.8468865   6.3499235  70.6909280  58.5940684   6.8620633  70.3816402
  58.1160455   6.0283288  71.5513673  56.1195515   8.8457776  67.6736234
  55.2106735   8.5616809  67.7708704  56.1490599   9.2656855  66.8139541
  61.3514783  12.4564366  71.4427401  60.8977110  11.6155275  71.4992592
  60.7208750  13.0925764  71.7802182  60.2947702   3.3856352  72.6728069
  59.5570459   2.8733738  73.0038311  60.5474476   2.9456733  71.8611346
  59.7947722  14.2940862  72.3777220  60.0870696  14.8545919  71.6589585
  60.3046343  14.5869423  73.1330379  46.6883686   6.5663290  71.6551436
  46.4908086   5.9732651  70.9302503  46.1330350   6.2615500  72.3727375
  54.6680409   6.4586397  73.7746029  54.7229019   5.5060233  73.6988506
  53.8571612   6.6145836  74.2587328  55.8171603  10.3866520  65.0124312
  55.3791033   9.6702379  64.5529950  56.5582044  10.6142635  64.4509404
  52.6072769   5.0763456  71.5336408  51.7940635   5.3757627  71.9401600
  53.1031764   4.6819145  72.2510890  54.7581347  15.0721213  73.4670673
  54.7157526  15.2982060  72.5379205  55.6744046  14.8384588  73.6156474
  58.2046981   5.5405281  80.3651302  58.5596369   5.7676754  81.2245768
  58.8519112   5.8723658  79.7428557  63.9344718   8.6623717  71.0700631
  63.7962617   8.8525313  70.1421820  63.5780937   9.4243100  71.5268682
  52.0986844   2.6481812  77.1497643  52.7386223   2.5070571  76.4520606
  51.2664375   2.3616325  76.7736245  63.9614098  10.7300244  76.0811903
  64.3950604  10.6375533  76.9294957  64.6745678  10.7057744  75.4431919
  52.8747148  11.9484242  73.2632636  53.6687747  11.4534563  73.0615211
  52.1638840  11.4202106  72.9000341  57.6941993  14.3302338  77.6145003
  57.7479015  14.8993274  78.3822719  56.8256774  14.5004223  77.2499040
  49.1829912   6.0927324  69.3392388  48.2527500   6.0311780  69.5562350
  49.2787384   5.5703277  68.5429029  49.1015461   2.6182137  71.9270630
  49.3622278   3.5327470  71.8179790  49.9232633   2.1506580  72.0767243
  50.5740386   4.0319894  79.0969454  51.2463439   3.8237256  78.4482103
  49.7470172   3.8341980  78.6574687  64.8229647  10.7723944  78.6144788
  65.0165537  11.6769755  78.8604063  64.7230265  10.3131364  79.4483373
  56.4765958   0.6581835  81.1135115  55.8293873   1.3571785  81.0199592
  57.2466973   1.0917979  81.4811363  59.8844756  10.9230687  84.1885669
  59.7330262  10.6941239  83.2715752  59.8749435  11.8801289  84.2017014
  56.6530092   8.4962600  79.1731935  57.5822152   8.6473760  79.0000902
  56.2321122   8.5846621  78.3180582  55.4518424  12.5213264  76.9430473
  55.3129510  12.1532049  77.8156411  54.6633020  13.0360904  76.7714430
  56.0466576  17.6222361  68.2856009  56.2218332  17.1510404  69.1001632
  55.3599364  18.2488127  68.5137270  57.0023639  11.8994867  74.3319310
  56.6673472  11.8595637  75.2276960  56.5027585  11.2339583  73.8589721
  50.9767883   7.3062497  79.8571892  50.8387681   6.5742736  80.4583431
  51.8872807   7.2171397  79.5756079  59.9382831   9.2450901  64.6056370
  59.3212001   8.5197730  64.5089423  59.4699319  10.0060262  64.2623444
  53.6050184   7.0182456  79.3455571  54.3149802   6.3775649  79.3042190
  53.5619492   7.2695351  80.2681752  61.5936963  13.9549810  82.2662150
  61.5349509  13.2709030  81.5992733  61.9956481  14.6968800  81.8142776
  52.3179118   4.0047674  81.1651211  51.7816475   3.5538413  81.8172807
  51.7295826   4.1393583  80.4221675  50.6127661  20.7711724  75.0595869
  50.8524260  21.4030248  75.7374888  49.7696858  20.4199764  75.3461229
  51.7281377   3.4636326  63.7277674  50.8510843   3.3425127  63.3639921
  52.2039130   2.6722404  63.4756563  61.5954370  11.9189394  80.4976130
  60.7081149  11.5815316  80.6202529  62.1652921  11.1872425  80.7344896
  43.2483517   8.2513485  73.8219181  43.9354557   7.9375215  73.2340197
  43.0931646   9.1554850  73.5486433  48.0518239   3.1403682  78.2504205
  47.9676428   2.5329352  77.5154615  47.2300945   3.6312700  78.2513702
  55.1255523  16.5790846  77.4637373  55.0525695  17.3845818  77.9756678
  54.6832916  16.7782812  76.6385395  54.9145303  15.8162616  70.9740195
  54.1312825  16.3584296  71.0678419  55.6138048  16.3336596  71.3734436
  58.2241953   1.6257246  73.6174400  58.7210652   0.8727208  73.2975470
  57.4528934   1.6621562  73.0517610  66.0771710   7.3297611  75.2592692
  66.0661587   8.2122327  74.8886625  65.2089090   6.9769162  75.0647229
  57.5854207  16.4777680  79.6195532  58.2982179  17.1125145  79.5471433
  57.0944235  16.5741546  78.8035534  59.3071734  10.3828933  71.1912824
  58.3728012  10.5030395  71.0217528  59.4848402   9.4801400  70.9272833
  54.8076922   3.7674629  73.3446085  54.4374709   3.2145669  74.0326990
  55.3036014   3.1632762  72.7921085  62.6944285   6.2246252  71.7262858
  63.1604737   7.0574244  71.6523160  63.1451785   5.7591234  72.4308116
  52.6366120  14.2272124  80.4401103  53.3375580  14.8608607  80.5930497
  52.1661235  14.5686855  79.6796742  60.7620516  12.5690073  68.7249010
  61.0380360  12.4546668  69.6342884  59.8925015  12.1707558  68.6861183
  60.6660948  -1.4073161  75.7653759  59.7524027  -1.1768934  75.9335966
  61.0954049  -1.3234717  76.6167791  60.4367406   6.7816731  78.2653653
  59.7838856   7.0292638  77.6106106  60.8147786   5.9680869  77.9316130
  57.3974580  16.8176424  72.3681823  57.5796975  15.9998080  72.8309576
  58.2207566  17.0344116  71.9306713  57.7316746  15.7444609  69.6296872
  58.2604512  15.2337064  69.0167034  57.9944965  15.4287140  70.4942405
  56.4854979   7.5236542  84.7519690  55.8095616   7.4230671  85.4222065
  57.3082613   7.3675756  85.2155687  48.2333838  13.7608479  77.3732205
  48.8187275  13.0152167  77.5060110  48.0358677  14.0712435  78.2568869
  51.0872494  16.7959726  72.3894648  50.4182869  17.2805854  71.9058688
  50.9485363  17.0428946  73.3038026  42.8251493   6.3314079  76.0936649
  42.8635593   5.7977670  76.8873767  42.3191786   5.8049284  75.4747626
  55.2277762  18.8303470  78.9877306  55.7796070  18.9935091  79.7526391
  55.5683956  19.4207907  78.3157331  50.2042255   1.1778619  79.5899191
  50.2683582   2.0393450  79.1776589  50.1409376   0.5652621  78.8571549
  49.6794528   3.2501752  83.2372225  50.3066567   2.8678829  83.8509750
  48.8222447   3.0315954  83.6027918  60.0788636  13.6564727  84.8425961
  60.6228540  14.2694685  84.3480915  59.4975481  14.2144305  85.3592974
  46.4560071   5.0578181  69.1690580  46.7513512   4.1488859  69.1157634
  45.5548106   5.0365920  68.8471582  58.3646149  16.7785445  75.9740988
  58.2397289  15.9775185  75.4651934  59.0225240  17.2731638  75.4854958
  49.9854318   3.1334178  75.1518129  49.2640903   3.7470145  75.0125602
  50.7747573   3.6691942  75.0734775  60.4281058  14.5794465  77.6020538
  59.4811393  14.4599816  77.5298865  60.7763831  13.6916963  77.6846800
  52.7880631   0.4688604  81.4258780  53.3115033   0.7150901  82.1885090
  52.5692964   1.3008639  81.0061918  48.1847912   2.7392279  69.2929905
  47.8560618   1.8589658  69.1105011  48.5387283   2.6839947  70.1806294
  57.4327491  14.3747181  73.8024891  57.2852453  13.4463889  73.9832461
  58.2580985  14.3967272  73.3181966  51.2989735   3.0265248  69.6605383
  51.6385808   3.5551170  68.9383991  51.7461856   3.3645655  70.4363949
  61.0361613  15.1975740  74.8889763  61.9608160  14.9918601  74.7514215
  60.8676916  14.9492141  75.7979105  53.9933176   1.4102299  79.1108451
  53.6529997   0.6110112  79.5129131  53.2872182   1.7104010  78.5385284
  54.6449648  -1.5048388  77.5635774  55.4675717  -1.9787910  77.4414664
  54.8887712  -0.7257905  78.0634460  53.2857882   1.5239870  67.8598676
  54.0066245   1.9021123  67.3562392  52.6623187   2.2428747  67.9633654
  57.4289005   2.2285019  68.7957008  57.6452620   3.1109657  68.4945836
  56.9483073   1.8371232  68.0662650  52.1688227   5.1870732  75.3727753
  52.0232807   5.5011035  76.2652034  51.6913430   5.8055633  74.8198651
  54.0284610   2.1773280  75.4208642  54.0146178   1.2814374  75.0840940
  54.7457038   2.1843944  76.0546928  55.8810740   2.6110620  77.4661770
  55.6228518   3.5327691  77.4646100  55.3495781   2.2141055  78.1562234
  60.8256929  15.7161408  70.2451855  60.9993807  15.1507830  69.4925707
  61.3185820  16.5162302  70.0631345  46.6433889   7.7276077  78.3115414
  46.0987357   8.5035885  78.4435688  47.5213239   8.0746881  78.1534535
  53.4321506   1.0587660  70.6896212  53.5537417   0.1304307  70.8887100
  53.1423548   1.0726346  69.7774528  56.3012696  -1.2557429  73.8262932
  56.3234393  -1.1918096  72.8714912  56.7180755  -2.0952920  74.0203438
  66.6796320   8.4797830  71.8642155  67.1227466   7.7305156  71.4661278
  65.8022831   8.4707967  71.4815887  61.8132102  15.0328172  67.3448753
  62.5083006  15.6534865  67.5636068  62.1555252  14.1823523  67.6201131
  47.4299911   6.8545973  81.2045571  46.6881647   7.0028608  81.7910201
  47.1092655   7.1154238  80.3412320  63.7123525  12.4827877  68.8736084
  64.2374849  12.8215150  68.1485404  63.6245877  11.5474893  68.6899219
  55.3743573  16.3961951  81.0025961  55.6830700  16.1511098  81.8748660
  56.1719055  16.6008590  80.5144831  55.3964185  18.5499861  73.2331337
  54.9569176  18.0576239  73.9264194  56.1472302  18.0072828  72.9923412
  47.8756524  14.7411402  73.2355965  48.7014544  14.4415173  72.8554609
  47.5250576  13.9719024  73.6845754  52.8438058  14.0937870  75.3053639
  52.2218067  13.4308575  75.0055867  53.5142925  14.1199002  74.6227287
  46.0765129  12.6597728  74.1944899  45.2397038  12.2319902  74.0128900
  46.0488775  12.8530171  75.1315690  52.9162585   2.5719658  84.8986145
  52.9650741   3.4481781  84.5163914  53.4585099   2.0297051  84.3257788
  63.4017431  13.1160781  84.1787282  62.6112974  13.0984920  83.6391781
  63.1650785  13.6549075  84.9336318  63.5215306   9.9653247  81.4920010
  63.5713311   9.8003255  82.4335533  63.4129229   9.0980507  81.1017891
  52.4051565  12.6441793  68.7812099  52.5539685  13.3277258  68.1278772
  53.2118008  12.6246883  69.2961555  60.8119068   5.9484176  82.8079317
  61.7128931   5.8090640  82.5163315  60.8867043   6.1138630  83.7477495
  55.1461874   3.3251030  81.6532503  54.2765183   3.6184596  81.3815092
  55.3821354   3.9091475  82.3739767  65.0233503  12.3850189  81.7362032
  64.7318311  12.7480170  82.5725493  64.4105634  11.6717197  81.5575364
  66.2229185   9.9503069  74.2564602  67.0576076  10.3892873  74.4202163
  66.3588314   9.4741722  73.4372848  63.2720691   7.5082804  80.2042090
  63.7474812   7.7010450  79.3960941  62.3486256   7.5641989  79.9585474
  50.1604198   8.6706971  69.7873168  49.9150239   7.7669301  69.9853378
  50.3300112   8.6724121  68.8452646  57.8500907  -0.4569353  79.1697924
  58.3682851   0.2791674  78.8444412  57.4956040  -0.1505360  80.0044683
  49.4299845   4.4035328  67.2859330  48.7369090   4.4779683  66.6299366
  49.1851597   3.6395672  67.8080847  55.9046970  15.1389924  66.2523847
  55.3320937  15.7580111  65.7994319  56.4779764  15.6889285  66.7863769
  61.9722360   4.3848564  78.4370396  62.9239783   4.4846661  78.4582620
  61.8025810   3.5926832  78.9468480  59.9936739   1.4704147  78.6229797
  59.3986671   1.7509160  77.9276285  59.7086436   1.9598048  79.3946538
  59.1244230  15.4227074  67.3832429  60.0574903  15.3572635  67.5865305
  59.0367443  16.2583341  66.9246962  61.7532247  14.7392944  64.3436377
  61.6745878  14.4052808  65.2372135  62.5741913  15.2314712  64.3427849
  64.4510438   7.6054683  77.5512695  64.4186758   6.6670684  77.7372379
  65.0611061   7.6838720  76.8178520  56.2893769   6.4750736  63.5939899
  57.2352873   6.3456944  63.6628317  55.9108014   5.7365398  64.0709327
  64.6004926   4.3965727  77.5970978  64.0843975   3.6124183  77.4100907
  65.4844875   4.0684443  77.7617498  62.2615653  -1.8593258  73.5566791
  62.0640474  -2.1678169  74.4410123  62.8715359  -1.1331619  73.6864721
  70.2686988   8.6670690  76.6918732  70.9990376   8.4055978  77.2526435
  69.6593933   7.9299412  76.7320800  68.3502285   6.8078553  77.2893183
  67.6235448   6.6734518  76.6809675  67.9349572   7.1155381  78.0949901
  56.1732461  10.5268482  85.0540556  57.0935471  10.7047082  85.2480603
  56.1382044   9.5824528  84.9020256  54.4736686   4.4000713  63.5294785
  53.5668141   4.1033825  63.6057498  54.7512667   4.1030531  62.6629071
  45.3914626   5.7207076  73.9793831  45.0717410   4.8672384  73.6868205
  44.8448054   5.9355654  74.7351798  49.1694534   8.4369517  77.6963337
  49.3880543   9.3686625  77.7151371  49.5820307   8.0777492  78.4818141
  56.0898751  -1.0562398  69.6839026  55.2799480  -1.4015313  70.0594272
  56.7783168  -1.3654854  70.2726637  58.0189300  -1.9784351  71.3063322
  58.5720338  -1.5588897  71.9653346  58.2559386  -2.9048603  71.3486278
  54.0422399   4.0102723  87.0866086  53.9419126   4.9597080  87.0178177
  53.8243941   3.6820962  86.2142156  53.2435470   1.2587648  63.6706764
  54.1054634   1.5842546  63.9302581  53.4285814   0.4719144  63.1579829
  45.2602886   9.3409988  75.9486952  44.5666358   8.9263940  75.4356907
  46.0075877   9.3830524  75.3520371  61.3968107   0.1316174  70.8141987
  60.8166776   0.7900978  70.4320039  61.1304039  -0.6906481  70.4029404
  59.8471673  -0.4678768  73.0163307  60.3471452  -0.3562233  72.2077626
  60.4907281  -0.7717715  73.6564115  53.9053669   7.4399862  85.9031148
  53.4220751   8.2400222  86.1095037  53.9914608   7.4507807  84.9498592
  47.1739629   9.2728241  73.8252967  47.1510317   9.3715929  72.8734850
  47.4840265  10.1193392  74.1470133  49.8327006  11.3304396  77.9399582
  50.7870260  11.2988339  77.8729513  49.6339530  10.8695020  78.7549808
  50.4226389   9.9005513  80.5070379  51.2419278  10.3949591  80.5305217
  50.6963196   8.9837481  80.4787947  60.1792985   2.2916265  69.8698335
  59.2918840   2.5765915  69.6518530  60.5946974   2.1310028  69.0225612
  63.5307521   2.3162786  73.5852674  64.3067911   2.8059238  73.8577291
  62.8055655   2.7420840  74.0424544  65.9680080   3.0290405  74.6426615
  66.5624570   2.7886141  73.9319923  66.0406663   2.3097536  75.2700151
  48.1877235  16.8724016  74.9569780  48.0531703  16.1124417  74.3907778
  47.7709298  17.5964916  74.4898569  59.3236198  12.0560939  63.9646355
  60.0272048  12.2610942  64.5804011  58.5998847  12.6237701  64.2295438
  60.1534009   7.8070801  70.0848625  60.0969210   8.2639352  69.2456258
  60.7062351   7.0461485  69.9071468  63.9638814   3.5960533  70.9098745
  63.7075749   3.1957168  71.7406952  63.3391683   4.3104327  70.7848884
  68.2751152   6.3356606  73.4170036  67.7150710   6.4049795  74.1901598
  67.6694656   6.1597590  72.6969532  51.3446361  17.7693333  75.1688222
  51.2278745  18.7138765  75.0666913  50.5238807  17.4666895  75.5574021
  61.2322896  12.4943469  66.0144815  62.0668500  12.0624667  65.8322290
  61.0707239  12.3225482  66.9421709  60.8868788   8.9975582  67.3801154
  60.8317592   8.8319853  66.4389598  60.2614843   9.7051615  67.5363344
  45.6761303   4.2343646  81.2062577  46.3220166   3.7242600  81.6949802
  45.4678454   4.9712328  81.7806002  58.2014695  11.3024494  86.7054717
  59.0705855  11.4765146  86.3441352  57.7221447  12.1218911  86.5830446
  54.1964913  -1.5016309  66.9586473  54.1843583  -0.5574469  67.1154744
  55.0888335  -1.6846164  66.6645934  52.3700875  18.4221595  78.3844151
  53.2728122  18.4545205  78.7010646  52.1438245  17.4922046  78.3990487
  54.1254477  17.1752581  75.0454229  53.1750108  17.1754443  74.9318602
  54.4286963  16.4285316  74.5290264  50.0158794   1.3811263  85.3037591
  50.8790255   1.0248068  85.5140915  49.4424205   1.0425158  85.9912995
  69.8607171  23.0113120  76.1099992  70.4985581  22.8919867  75.4063332
  69.7428014  23.9593964  76.1687944  66.6696877  22.9640548  76.0461516
  66.3315389  22.8481613  75.1582051  67.5386645  22.5631713  76.0262523
  62.5283693  24.8176024  72.0358407  61.9648558  24.7265961  71.2674695
  62.4136088  23.9975929  72.5160900  67.1516660  24.1175400  82.0047722
  67.1405301  23.7228198  81.1328226  67.3137300  23.3841472  82.5981493
  60.0748125  26.3127216  74.8742628  60.8669417  25.9718041  74.4588927
  60.3144775  26.4222191  75.7944781  62.0338879  25.5736129  67.7460007
  62.8069755  25.0265116  67.6072882  62.3864278  26.4380378  67.9574468
  63.8723921  26.9012511  80.9526906  63.5813787  27.8058142  80.8373572
  64.5080906  26.9429039  81.6670976  64.7980128  24.2789360  77.5428266
  65.3943700  24.0545382  76.8285229  64.8555100  23.5374105  78.1453713
  64.3705156  21.7328795  65.3778457  64.6230677  21.2110317  64.6161920
  63.4329716  21.5694941  65.4805140  69.4148439  20.7364574  73.1853200
  70.2011529  20.3183997  72.8343617  69.6787144  21.6410666  73.3534848
  69.5858517  26.1737424  67.8841857  68.9504350  26.2472050  68.5962761
  69.2555923  26.7631023  67.2060936  74.8156866  20.6739807  74.0886178
  75.5482038  20.1039024  74.3224008  74.0596222  20.2861407  74.5292684
  64.0901445  23.6356901  67.5802832  63.9737703  22.9601805  68.2483916
  64.2003705  23.1489275  66.7634985  66.4332986  23.0967048  71.2849521
  66.0691193  22.5697669  71.9962442  67.2900102  22.7065517  71.1116006
  72.3382287  14.3861381  78.5480787  72.0065612  15.2556792  78.3242002
  71.7427900  14.0697665  79.2274817  66.0738473  18.1256948  66.2810869
  66.2412875  18.9937184  66.6481340  65.8835642  18.2884230  65.3572159
  68.8313806  26.5873927  77.9476700  68.5314529  27.4898966  77.8392507
  68.4864866  26.3206110  78.7997853  62.2826288  23.0387724  73.9813404
  61.3576784  22.9063938  74.1891096  62.5310701  23.8181943  74.4783346
  72.2310950  19.1056467  75.6274137  71.3227827  19.0371876  75.3332898
  72.1798546  19.5828412  76.4555962  66.0527694  20.5814606  67.2657536
  65.9327319  21.0271656  68.1043016  65.3580282  20.9299923  66.7071074
  59.6435099  22.6820997  74.8157193  59.7727480  22.9355476  75.7296605
  58.9632550  23.2748705  74.4961848  66.3051816  20.5246113  83.5709034
  65.5285150  21.0840033  83.5611899  66.9442379  21.0102896  84.0923904
  74.0972596  17.3072906  77.4052011  73.4546977  17.6005439  76.7591805
  73.5927525  17.1925826  78.2105208  71.7512760  21.0536079  68.0937870
  72.6630616  21.2863465  67.9185568  71.2422407  21.6373123  67.5312949
  64.5598188  23.3331566  83.1327001  65.3012873  23.8716610  82.8561825
  63.8535174  23.9597855  83.2898553  70.0353528  25.4760707  81.7299163
  70.4436884  25.0343117  80.9853795  69.3130789  24.9013334  81.9833356
  66.3884598  20.4133313  79.1032720  67.2345793  20.8372727  79.2467369
  66.3283236  19.7566938  79.7971283  70.3582342  26.0361897  75.4851452
  69.7291205  26.2007611  74.7827519  69.9708005  26.4503507  76.2562416
  74.2371574  26.9716335  72.8395815  73.5522612  27.3515236  72.2892849
  74.3215424  27.5811662  73.5727763  69.5384043  18.0737682  80.7613893
  69.2944975  18.8279742  80.2248169  69.8143974  18.4523029  81.5961140
  71.4922506  24.6176294  79.4391159  71.7039401  25.2608054  78.7625540
  71.4452254  23.7838611  78.9713089  69.0948735  17.2294115  76.3427731
  68.2333214  17.5275368  76.6344469  69.1211170  17.4464514  75.4108764
  65.9110304  25.7736305  72.7501537  66.3748650  26.0524008  71.9606159
  65.6467102  24.8719750  72.5674627  62.8034385  25.3207787  75.6881300
  63.3735742  25.7495055  75.0498784  63.3942497  25.0390372  76.3865486
  64.8479190  21.8959458  69.5591102  65.5503234  22.3480501  70.0265028
  64.5159819  21.2543276  70.1870995  63.2959552  20.4871214  83.9342311
  62.6658212  21.1687495  84.1677708  63.1895640  20.3754296  82.9895449
  58.5904524  20.1543010  74.8608235  57.8003578  20.4100539  74.3848346
  59.0815772  20.9691348  74.9660276  72.6068334  27.4948249  77.6113516
  73.4285778  27.0928437  77.3296198  72.6030737  27.3916484  78.5629632
  60.5419270  20.5187590  71.8191712  59.7450433  20.6306284  72.3375208
  60.3144862  20.8574242  70.9532603  66.3724937  27.0432293  79.7674227
  66.4369370  27.5052700  80.6032399  65.6635861  26.4129658  79.8956537
  56.8742227  20.4073501  77.2923226  57.1250266  21.2920511  77.5580802
  57.4101776  20.2278102  76.5198318  80.6974327  23.8386998  73.9598488
  79.9438035  23.2694396  73.8042492  80.8321868  23.8049662  74.9069122
  62.5740295  14.7891980  86.2967562  62.1807240  14.2358179  86.9715207
  63.3906435  15.1002559  86.6874080  59.5402352  26.2275838  70.2081132
  60.0526873  27.0219089  70.3586697  60.1925065  25.5302129  70.1414734
  61.3497237  29.3441595  72.2903885  61.5263865  30.2659559  72.1024869
  62.1454071  29.0300014  72.7198265  65.4908256  16.2049859  83.8887819
  66.2317969  16.8057012  83.8092281  65.7226178  15.4627497  83.3305861
  60.6349594  21.3906226  82.1666049  60.5203109  20.4891484  82.4673147
  59.7794111  21.6369923  81.8150865  67.7141431  29.3323967  83.7653549
  67.2705286  28.5460345  83.4474454  68.3758645  29.5203117  83.0997440
  62.4728553  30.8619768  78.2914228  63.0235978  30.7336832  77.5191222
  61.6340028  31.1614657  77.9409120  69.8122669  29.6126767  81.7934950
  69.7941145  30.4335648  81.3015220  70.7342589  29.4880842  82.0185092
  66.2695724  27.1270896  82.6358459  66.8024060  26.3659184  82.4057767
  65.7409805  26.8344548  83.3782613  69.4365419  12.2330962  78.1652101
  69.0929688  13.1232604  78.0891211  69.8044381  12.0432620  77.3021686
  57.5051269  24.5564493  70.9840703  58.3426491  24.9661501  70.7674410
  57.6829537  23.6163935  70.9540897  69.4015701  22.2239573  66.6724536
  68.8862325  22.9944178  66.9112923  69.1293010  21.5504709  67.2957597
  66.9862812  17.0689274  71.7309774  66.1304409  16.6796124  71.5515413
  67.3989764  17.1481235  70.8709560  68.5161959  14.6035617  76.1301334
  68.0126755  14.5665752  75.3169139  68.8092566  15.5128360  76.1897990
  64.7604845  14.6874347  75.1367516  65.6257842  14.4917156  74.7773405
  64.8282354  14.4584699  76.0636872  74.3749975  24.9771928  68.6077709
  73.5979418  24.6383087  68.1632871  75.0541456  24.9824551  67.9332674
  69.1902004  20.0966665  68.4984317  68.8852140  20.4112815  69.3494460
  70.1432447  20.1748085  68.5411650  67.6348436  26.2556889  70.1477271
  67.1069798  25.5209648  69.8350508  67.1335939  27.0331565  69.9017239
  72.6141282  24.4505909  75.2644317  71.9564957  25.1405171  75.3524446
  73.4181682  24.8402341  75.6078303  62.3667164  16.9176555  72.5083882
  62.9410916  16.6951736  71.7757075  62.9538146  16.9865249  73.2612484
  71.4246741  22.8050282  73.3148259  71.9378623  23.4380274  73.8169969
  72.0747965  22.2051477  72.9491619  62.6936751  18.9481016  66.5279768
  61.8574063  19.2855703  66.8489042  62.5541521  18.8129996  65.5906905
  64.6689832  13.7917804  71.2358952  64.0154244  13.4766821  70.6115567
  64.6270306  13.1693544  71.9618775  65.7801036  24.0737099  63.1512244
  64.8728098  23.8426352  63.3503393  66.2772068  23.2774718  63.3386225
  67.9027572  20.2799737  75.5606599  66.9850133  20.5014684  75.4028287
  68.3187716  20.3546048  74.7018307  68.6862620  21.6791153  70.6909280
  69.4334439  22.1912550  70.3816402  68.9554209  21.3575206  71.5513673
  66.9589270  24.1749694  67.6736234  66.0500489  23.8908727  67.7708704
  66.9884354  24.5948772  66.8139541  72.1908537  27.7856283  71.4427401
  71.7370864  26.9447193  71.4992592  71.5602504  28.4217682  71.7802182
  71.1341457  18.7148269  72.6728069  70.3964214  18.2025656  73.0038311
  71.3868230  18.2748651  71.8611346  70.6341477  29.6232780  72.3777220
  70.9264451  30.1837837  71.6589585  71.1440097  29.9161341  73.1330379
  71.2353084  11.4924521  73.2669838  71.5411961  10.6321885  72.9795753
  71.9605689  12.0842142  73.0668832  57.5277440  21.8955208  71.6551436
  57.3301840  21.3024569  70.9302503  56.9724104  21.5907418  72.3727375
  65.5074164  21.7878314  73.7746029  65.5622774  20.8352151  73.6988506
  64.6965366  21.9437753  74.2587328  66.6565358  25.7158437  65.0124312
  66.2184788  24.9994296  64.5529950  67.3975799  25.9434552  64.4509404
  63.4466524  20.4055374  71.5336408  62.6334389  20.7049545  71.9401600
  63.9425518  20.0111063  72.2510890  65.5975102  30.4013131  73.4670673
  65.5551281  30.6273977  72.5379205  66.5137801  30.1676506  73.6156474
  69.0440736  20.8697199  80.3651302  69.3990123  21.0968672  81.2245768
  69.6912867  21.2015575  79.7428557  74.7738473  23.9915634  71.0700631
  74.6356371  24.1817230  70.1421820  74.4174691  24.7535017  71.5268682
  62.9380599  17.9773730  77.1497643  63.5779978  17.8362489  76.4520606
  62.1058129  17.6908243  76.7736245  74.8007852  26.0592162  76.0811903
  75.2344359  25.9667451  76.9294957  75.5139433  26.0349662  75.4431919
  63.7140903  27.2776160  73.2632636  64.5081501  26.7826480  73.0615211
  63.0032595  26.7494023  72.9000341  68.5335747  29.6594256  77.6145003
  68.5872769  30.2285192  78.3822719  67.6650528  29.8296141  77.2499040
  60.0223666  21.4219242  69.3392388  59.0921254  21.3603697  69.5562350
  60.1181138  20.8995195  68.5429029  59.9409215  17.9474055  71.9270630
  60.2016032  18.8619388  71.8179790  60.7626387  17.4798497  72.0767243
  61.4134140  19.3611812  79.0969454  62.0857194  19.1529174  78.4482103
  60.5863927  19.1633898  78.6574687  75.6623402  26.1015862  78.6144788
  75.8559292  27.0061673  78.8604063  75.5624020  25.6423281  79.4483373
  67.3159712  15.9873753  81.1135115  66.6687627  16.6863702  81.0199592
  68.0860728  16.4209897  81.4811363  70.7238510  26.2522605  84.1885669
  70.5724017  26.0233157  83.2715752  70.7143190  27.2093206  84.2017014
  67.4923847  23.8254518  79.1731935  68.4215907  23.9765677  79.0000902
  67.0714877  23.9138538  78.3180582  66.2912179  27.8505182  76.9430473
  66.1523264  27.4823966  77.8156411  65.5026775  28.3652821  76.7714430
  67.8417394  27.2286785  74.3319310  67.5067226  27.1887555  75.2276960
  67.3421339  26.5631501  73.8589721  61.8161638  22.6354415  79.8571892
  61.6781436  21.9034654  80.4583431  62.7266561  22.5463315  79.5756079
  70.7776585  24.5742819  64.6056370  70.1605756  23.8489647  64.5089423
  70.3093074  25.3352179  64.2623444  64.4443938  22.3474374  79.3455571
  65.1543557  21.7067566  79.3042190  64.4013246  22.5987269  80.2681752
  72.4330717  29.2841727  82.2662150  72.3743263  28.6000948  81.5992733
  72.8350235  30.0260717  81.8142776  63.1572872  19.3339592  81.1651211
  62.6210229  18.8830330  81.8172807  62.5689581  19.4685501  80.4221675
  61.4521416  36.1003641  75.0595869  61.6918014  36.7322165  75.7374888
  60.6090612  35.7491681  75.3461229  62.5675131  18.7928243  63.7277674
  61.6904598  18.6717044  63.3639921  63.0432884  18.0014322  63.4756563
  72.4348124  27.2481311  80.4976130  71.5474903  26.9107233  80.6202529
  73.0046675  26.5164343  80.7344896  54.0877271  23.5805403  73.8219181
  54.7748311  23.2667133  73.2340197  53.9325400  24.4846768  73.5486433
  58.8911994  18.4695600  78.2504205  58.8070182  17.8621269  77.5154615
  58.0694700  18.9604618  78.2513702  65.9649278  31.9082764  77.4637373
  65.8919449  32.7137735  77.9756678  65.5226671  32.1074730  76.6385395
  65.7539057  31.1454534  70.9740195  64.9706579  31.6876214  71.0678419
  66.4531802  31.6628513  71.3734436  69.0635707  16.9549163  73.6174400
  69.5604407  16.2019126  73.2975470  68.2922689  16.9913480  73.0517610
  76.9165465  22.6589529  75.2592692  76.9055341  23.5414244  74.8886625
  76.0482844  22.3061080  75.0647229  68.4247961  31.8069598  79.6195532
  69.1375933  32.4417063  79.5471433  67.9337990  31.9033464  78.8035534
  70.1465488  25.7120850  71.1912824  69.2121767  25.8322313  71.0217528
  70.3242157  24.8093317  70.9272833  65.6470676  19.0966546  73.3446085
  65.2768464  18.5437587  74.0326990  66.1429769  18.4924680  72.7921085
  73.5338039  21.5538170  71.7262858  73.9998492  22.3866161  71.6523160
  73.9845540  21.0883151  72.4308116  63.4759875  29.5564041  80.4401103
  64.1769334  30.1900524  80.5930497  63.0054990  29.8978773  79.6796742
  71.5054702  13.9218757  75.7653759  70.5917782  14.1522984  75.9335966
  71.9347804  14.0057201  76.6167791  71.2761161  22.1108649  78.2653653
  70.6232611  22.3584556  77.6106106  71.6541541  21.2972787  77.9316130
  67.3248734  22.8528460  84.7519690  66.6489371  22.7522589  85.4222065
  68.1476368  22.6967673  85.2155687  59.0727593  29.0900396  77.3732205
  59.6581030  28.3444084  77.5060110  58.8752431  29.4004353  78.2568869
  61.9266248  32.1251644  72.3894648  61.2576623  32.6097771  71.9058688
  61.7879118  32.3720864  73.3038026  53.6645248  21.6605996  76.0936649
  53.7029347  21.1269587  76.8873767  53.1585540  21.1341202  75.4747626
  66.0671517  34.1595387  78.9877306  66.6189825  34.3227009  79.7526391
  66.4077710  34.7499825  78.3157331  61.0436010  16.5070537  79.5899191
  61.1077336  17.3685368  79.1776589  60.9803130  15.8944539  78.8571549
  60.5188282  18.5793670  83.2372225  61.1460321  18.1970747  83.8509750
  59.6616201  18.3607871  83.6027918  70.9182391  28.9856645  84.8425961
  71.4622295  29.5986603  84.3480915  70.3369236  29.5436223  85.3592974
  57.2953825  20.3870099  69.1690580  57.5907266  19.4780777  69.1157634
  56.3941861  20.3657838  68.8471582  69.2039904  32.1077363  75.9740988
  69.0791043  31.3067103  75.4651934  69.8618995  32.6023556  75.4854958
  60.8248072  18.4626095  75.1518129  60.1034658  19.0762063  75.0125602
  61.6141328  18.9983860  75.0734775  71.2674812  29.9086383  77.6020538
  70.3205148  29.7891734  77.5298865  71.6157585  29.0208881  77.6846800
  63.6274386  15.7980522  81.4258780  64.1508787  16.0442818  82.1885090
  63.4086719  16.6300557  81.0061918  59.0241667  18.0684196  69.2929905
  58.6954373  17.1881575  69.1105011  59.3781037  18.0131865  70.1806294
  68.2721246  29.7039099  73.8024891  68.1246208  28.7755806  73.9832461
  69.0974739  29.7259190  73.3181966  62.1383490  18.3557166  69.6605383
  62.4779562  18.8843087  68.9383991  62.5855610  18.6937572  70.4363949
  71.8755367  30.5267658  74.8889763  72.8001915  30.3210519  74.7514215
  71.7070671  30.2784059  75.7979105  64.8326931  16.7394217  79.1108451
  64.4923751  15.9402030  79.5129131  64.1265937  17.0395928  78.5385284
  65.4843402  13.8243529  77.5635774  66.3069472  13.3504007  77.4414664
  65.7281466  14.6034013  78.0634460  64.1251637  16.8531788  67.8598676
  64.8459999  17.2313040  67.3562392  63.5016941  17.5720665  67.9633654
  68.2682760  17.5576937  68.7957008  68.4846374  18.4401575  68.4945836
  67.7876827  17.1663150  68.0662650  63.0081981  20.5162650  75.3727753
  62.8626562  20.8302953  76.2652034  62.5307185  21.1347550  74.8198651
  64.8678364  17.5065198  75.4208642  64.8539933  16.6106291  75.0840940
  65.5850792  17.5135862  76.0546928  66.7204495  17.9402538  77.4661770
  66.4622273  18.8619609  77.4646100  66.1889535  17.5432973  78.1562234
  57.4827643  23.0567994  78.3115414  56.9381111  23.8327802  78.4435688
  58.3606993  23.4038799  78.1534535  64.2715260  16.3879578  70.6896212
  64.3931171  15.4596224  70.8887100  63.9817302  16.4018264  69.7774528
  67.1406450  14.0734489  73.8262932  67.1628147  14.1373822  72.8714912
  67.5574509  13.2338997  74.0203438  77.5190075  23.8089748  71.8642155
  77.9621221  23.0597073  71.4661278  76.6416585  23.7999885  71.4815887
  58.2693665  22.1837891  81.2045571  57.5275401  22.3320526  81.7910201
  57.9486410  22.4446156  80.3412320  74.5517279  27.8119795  68.8736084
  75.0768603  28.1507068  68.1485404  74.4639632  26.8766810  68.6899219
  66.2137328  31.7253869  81.0025961  66.5224454  31.4803016  81.8748660
  67.0112810  31.9300507  80.5144831  58.7150279  30.0703319  73.2355965
  59.5408299  29.7707091  72.8554609  58.3644331  29.3010942  73.6845754
  63.6831812  29.4229788  75.3053639  63.0611821  28.7600493  75.0055867
  64.3536679  29.4490919  74.6227287  56.9158884  27.9889646  74.1944899
  56.0790792  27.5611820  74.0128900  56.8882529  28.1822089  75.1315690
  63.7556340  17.9011576  84.8986145  63.8044495  18.7773698  84.5163914
  64.2978854  17.3588969  84.3257788  74.2411185  28.4452699  84.1787282
  73.4506729  28.4276838  83.6391781  74.0044540  28.9840992  84.9336318
  74.3609060  25.2945165  81.4920010  74.4107065  25.1295173  82.4335533
  74.2522984  24.4272424  81.1017891  63.2445319  27.9733711  68.7812099
  63.3933439  28.6569175  68.1278772  64.0511762  27.9538801  69.2961555
  71.6512823  21.2776093  82.8079317  72.5522685  21.1382558  82.5163315
  71.7260797  21.4430548  83.7477495  65.9855628  18.6542948  81.6532503
  65.1158937  18.9476514  81.3815092  66.2215108  19.2383393  82.3739767
  75.8627257  27.7142107  81.7362032  75.5712065  28.0772087  82.5725493
  75.2499388  27.0009115  81.5575364  77.0622939  25.2794986  74.2564602
  77.8969831  25.7184791  74.4202163  77.1982068  24.8033640  73.4372848
  74.1114445  22.8374721  80.2042090  74.5868567  23.0302368  79.3960941
  73.1880011  22.8933907  79.9585474  60.9997952  23.9998888  69.7873168
  60.7543994  23.0961218  69.9853378  61.1693867  24.0016039  68.8452646
  68.6894662  14.8722565  79.1697924  69.2076606  15.6083592  78.8444412
  68.3349795  15.1786558  80.0044683  60.2693600  19.7327246  67.2859330
  59.5762844  19.8071601  66.6299366  60.0245351  18.9687590  67.8080847
  68.9407256  11.2922847  74.6898820  69.2209010  10.6246036  75.3159247
  69.7257863  11.4851943  74.1773484  72.8116114  19.7140481  78.4370396
  73.7633537  19.8138579  78.4582620  72.6419565  18.9218750  78.9468480
  70.8330494  16.7996065  78.6229797  70.2380426  17.0801077  77.9276285
  70.5480191  17.2889966  79.3946538  75.2904192  22.9346601  77.5512695
  75.2580512  21.9962602  77.7372379  75.9004816  23.0130638  76.8178520
  67.1287523  21.8042654  63.5939899  68.0746628  21.6748862  63.6628317
  66.7501768  21.0657316  64.0709327  75.4398681  19.7257645  77.5970978
  74.9237729  18.9416101  77.4100907  76.3238629  19.3976361  77.7617498
  73.1009408  13.4698660  73.5566791  72.9034229  13.1613748  74.4410123
  73.7109113  14.1960299  73.6864721  81.1080742  23.9962608  76.6918732
  81.8384131  23.7347896  77.2526435  80.4987688  23.2591330  76.7320800
  79.1896039  22.1370470  77.2893183  78.4629203  22.0026435  76.6809675
  78.7743326  22.4447299  78.0949901  67.0126216  25.8560400  85.0540556
  67.9329225  26.0338999  85.2480603  66.9775799  24.9116446  84.9020256
  65.3130440  19.7292630  63.5294785  64.4061896  19.4325743  63.6057498
  65.5906421  19.4322449  62.6629071  56.2308381  21.0498994  73.9793831
  55.9111165  20.1964302  73.6868205  55.6841809  21.2647572  74.7351798
  60.0088288  23.7661435  77.6963337  60.2274298  24.6978543  77.7151371
  60.4214062  23.4069409  78.4818141  66.9292506  14.2729520  69.6839026
  66.1193234  13.9276605  70.0594272  67.6176923  13.9637064  70.2726637
  68.8583054  13.3507567  71.3063322  69.4114093  13.7703020  71.9653346
  69.0953141  12.4243315  71.3486278  64.8816153  19.3394641  87.0866086
  64.7812880  20.2888998  87.0178177  64.6637695  19.0112880  86.2142156
  64.0829225  16.5879566  63.6706764  64.9448389  16.9134464  63.9302581
  64.2679569  15.8011062  63.1579829  56.0996641  24.6701905  75.9486952
  55.4060112  24.2555858  75.4356907  56.8469632  24.7122442  75.3520371
  72.2361861  15.4608092  70.8141987  71.6560530  16.1192896  70.4320039
  71.9697794  14.6385437  70.4029404  70.6865428  14.8613150  73.0163307
  71.1865206  14.9729684  72.2077626  71.3301036  14.5574203  73.6564115
  64.7447423  22.7691779  85.9031148  64.2614505  23.5692140  86.1095037
  64.8308363  22.7799724  84.9498592  58.0133383  24.6020159  73.8252967
  57.9904071  24.7007846  72.8734850  58.3234020  25.4485310  74.1470133
  60.6720761  26.6596314  77.9399582  61.6264015  26.6280256  77.8729513
  60.4733285  26.1986938  78.7549808  61.2620143  25.2297430  80.5070379
  62.0813032  25.7241509  80.5305217  61.5356951  24.3129398  80.4787947
  71.0186739  17.6208182  69.8698335  70.1312594  17.9057833  69.6518530
  71.4340728  17.4601946  69.0225612  74.3701275  17.6454703  73.5852674
  75.1461666  18.1351156  73.8577291  73.6449410  18.0712758  74.0424544
  76.8073834  18.3582323  74.6426615  77.4018325  18.1178059  73.9319923
  76.8800418  17.6389453  75.2700151  59.0270990  32.2015934  74.9569780
  58.8925458  31.4416335  74.3907778  58.6103052  32.9256833  74.4898569
  70.9927763  23.1362718  70.0848625  70.9362964  23.5931270  69.2456258
  71.5456106  22.3753403  69.9071468  74.8032569  18.9252450  70.9098745
  74.5469503  18.5249086  71.7406952  74.1785437  19.6396244  70.7848884
  79.1144907  21.6648524  73.4170036  78.5544465  21.7341713  74.1901598
  78.5088410  21.4889508  72.6969532  62.1840116  33.0985251  75.1688222
  62.0672500  34.0430683  75.0666913  61.3632562  32.7958812  75.5574021
  71.7262542  24.3267500  67.3801154  71.6711346  24.1611771  66.4389598
  71.1008598  25.0343533  67.5363344  56.5155057  19.5635564  81.2062577
  57.1613921  19.0534518  81.6949802  56.3072208  20.3004246  81.7806002
  69.0408450  26.6316412  86.7054717  69.9099609  26.8057064  86.3441352
  68.5615201  27.4510828  86.5830446  65.0358668  13.8275609  66.9586473
  65.0237338  14.7717449  67.1154744  65.9282090  13.6445754  66.6645934
  63.2094630  33.7513513  78.3844151  64.1121876  33.7837123  78.7010646
  62.9832000  32.8213963  78.3990487  64.9648232  32.5044499  75.0454229
  64.0143863  32.5046361  74.9318602  65.2680718  31.7577234  74.5290264
  68.8510787  10.4218385  71.2132409  68.0843183   9.8676872  71.3589092
  69.2621492  10.4940254  72.0746561  60.8552548  16.7103181  85.3037591
  61.7184010  16.3539986  85.5140915  60.2817959  16.3717076  85.9912995
  80.7000925  38.3405037  76.1099992  81.3379335  38.2211785  75.4063332
  80.5821768  39.2885881  76.1687944  77.5090632  38.2932466  76.0461516
  77.1709143  38.1773530  75.1582051  78.3780400  37.8923631  76.0262523
  73.3677447  40.1467942  72.0358407  72.8042312  40.0557879  71.2674695
  73.2529842  39.3267846  72.5160900  77.9910415  39.4467317  82.0047722
  77.9799055  39.0520116  81.1328226  78.1531054  38.7133390  82.5981493
  70.9141879  41.6419134  74.8742628  71.7063171  41.3009958  74.4588927
  71.1538529  41.7514109  75.7944781  78.9477006  43.8138910  67.3472872
  78.2964986  44.3992990  66.9606886  79.7421369  44.3445105  67.4067910
  74.7117676  42.2304429  80.9526906  74.4207542  43.1350060  80.8373572
  75.3474660  42.2720957  81.6670976  75.6373883  39.6081278  77.5428266
  76.2337455  39.3837300  76.8285229  75.6948854  38.8666023  78.1453713
  80.2542194  36.0656491  73.1853200  81.0405283  35.6475914  72.8343617
  80.5180898  36.9702584  73.3534848  80.4252271  41.5029342  67.8841857
  79.7898104  41.5763968  68.5962761  80.0949678  42.0922940  67.2060936
  85.6550621  36.0031725  74.0886178  86.3875793  35.4330941  74.3224008
  84.8989977  35.6153325  74.5292684  77.2726741  38.4258966  71.2849521
  76.9084948  37.8989587  71.9962442  78.1293857  38.0357435  71.1116006
  83.1776041  29.7153299  78.5480787  82.8459366  30.5848710  78.3242002
  82.5821655  29.3989583  79.2274817  79.6707561  41.9165845  77.9476700
  79.3708284  42.8190883  77.8392507  79.3258620  41.6498028  78.7997853
  73.1220042  38.3679641  73.9813404  72.1970539  38.2355856  74.1891096
  73.3704455  39.1473861  74.4783346  83.0704705  34.4348385  75.6274137
  82.1621582  34.3663793  75.3332898  83.0192300  34.9120330  76.4555962
  70.4828853  38.0112915  74.8157193  70.6121234  38.2647394  75.7296605
  69.8026305  38.6040623  74.4961848  77.1445570  35.8538030  83.5709034
  76.3678904  36.4131951  83.5611899  77.7836133  36.3394813  84.0923904
  84.9366351  32.6364823  77.4052011  84.2940731  32.9297356  76.7591805
  84.4321279  32.5217744  78.2105208  75.3991943  38.6623484  83.1327001
  76.1406627  39.2008528  82.8561825  74.6928928  39.2889773  83.2898553
  80.8747282  40.8052624  81.7299163  81.2830638  40.3635035  80.9853795
  80.1524544  40.2305252  81.9833356  77.2278352  35.7425231  79.1032720
  78.0739548  36.1664645  79.2467369  77.1676990  35.0858855  79.7971283
  81.1976097  41.3653815  75.4851452  80.5684959  41.5299529  74.7827519
  80.8101759  41.7795424  76.2562416  85.0765329  42.3008253  72.8395815
  84.3916367  42.6807154  72.2892849  85.1609178  42.9103579  73.5727763
  80.3777798  33.4029599  80.7613893  80.1338730  34.1571660  80.2248169
  80.6537728  33.7814947  81.5961140  82.3316260  39.9468212  79.4391159
  82.5433156  40.5899972  78.7625540  82.2846009  39.1130528  78.9713089
  79.9342489  32.5586032  76.3427731  79.0726968  32.8567286  76.6344469
  79.9604924  32.7756431  75.4108764  76.7504059  41.1028223  72.7501537
  77.2142404  41.3815926  71.9606159  76.4860857  40.2011668  72.5674627
  73.6428140  40.6499704  75.6881300  74.2129497  41.0786973  75.0498784
  74.2336252  40.3682289  76.3865486  75.6872945  37.2251375  69.5591102
  76.3896988  37.6772419  70.0265028  75.3553573  36.5835194  70.1870995
  74.1353306  35.8163132  83.9342311  73.5051967  36.4979413  84.1677708
  74.0289394  35.7046214  82.9895449  69.4298279  35.4834928  74.8608235
  68.6397333  35.7392457  74.3848346  69.9209526  36.2983266  74.9660276
  83.4462088  42.8240167  77.6113516  84.2679532  42.4220354  77.3296198
  83.4424491  42.7208401  78.5629632  77.2118692  42.3724210  79.7674227
  77.2763124  42.8344618  80.6032399  76.5029616  41.7421575  79.8956537
  67.7135982  35.7365418  77.2923226  67.9644020  36.6212428  77.5580802
  68.2495530  35.5570020  76.5198318  91.5368081  39.1678916  73.9598488
  90.7831790  38.5986314  73.8042492  91.6715623  39.1341580  74.9069122
  76.9266709  44.0392318  69.6353207  76.7912384  44.8843854  70.0638055
  77.4676522  44.2411596  68.8719141  73.4134049  30.1183898  86.2967562
  73.0200995  29.5650096  86.9715207  74.2300189  30.4294476  86.6874080
  72.1890992  44.6733512  72.2903885  72.3657620  45.5951477  72.1024869
  72.9847825  44.3591931  72.7198265  76.3302010  31.5341777  83.8887819
  77.0711723  32.1348930  83.8092281  76.5619933  30.7919415  83.3305861
  71.4743348  36.7198144  82.1666049  71.3596863  35.8183401  82.4673147
  70.6187866  36.9661841  81.8150865  78.5535186  44.6615884  83.7653549
  78.1099040  43.8752263  83.4474454  79.2152399  44.8495035  83.0997440
  73.3122307  46.1911686  78.2914228  73.8629732  46.0628749  77.5191222
  72.4733783  46.4906575  77.9409120  80.6516424  44.9418684  81.7934950
  80.6334899  45.7627565  81.3015220  81.5736344  44.8172760  82.0185092
  77.1089478  42.4562814  82.6358459  77.6417815  41.6951102  82.4057767
  76.5803559  42.1636466  83.3782613  80.2759173  27.5622880  78.1652101
  79.9323442  28.4524521  78.0891211  80.6438136  27.3724537  77.3021686
  77.8256567  32.3981192  71.7309774  76.9698163  32.0088042  71.5515413
  78.2383519  32.4773153  70.8709560  79.3555713  29.9327535  76.1301334
  78.8520509  29.8957670  75.3169139  79.6486320  30.8420278  76.1897990
  75.5998599  30.0166265  75.1367516  76.4651596  29.8209073  74.7773405
  75.6676108  29.7876616  76.0636872  85.2143730  40.3063846  68.6077709
  84.4373173  39.9675005  68.1632871  85.8935211  40.3116469  67.9332674
  78.4742191  41.5848806  70.1477271  77.9463552  40.8501566  69.8350508
  77.9729694  42.3623483  69.9017239  83.4535037  39.7797827  75.2644317
  82.7958711  40.4697088  75.3524446  84.2575436  40.1694259  75.6078303
  73.2060918  32.2468473  72.5083882  73.7804670  32.0243654  71.7757075
  73.7931901  32.3157167  73.2612484  82.2640496  38.1342200  73.3148259
  82.7772377  38.7672191  73.8169969  82.9141720  37.5343395  72.9491619
  75.5083586  29.1209722  71.2358952  74.8547998  28.8058739  70.6115567
  75.4664060  28.4985462  71.9618775  78.7421326  35.6091655  75.5606599
  77.8243888  35.8306602  75.4028287  79.1581470  35.6837966  74.7018307
  79.5256374  37.0083071  70.6909280  80.2728193  37.5204468  70.3816402
  79.7947964  36.6867123  71.5513673  83.0302292  43.1148201  71.4427401
  82.5764619  42.2739111  71.4992592  82.3996259  43.7509599  71.7802182
  81.9735211  34.0440187  72.6728069  81.2357968  33.5317573  73.0038311
  82.2261985  33.6040569  71.8611346  81.4735231  44.9524698  72.3777220
  81.7658205  45.5129755  71.6589585  81.9833852  45.2453259  73.1330379
  82.0746839  26.8216439  73.2669838  82.3805716  25.9613802  72.9795753
  82.7999444  27.4134059  73.0668832  76.3467918  37.1170232  73.7746029
  76.4016528  36.1644068  73.6988506  75.5359120  37.2729671  74.2587328
  74.2860278  35.7347292  71.5336408  73.4728144  36.0341462  71.9401600
  74.7819273  35.3402981  72.2510890  76.4368856  45.7305049  73.4670673
  76.3945035  45.9565895  72.5379205  77.3531555  45.4968423  73.6156474
  79.8834490  36.1989116  80.3651302  80.2383878  36.4260589  81.2245768
  80.5306621  36.5307493  79.7428557  85.6132227  39.3207552  71.0700631
  85.4750126  39.5109148  70.1421820  85.2568446  40.0826935  71.5268682
  73.7774353  33.3065647  77.1497643  74.4173732  33.1654406  76.4520606
  72.9451884  33.0200161  76.7736245  85.6401607  41.3884079  76.0811903
  86.0738113  41.2959368  76.9294957  86.3533187  41.3641580  75.4431919
  74.5534657  42.6068078  73.2632636  75.3475256  42.1118398  73.0615211
  73.8426349  42.0785941  72.9000341  79.3729502  44.9886173  77.6145003
  79.4266524  45.5577110  78.3822719  78.5044283  45.1588058  77.2499040
  72.2527895  34.6903729  79.0969454  72.9250948  34.4821092  78.4482103
  71.4257681  34.4925815  78.6574687  86.5017156  41.4307780  78.6144788
  86.6953046  42.3353590  78.8604063  86.4017774  40.9715199  79.4483373
  78.1553467  31.3165670  81.1135115  77.5081382  32.0155620  81.0199592
  78.9254482  31.7501814  81.4811363  81.5632265  41.5814523  84.1885669
  81.4117771  41.3525074  83.2715752  81.5536944  42.5385124  84.2017014
  78.3317601  39.1546435  79.1731935  79.2609661  39.3057595  79.0000902
  77.9108631  39.2430456  78.3180582  77.1305933  43.1797100  76.9430473
  76.9917019  42.8115884  77.8156411  76.3420529  43.6944739  76.7714430
  78.6811148  42.5578702  74.3319310  78.3460981  42.5179472  75.2276960
  78.1815094  41.8923418  73.8589721  72.6555392  37.9646332  79.8571892
  72.5175190  37.2326571  80.4583431  73.5660316  37.8755233  79.5756079
  75.2837693  37.6766292  79.3455571  75.9937311  37.0359484  79.3042190
  75.2407001  37.9279187  80.2681752  83.2724471  44.6133645  82.2662150
  83.2137018  43.9292865  81.5992733  83.6743990  45.3552635  81.8142776
  73.9966627  34.6631510  81.1651211  73.4603984  34.2122248  81.8172807
  73.4083335  34.7977419  80.4221675  72.2915170  51.4295559  75.0595869
  72.5311769  52.0614083  75.7374888  71.4484367  51.0783599  75.3461229
  83.2741879  42.5773229  80.4976130  82.3868658  42.2399151  80.6202529
  83.8440430  41.8456260  80.7344896  69.7305748  33.7987517  78.2504205
  69.6463937  33.1913187  77.5154615  68.9088454  34.2896536  78.2513702
  76.8043032  47.2374681  77.4637373  76.7313204  48.0429653  77.9756678
  76.3620425  47.4366647  76.6385395  79.9029462  32.2841081  73.6174400
  80.3998161  31.5311043  73.2975470  79.1316443  32.3205398  73.0517610
  87.7559219  37.9881446  75.2592692  87.7449096  38.8706162  74.8886625
  86.8876599  37.6352997  75.0647229  79.2641716  47.1361515  79.6195532
  79.9769688  47.7708980  79.5471433  78.7731744  47.2325381  78.8035534
  80.9859243  41.0412768  71.1912824  80.0515521  41.1614231  71.0217528
  81.1635911  40.1385235  70.9272833  76.4864431  34.4258464  73.3446085
  76.1162218  33.8729504  74.0326990  76.9823523  33.8216597  72.7921085
  84.3731794  36.8830087  71.7262858  84.8392246  37.7158079  71.6523160
  84.8239294  36.4175069  72.4308116  74.3153629  44.8855959  80.4401103
  75.0163089  45.5192442  80.5930497  73.8448744  45.2270690  79.6796742
  82.4408025  43.2273909  68.7249010  82.7167869  43.1130503  69.6342884
  81.5712524  42.8291394  68.6861183  82.3448457  29.2510674  75.7653759
  81.4311536  29.4814901  75.9335966  82.7741558  29.3349118  76.6167791
  82.1154915  37.4400566  78.2653653  81.4626365  37.6876474  77.6106106
  82.4935295  36.6264705  77.9316130  79.0762089  47.4760260  72.3681823
  79.2584484  46.6581915  72.8309576  79.8995075  47.6927952  71.9306713
  79.4104255  46.4028445  69.6296872  79.9392021  45.8920899  69.0167034
  79.6732474  46.0870975  70.4942405  78.1642488  38.1820377  84.7519690
  77.4883125  38.0814507  85.4222065  78.9870122  38.0259591  85.2155687
  69.9121347  44.4192314  77.3732205  70.4974784  43.6736002  77.5060110
  69.7146186  44.7296271  78.2568869  64.5039002  36.9897914  76.0936649
  64.5423102  36.4561505  76.8873767  63.9979295  36.4633120  75.4747626
  76.9065271  49.4887305  78.9877306  77.4583579  49.6518926  79.7526391
  77.2471465  50.0791743  78.3157331  71.8829764  31.8362455  79.5899191
  71.9471091  32.6977286  79.1776589  71.8196885  31.2236456  78.8571549
  71.3582037  33.9085587  83.2372225  71.9854076  33.5262665  83.8509750
  70.5009956  33.6899789  83.6027918  81.7576145  44.3148562  84.8425961
  82.3016049  44.9278521  84.3480915  81.1762990  44.8728141  85.3592974
  80.0433658  47.4369280  75.9740988  79.9184798  46.6359020  75.4651934
  80.7012749  47.9315474  75.4854958  71.6641827  33.7918013  75.1518129
  70.9428412  34.4053981  75.0125602  72.4535082  34.3275778  75.0734775
  82.1068567  45.2378300  77.6020538  81.1598902  45.1183652  77.5298865
  82.4551340  44.3500799  77.6846800  74.4668140  31.1272439  81.4258780
  74.9902542  31.3734736  82.1885090  74.2480473  31.9592474  81.0061918
  79.1115000  45.0331017  73.8024891  78.9639962  44.1047724  73.9832461
  79.9368494  45.0551107  73.3181966  82.7149122  45.8559575  74.8889763
  83.6395669  45.6502437  74.7514215  82.5464425  45.6075977  75.7979105
  75.6720685  32.0686135  79.1108451  75.3317506  31.2693948  79.5129131
  74.9659691  32.3687845  78.5385284  76.3237157  29.1535447  77.5635774
  77.1463226  28.6795925  77.4414664  76.5675221  29.9325931  78.0634460
  79.1076514  32.8868854  68.7957008  79.3240129  33.7693492  68.4945836
  78.6270581  32.4955068  68.0662650  73.8475736  35.8454568  75.3727753
  73.7020316  36.1594871  76.2652034  73.3700939  36.4639468  74.8198651
  75.7072119  32.8357116  75.4208642  75.6933687  31.9398209  75.0840940
  76.4244547  32.8427779  76.0546928  77.5598249  33.2694456  77.4661770
  77.3016027  34.1911526  77.4646100  77.0283290  32.8724890  78.1562234
  82.5044438  46.3745243  70.2451855  82.6781316  45.8091665  69.4925707
  82.9973329  47.1746138  70.0631345  68.3221398  38.3859912  78.3115414
  67.7774866  39.1619720  78.4435688  69.2000748  38.7330716  78.1534535
  75.1109015  31.7171496  70.6896212  75.2324926  30.7888142  70.8887100
  74.8211057  31.7310182  69.7774528  77.9800205  29.4026406  73.8262932
  78.0021902  29.4665739  72.8714912  78.3968264  28.5630915  74.0203438
  88.3583829  39.1381666  71.8642155  88.8014975  38.3888991  71.4661278
  87.4810340  39.1291802  71.4815887  83.4919611  45.6912007  67.3448753
  84.1870515  46.3118700  67.5636068  83.8342761  44.8407359  67.6201131
  69.1087420  37.5129808  81.2045571  68.3669156  37.6612444  81.7910201
  68.7880164  37.7738074  80.3412320  85.3911034  43.1411713  68.8736084
  85.9162358  43.4798986  68.1485404  85.3033386  42.2058728  68.6899219
  77.0531082  47.0545786  81.0025961  77.3618209  46.8094933  81.8748660
  77.8506564  47.2592425  80.5144831  69.5544033  45.3995237  73.2355965
  70.3802053  45.0999009  72.8554609  69.2038085  44.6302859  73.6845754
  74.5225567  44.7521705  75.3053639  73.9005576  44.0892410  75.0055867
  75.1930433  44.7782837  74.6227287  67.7552638  43.3181563  74.1944899
  66.9184547  42.8903738  74.0128900  67.7276284  43.5114007  75.1315690
  74.5950094  33.2303493  84.8986145  74.6438250  34.1065616  84.5163914
  75.1372608  32.6880886  84.3257788  85.0804940  43.7744616  84.1787282
  84.2900483  43.7568755  83.6391781  84.8438294  44.3132910  84.9336318
  85.2002815  40.6237083  81.4920010  85.2500820  40.4587090  82.4335533
  85.0916738  39.7564342  81.1017891  74.0839074  43.3025629  68.7812099
  74.2327194  43.9861093  68.1278772  74.8905517  43.2830719  69.2961555
  82.4906577  36.6068011  82.8079317  83.3916440  36.4674476  82.5163315
  82.5654552  36.7722466  83.7477495  76.8249383  33.9834866  81.6532503
  75.9552692  34.2768432  81.3815092  77.0608863  34.5675311  82.3739767
  86.7021012  43.0434024  81.7362032  86.4105820  43.4064005  82.5725493
  86.0893143  42.3301033  81.5575364  87.9016694  40.6086904  74.2564602
  88.7363585  41.0476708  74.4202163  88.0375823  40.1325557  73.4372848
  84.9508200  38.1666639  80.2042090  85.4262321  38.3594285  79.3960941
  84.0273765  38.2225825  79.9585474  79.5288416  30.2014483  79.1697924
  80.0470360  30.9375509  78.8444412  79.1743549  30.5078476  80.0044683
  79.7801011  26.6214765  74.6898820  80.0602764  25.9537954  75.3159247
  80.5651617  26.8143861  74.1773484  83.6509869  35.0432399  78.4370396
  84.6027292  35.1430497  78.4582620  83.4813319  34.2510668  78.9468480
  81.6724248  32.1287982  78.6229797  81.0774180  32.4092995  77.9276285
  81.3873945  32.6181883  79.3946538  86.1297947  38.2638519  77.5512695
  86.0974267  37.3254519  77.7372379  86.7398570  38.3422555  76.8178520
  86.2792435  35.0549562  77.5970978  85.7631484  34.2708019  77.4100907
  87.1632384  34.7268279  77.7617498  83.9403162  28.7990578  73.5566791
  83.7427983  28.4905666  74.4410123  84.5502868  29.5252217  73.6864721
  91.9474497  39.3254526  76.6918732  92.6777885  39.0639814  77.2526435
  91.3381442  38.5883248  76.7320800  90.0289794  37.4662388  77.2893183
  89.3022957  37.3318353  76.6809675  89.6137081  37.7739217  78.0949901
  77.8519970  41.1852318  85.0540556  78.7722980  41.3630917  85.2480603
  77.8169553  40.2408363  84.9020256  70.8482043  39.0953353  77.6963337
  71.0668052  40.0270460  77.7151371  71.2607816  38.7361327  78.4818141
  77.7686260  29.6021438  69.6839026  76.9586989  29.2568523  70.0594272
  78.4570677  29.2928982  70.2726637  79.6976809  28.6799485  71.3063322
  80.2507847  29.0994938  71.9653346  79.9346895  27.7535233  71.3486278
  75.7209908  34.6686558  87.0866086  75.6206635  35.6180915  87.0178177
  75.5031450  34.3404797  86.2142156  66.9390395  39.9993823  75.9486952
  66.2453866  39.5847776  75.4356907  67.6863386  40.0414360  75.3520371
  83.0755616  30.7900010  70.8141987  82.4954285  31.4484814  70.4320039
  82.8091548  29.9677354  70.4029404  81.5259182  30.1905068  73.0163307
  82.0258961  30.3021602  72.2077626  82.1694790  29.8866120  73.6564115
  75.5841178  38.0983697  85.9031148  75.1008260  38.8984057  86.1095037
  75.6702117  38.1091642  84.9498592  71.5114515  41.9888232  77.9399582
  72.4657769  41.9572174  77.8729513  71.3127039  41.5278856  78.7549808
  72.1013898  40.5589348  80.5070379  72.9206787  41.0533427  80.5305217
  72.3750705  39.6421316  80.4787947  81.8580494  32.9500100  69.8698335
  80.9706349  33.2349751  69.6518530  82.2734483  32.7893864  69.0225612
  85.2095030  32.9746621  73.5852674  85.9855420  33.4643074  73.8577291
  84.4843164  33.4004675  74.0424544  87.6467589  33.6874240  74.6426615
  88.2412079  33.4469976  73.9319923  87.7194172  32.9681371  75.2700151
  69.8664744  47.5307851  74.9569780  69.7319212  46.7708252  74.3907778
  69.4496807  48.2548751  74.4898569  81.8321518  38.4654636  70.0848625
  81.7756719  38.9223188  69.2456258  82.3849860  37.7045321  69.9071468
  85.6426323  34.2544368  70.9098745  85.3863258  33.8541004  71.7406952
  85.0179191  34.9688162  70.7848884  89.9538661  36.9940441  73.4170036
  89.3938219  37.0633631  74.1901598  89.3482165  36.8181426  72.6969532
  73.0233870  48.4277168  75.1688222  72.9066254  49.3722601  75.0666913
  72.2026316  48.1250730  75.5574021  82.5656297  39.6559417  67.3801154
  82.5105101  39.4903689  66.4389598  81.9402352  40.3635450  67.5363344
  67.3548812  34.8927482  81.2062577  68.0007675  34.3826436  81.6949802
  67.1465963  35.6296163  81.7806002  79.8802204  41.9608329  86.7054717
  80.7493364  42.1348982  86.3441352  79.4008956  42.7802746  86.5830446
  74.0488384  49.0805430  78.3844151  74.9515631  49.1129040  78.7010646
  73.8225754  48.1505881  78.3990487  75.8041986  47.8336417  75.0454229
  74.8537617  47.8338278  74.9318602  76.1074472  47.0869151  74.5290264
  79.6904542  25.7510303  71.2132409  78.9236938  25.1968790  71.3589092
  80.1015247  25.8232172  72.0746561  71.6946303  32.0395099  85.3037591
  72.5577764  31.6831904  85.5140915  71.1211713  31.7008994  85.9912995
  91.5394680  53.6696955  76.1099992  92.1773090  53.5503703  75.4063332
  91.4215523  54.6177799  76.1687944  88.3484386  53.6224383  76.0461516
  88.0102898  53.5065448  75.1582051  89.2174154  53.2215548  76.0262523
  88.8304169  54.7759235  82.0047722  88.8192810  54.3812033  81.1328226
  88.9924809  54.0425308  82.5981493  81.7535634  56.9711051  74.8742628
  82.5456926  56.6301876  74.4588927  81.9932284  57.0806026  75.7944781
  85.5511430  57.5596347  80.9526906  85.2601296  58.4641978  80.8373572
  86.1868415  57.6012874  81.6670976  86.4767637  54.9373195  77.5428266
  87.0731209  54.7129218  76.8285229  86.5342609  54.1957941  78.1453713
  91.0935948  51.3948409  73.1853200  91.8799037  50.9767832  72.8343617
  91.3574653  52.2994501  73.3534848  96.4944375  51.3323642  74.0886178
  97.2269547  50.7622859  74.3224008  95.7383731  50.9445243  74.5292684
  88.1120495  53.7550884  71.2849521  87.7478702  53.2281505  71.9962442
  88.9687611  53.3649353  71.1116006  94.0169796  45.0445216  78.5480787
  93.6853121  45.9140627  78.3242002  93.4215409  44.7281500  79.2274817
  83.9613797  53.6971559  73.9813404  83.0364293  53.5647773  74.1891096
  84.2098210  54.4765778  74.4783346  93.9098459  49.7640303  75.6274137
  93.0015336  49.6955711  75.3332898  93.8586055  50.2412247  76.4555962
  81.3222608  53.3404833  74.8157193  81.4514989  53.5939312  75.7296605
  80.6420059  53.9332541  74.4961848  87.9839325  51.1829948  83.5709034
  87.2072659  51.7423868  83.5611899  88.6229888  51.6686731  84.0923904
  95.7760105  47.9656741  77.4052011  95.1334486  48.2589274  76.7591805
  95.2715034  47.8509661  78.2105208  93.4300269  51.7119914  68.0937870
  94.3418125  51.9447301  67.9185568  92.9209916  52.2956958  67.5312949
  86.2385697  53.9915401  83.1327001  86.9800382  54.5300445  82.8561825
  85.5322683  54.6181690  83.2898553  91.7141037  56.1344542  81.7299163
  92.1224393  55.6926952  80.9853795  90.9918298  55.5597169  81.9833356
  88.0672107  51.0717149  79.1032720  88.9133302  51.4956562  79.2467369
  88.0070744  50.4150773  79.7971283  95.9159083  57.6300170  72.8395815
  95.2310121  58.0099072  72.2892849  96.0002933  58.2395497  73.5727763
  91.2171552  48.7321517  80.7613893  90.9732484  49.4863578  80.2248169
  91.4931483  49.1106865  81.5961140  93.1710015  55.2760129  79.4391159
  93.3826910  55.9191889  78.7625540  93.1239763  54.4422446  78.9713089
  90.7736244  47.8877950  76.3427731  89.9120723  48.1859204  76.6344469
  90.7998679  48.1048349  75.4108764  84.4821894  55.9791622  75.6881300
  85.0523251  56.4078891  75.0498784  85.0730006  55.6974207  76.3865486
  86.5266699  52.5543293  69.5591102  87.2290743  53.0064337  70.0265028
  86.1947328  51.9127112  70.1870995  84.9747061  51.1455050  83.9342311
  84.3445721  51.8271330  84.1677708  84.8683149  51.0338131  82.9895449
  80.2692033  50.8126846  74.8608235  79.4791087  51.0684374  74.3848346
  80.7603281  51.6275184  74.9660276  94.2855843  58.1532085  77.6113516
  95.1073287  57.7512272  77.3296198  94.2818246  58.0500319  78.5629632
  88.0512446  57.7016128  79.7674227  88.1156879  58.1636535  80.6032399
  87.3423370  57.0713493  79.8956537  78.5529736  51.0657336  77.2923226
  78.8037775  51.9504346  77.5580802  79.0889285  50.8861938  76.5198318
 102.3761836  54.4970833  73.9598488 101.6225544  53.9278231  73.8042492
 102.5109377  54.4633498  74.9069122  84.2527804  45.4475815  86.2967562
  83.8594749  44.8942014  86.9715207  85.0693944  45.7586394  86.6874080
  87.1695765  46.8633695  83.8887819  87.9105478  47.4640848  83.8092281
  87.4013687  46.1211332  83.3305861  82.3137103  52.0490062  82.1666049
  82.1990618  51.1475319  82.4673147  81.4581620  52.2953759  81.8150865
  89.3928940  59.9907802  83.7653549  88.9492795  59.2044181  83.4474454
  90.0546154  60.1786953  83.0997440  84.1516062  61.5203604  78.2914228
  84.7023487  61.3920667  77.5191222  83.3127537  61.8198493  77.9409120
  91.4910178  60.2710602  81.7934950  91.4728654  61.0919483  81.3015220
  92.4130098  60.1464677  82.0185092  87.9483233  57.7854732  82.6358459
  88.4811569  57.0243020  82.4057767  87.4197314  57.4928383  83.3782613
  91.1152928  42.8914797  78.1652101  90.7717197  43.7816439  78.0891211
  91.4831890  42.7016455  77.3021686  88.6650321  47.7273109  71.7309774
  87.8091918  47.3379960  71.5515413  89.0777273  47.8065070  70.8709560
  90.1949468  45.2619453  76.1301334  89.6914264  45.2249588  75.3169139
  90.4880075  46.1712195  76.1897990  86.4392354  45.3458182  75.1367516
  87.3045351  45.1500991  74.7773405  86.5069863  45.1168534  76.0636872
  96.0537484  55.6355763  68.6077709  95.2766927  55.2966923  68.1632871
  96.7328965  55.6408386  67.9332674  90.8689513  50.7550501  68.4984317
  90.5639649  51.0696650  69.3494460  91.8219956  50.8331921  68.5411650
  94.2928791  55.1089745  75.2644317  93.6352466  55.7989006  75.3524446
  95.0969191  55.4986176  75.6078303  84.0454673  47.5760390  72.5083882
  84.6198425  47.3535572  71.7757075  84.6325655  47.6449085  73.2612484
  93.1034250  53.4634117  73.3148259  93.6166132  54.0964109  73.8169969
  93.7535474  52.8635313  72.9491619  86.3477341  44.4501639  71.2358952
  85.6941753  44.1350656  70.6115567  86.3057815  43.8277380  71.9618775
  89.5815081  50.9383573  75.5606599  88.6637642  51.1598520  75.4028287
  89.9975225  51.0129883  74.7018307  90.3650129  52.3374988  70.6909280
  91.1121948  52.8496386  70.3816402  90.6341718  52.0159041  71.5513673
  92.8128966  49.3732105  72.6728069  92.0751723  48.8609491  73.0038311
  93.0655739  48.9332486  71.8611346  92.9140593  42.1508357  73.2669838
  93.2199470  41.2905720  72.9795753  93.6393198  42.7425977  73.0668832
  87.1861673  52.4462150  73.7746029  87.2410283  51.4935986  73.6988506
  86.3752875  52.6021589  74.2587328  85.1254033  51.0639209  71.5336408
  84.3121898  51.3633380  71.9401600  85.6213027  50.6694898  72.2510890
  90.7228245  51.5281034  80.3651302  91.0777632  51.7552507  81.2245768
  91.3700376  51.8599411  79.7428557  96.4525981  54.6499470  71.0700631
  96.3143880  54.8401066  70.1421820  96.0962200  55.4118853  71.5268682
  84.6168108  48.6357565  77.1497643  85.2567487  48.4946324  76.4520606
  83.7845638  48.3492078  76.7736245  96.4795361  56.7175997  76.0811903
  96.9131868  56.6251286  76.9294957  97.1926942  56.6933497  75.4431919
  81.6196724  48.6057890  71.9270630  81.8803541  49.5203223  71.8179790
  82.4413896  48.1382333  72.0767243  83.0921649  50.0195647  79.0969454
  83.7644703  49.8113009  78.4482103  82.2651436  49.8217733  78.6574687
  97.3410911  56.7599698  78.6144788  97.5346801  57.6645508  78.8604063
  97.2411529  56.3007117  79.4483373  88.9947221  46.6457588  81.1135115
  88.3475136  47.3447538  81.0199592  89.7648237  47.0793732  81.4811363
  92.4026019  56.9106440  84.1885669  92.2511526  56.6816992  83.2715752
  92.3930699  57.8677042  84.2017014  89.1711356  54.4838353  79.1731935
  90.1003416  54.6349513  79.0000902  88.7502386  54.5722374  78.3180582
  83.4949147  53.2938250  79.8571892  83.3568945  52.5618489  80.4583431
  84.4054070  53.2047150  79.5756079  86.1231447  53.0058209  79.3455571
  86.8331066  52.3651402  79.3042190  86.0800755  53.2571104  80.2681752
  94.1118226  59.9425563  82.2662150  94.0530772  59.2584783  81.5992733
  94.5137744  60.6844553  81.8142776  84.8360381  49.9923427  81.1651211
  84.2997738  49.5414166  81.8172807  84.2477090  50.1269336  80.4221675
  83.1308925  66.7587477  75.0595869  83.3705523  67.3906001  75.7374888
  82.2878121  66.4075517  75.3461229  94.1135633  57.9065147  80.4976130
  93.2262412  57.5691069  80.6202529  94.6834184  57.1748178  80.7344896
  80.5699503  49.1279435  78.2504205  80.4857691  48.5205105  77.5154615
  79.7482209  49.6188453  78.2513702  87.6436787  62.5666599  77.4637373
  87.5706958  63.3721571  77.9756678  87.2014180  62.7658565  76.6385395
  90.7423216  47.6132999  73.6174400  91.2391916  46.8602961  73.2975470
  89.9710198  47.6497315  73.0517610  98.5952974  53.3173364  75.2592692
  98.5842850  54.1998080  74.8886625  97.7270353  52.9644915  75.0647229
  90.1035470  62.4653433  79.6195532  90.8163442  63.1000898  79.5471433
  89.6125499  62.5617299  78.8035534  87.3258185  49.7550382  73.3446085
  86.9555973  49.2021422  74.0326990  87.8217278  49.1508515  72.7921085
  95.2125548  52.2122005  71.7262858  95.6786001  53.0449997  71.6523160
  95.6633049  51.7466987  72.4308116  85.1547384  60.2147877  80.4401103
  85.8556843  60.8484360  80.5930497  84.6842499  60.5562608  79.6796742
  93.1842211  44.5802592  75.7653759  92.2705291  44.8106819  75.9335966
  93.6135313  44.6641036  76.6167791  92.9548670  52.7692484  78.2653653
  92.3020120  53.0168391  77.6106106  93.3329050  51.9556622  77.9316130
  89.0036243  53.5112295  84.7519690  88.3276880  53.4106424  85.4222065
  89.8263877  53.3551509  85.2155687  80.7515102  59.7484232  77.3732205
  81.3368539  59.0027920  77.5060110  80.5539940  60.0588188  78.2568869
  75.3432756  52.3189832  76.0936649  75.3816856  51.7853423  76.8873767
  74.8373049  51.7925037  75.4747626  87.7459026  64.8179223  78.9877306
  88.2977334  64.9810844  79.7526391  88.0865219  65.4083660  78.3157331
  82.7223519  47.1654372  79.5899191  82.7864845  48.0269203  79.1776589
  82.6590639  46.5528374  78.8571549  82.1975791  49.2377505  83.2372225
  82.8247830  48.8554582  83.8509750  81.3403710  49.0191707  83.6027918
  92.5969900  59.6440480  84.8425961  93.1409804  60.2570438  84.3480915
  92.0156745  60.2020058  85.3592974  82.5035581  49.1209931  75.1518129
  81.7822167  49.7345898  75.0125602  83.2928837  49.6567695  75.0734775
  92.9462321  60.5670218  77.6020538  91.9992657  60.4475569  77.5298865
  93.2945094  59.6792716  77.6846800  85.3061895  46.4564357  81.4258780
  85.8296296  46.7026654  82.1885090  85.0874228  47.2884392  81.0061918
  83.8170999  49.0141001  69.6605383  84.1567071  49.5426923  68.9383991
  84.2643119  49.3521408  70.4363949  86.5114440  47.3978052  79.1108451
  86.1711260  46.5985865  79.5129131  85.8053446  47.6979763  78.5385284
  87.1630911  44.4827365  77.5635774  87.9856981  44.0087843  77.4414664
  87.4068975  45.2617848  78.0634460  89.9470269  48.2160772  68.7957008
  90.1633883  49.0985410  68.4945836  89.4664336  47.8246985  68.0662650
  84.6869490  51.1746485  75.3727753  84.5414071  51.4886788  76.2652034
  84.2094694  51.7931386  74.8198651  86.5465873  48.1649033  75.4208642
  86.5327442  47.2690127  75.0840940  87.2638301  48.1719697  76.0546928
  88.3992004  48.5986373  77.4661770  88.1409782  49.5203444  77.4646100
  87.8677044  48.2016808  78.1562234  79.1615152  53.7151830  78.3115414
  78.6168620  54.4911638  78.4435688  80.0394502  54.0622634  78.1534535
  85.9502769  47.0463414  70.6896212  86.0718680  46.1180060  70.8887100
  85.6604811  47.0602099  69.7774528  88.8193959  44.7318324  73.8262932
  88.8415656  44.7957657  72.8714912  89.2362018  43.8922833  74.0203438
  99.1977584  54.4673584  71.8642155  99.6408730  53.7180909  71.4661278
  98.3204094  54.4583720  71.4815887  79.9481174  52.8421726  81.2045571
  79.2062910  52.9904361  81.7910201  79.6273919  53.1029992  80.3412320
  96.2304788  58.4703630  68.8736084  96.7556112  58.8090903  68.1485404
  96.1427141  57.5350646  68.6899219  87.8924837  62.3837704  81.0025961
  88.2011963  62.1386851  81.8748660  88.6900319  62.5884343  80.5144831
  85.4343849  48.5595411  84.8986145  85.4832004  49.4357534  84.5163914
  85.9766363  48.0172804  84.3257788  95.9198694  59.1036534  84.1787282
  95.1294238  59.0860673  83.6391781  95.6832049  59.6424828  84.9336318
  96.0396569  55.9529001  81.4920010  96.0894574  55.7879008  82.4335533
  95.9310493  55.0856260  81.1017891  93.3300332  51.9359929  82.8079317
  94.2310194  51.7966393  82.5163315  93.4048306  52.1014383  83.7477495
  87.6643137  49.3126783  81.6532503  86.7946446  49.6060349  81.3815092
  87.9002617  49.8967228  82.3739767  97.5414766  58.3725942  81.7362032
  97.2499574  58.7355923  82.5725493  96.9286897  57.6592950  81.5575364
  98.7410448  55.9378822  74.2564602  99.5757340  56.3768626  74.4202163
  98.8769577  55.4617475  73.4372848  95.7901954  53.4958557  80.2042090
  96.2656076  53.6886203  79.3960941  94.8667520  53.5517742  79.9585474
  90.3682171  45.5306400  79.1697924  90.8864115  46.2667427  78.8444412
  90.0137304  45.8370394  80.0044683  90.6194765  41.9506683  74.6898820
  90.8996519  41.2829872  75.3159247  91.4045372  42.1435778  74.1773484
  94.4903623  50.3724317  78.4370396  95.4421046  50.4722414  78.4582620
  94.3207074  49.5802585  78.9468480  92.5118003  47.4579900  78.6229797
  91.9167935  47.7384913  77.9276285  92.2267700  47.9473801  79.3946538
  94.2713510  60.7268697  64.3436377  94.1927142  60.3928561  65.2372135
  95.0923177  61.2190465  64.3427849  96.9691701  53.5930436  77.5512695
  96.9368021  52.6546437  77.7372379  97.5792325  53.6714473  76.8178520
  97.1186190  50.3841480  77.5970978  96.6025238  49.5999936  77.4100907
  98.0026138  50.0560196  77.7617498  94.7796917  44.1282495  73.5566791
  94.5821738  43.8197584  74.4410123  95.3896622  44.8544134  73.6864721
 102.7868251  54.6546443  76.6918732 103.5171639  54.3931731  77.2526435
 102.1775196  53.9175165  76.7320800 100.8683548  52.7954306  77.2893183
 100.1416712  52.6610271  76.6809675 100.4530835  53.1031134  78.0949901
  88.6913725  56.5144236  85.0540556  89.6116734  56.6922835  85.2480603
  88.6563308  55.5700281  84.9020256  77.9095890  51.7082829  73.9793831
  77.5898674  50.8548137  73.6868205  77.3629318  51.9231407  74.7351798
  81.6875797  54.4245270  77.6963337  81.9061807  55.3562378  77.7151371
  82.1001571  54.0653245  78.4818141  88.6080015  44.9313356  69.6839026
  87.7980743  44.5860440  70.0594272  89.2964432  44.6220899  70.2726637
  90.5370563  44.0091402  71.3063322  91.0901602  44.4286856  71.9653346
  90.7740650  43.0827150  71.3486278  86.5603662  49.9978476  87.0866086
  86.4600389  50.9472833  87.0178177  86.3425204  49.6696715  86.2142156
  77.7784150  55.3285741  75.9486952  77.0847621  54.9139693  75.4356907
  78.5257141  55.3706277  75.3520371  93.9149370  46.1191927  70.8141987
  93.3348039  46.7776731  70.4320039  93.6485303  45.2969272  70.4029404
  92.3652937  45.5196985  73.0163307  92.8652715  45.6313520  72.2077626
  93.0088545  45.2158038  73.6564115  86.4234932  53.4275615  85.9031148
  85.9402014  54.2275975  86.1095037  86.5095872  53.4383560  84.9498592
  82.3508270  57.3180149  77.9399582  83.3051524  57.2864092  77.8729513
  82.1520794  56.8570773  78.7549808  82.9407652  55.8881266  80.5070379
  83.7600541  56.3825344  80.5305217  83.2144460  54.9713234  80.4787947
  92.6974248  48.2792018  69.8698335  91.8100103  48.5641668  69.6518530
  93.1128237  48.1185781  69.0225612  96.0488784  48.3038539  73.5852674
  96.8249175  48.7934991  73.8577291  95.3236919  48.7296593  74.0424544
  98.4861343  49.0166158  74.6426615  99.0805834  48.7761894  73.9319923
  98.5587927  48.2973289  75.2700151  80.7058499  62.8599769  74.9569780
  80.5712967  62.1000170  74.3907778  80.2890561  63.5840669  74.4898569
  92.6715272  53.7946554  70.0848625  92.6150473  54.2515105  69.2456258
  93.2243615  53.0337238  69.9071468  96.4820078  49.5836286  70.9098745
  96.2257012  49.1832921  71.7406952  95.8572946  50.2980080  70.7848884
 100.7932416  52.3232359  73.4170036 100.2331974  52.3925548  74.1901598
 100.1875919  52.1473344  72.6969532  83.8627625  63.7569086  75.1688222
  83.7460009  64.7014518  75.0666913  83.0420071  63.4542648  75.5574021
  93.4050051  54.9851335  67.3801154  93.3498855  54.8195606  66.4389598
  92.7796107  55.6927368  67.5363344  78.1942566  50.2219399  81.2062577
  78.8401430  49.7118353  81.6949802  77.9859717  50.9588081  81.7806002
  90.7195959  57.2900247  86.7054717  91.5887118  57.4640899  86.3441352
  90.2402710  58.1094664  86.5830446  86.7146177  44.4859444  66.9586473
  86.7024847  45.4301284  67.1154744  87.6069599  44.3029589  66.6645934
  84.8882139  64.4097348  78.3844151  85.7909385  64.4420958  78.7010646
  84.6619509  63.4797799  78.3990487  90.5298296  41.0802221  71.2132409
  89.7630692  40.5260707  71.3589092  90.9409001  41.1524089  72.0746561
  82.5340057  47.3687016  85.3037591  83.3971519  47.0123821  85.5140915
  81.9605468  47.0300911  85.9912995 102.3788434  68.9988873  76.1099992
 103.0166844  68.8795620  75.4063332 102.2609277  69.9469717  76.1687944
  99.1878141  68.9516301  76.0461516  98.8496652  68.8357366  75.1582051
 100.0567909  68.5507466  76.0262523  95.0464956  70.8051777  72.0358407
  94.4829821  70.7141714  71.2674695  94.9317351  69.9851682  72.5160900
  99.6697924  70.1051153  82.0047722  99.6586564  69.7103951  81.1328226
  99.8318563  69.3717225  82.5981493  92.5929388  72.3002969  74.8742628
  93.3850680  71.9593794  74.4588927  92.8326038  72.4097944  75.7944781
 100.6264515  74.4722745  67.3472872  99.9752495  75.0576825  66.9606886
 101.4208878  75.0028940  67.4067910  94.5520142  71.5611882  67.7460007
  95.3251018  71.0140869  67.6072882  94.9045541  72.4256132  67.9574468
  96.3905185  72.8888264  80.9526906  96.0995051  73.7933895  80.8373572
  97.0262169  72.9304792  81.6670976  97.3161392  70.2665113  77.5428266
  97.9124964  70.0421135  76.8285229  97.3736363  69.5249858  78.1453713
  96.8886420  67.7204548  65.3778457  97.1411941  67.1986070  64.6161920
  95.9510979  67.5570694  65.4805140 101.9329703  66.7240327  73.1853200
 102.7192792  66.3059750  72.8343617 102.1968407  67.6286419  73.3534848
 102.1039780  72.1613177  67.8841857 101.4685613  72.2347804  68.5962761
 101.7737187  72.7506776  67.2060936 107.3338130  66.6615560  74.0886178
 108.0663302  66.0914777  74.3224008 106.5777486  66.2737160  74.5292684
  96.6082709  69.6232654  67.5802832  96.4918967  68.9477558  68.2483916
  96.7184969  69.1365028  66.7634985  98.9514250  69.0842801  71.2849521
  98.5872457  68.5573422  71.9962442  99.8081366  68.6941270  71.1116006
 104.8563550  60.3737134  78.5480787 104.5246875  61.2432545  78.3242002
 104.2609164  60.0573418  79.2274817  98.5919737  64.1132701  66.2810869
  98.7594139  64.9812937  66.6481340  98.4016906  64.2759983  65.3572159
 101.3495070  72.5749680  77.9476700 101.0495793  73.4774719  77.8392507
 101.0046129  72.3081863  78.7997853 104.7492214  65.0932220  75.6274137
 103.8409091  65.0247629  75.3332898 104.6979809  65.5704165  76.4555962
  98.5708957  66.5690359  67.2657536  98.4508583  67.0147409  68.1043016
  97.8761546  66.9175676  66.7071074  96.3315850  79.3394000  70.9147667
  96.2539879  80.2901825  70.9936148  95.7277493  78.9939873  71.5722594
  98.8233079  66.5121866  83.5709034  98.0466413  67.0715786  83.5611899
  99.4623642  66.9978649  84.0923904 106.6153860  63.2948659  77.4052011
 105.9728240  63.5881192  76.7591805 106.1108788  63.1801579  78.2105208
 104.2694024  67.0411832  68.0937870 105.1811880  67.2739219  67.9185568
 103.7603671  67.6248876  67.5312949  97.0779452  69.3207319  83.1327001
  97.8194136  69.8592363  82.8561825  96.3716437  69.9473608  83.2898553
 102.5534791  71.4636460  81.7299163 102.9618147  71.0218870  80.9853795
 101.8312053  70.8889087  81.9833356  98.9065861  66.4009066  79.1032720
  99.7527057  66.8248480  79.2467369  98.8464499  65.7442691  79.7971283
 102.8763606  72.0237650  75.4851452 102.2472468  72.1883364  74.7827519
 102.4889268  72.4379260  76.2562416 106.7552838  72.9592088  72.8395815
 106.0703876  73.3390989  72.2892849 106.8396687  73.5687415  73.5727763
 102.0565307  64.0613435  80.7613893 101.8126239  64.8155495  80.2248169
 102.3325237  64.4398782  81.5961140 104.0103769  70.6052047  79.4391159
 104.2220665  71.2483807  78.7625540 103.9633518  69.7714364  78.9713089
 101.6129998  63.2169868  76.3427731 100.7514477  63.5151121  76.6344469
 101.6392433  63.4340267  75.4108764  98.4291568  71.7612058  72.7501537
  98.8929913  72.0399761  71.9606159  98.1648366  70.8595503  72.5674627
  95.3215649  71.3083540  75.6881300  95.8917006  71.7370808  75.0498784
  95.9123761  71.0266125  76.3865486  97.3660454  67.8835211  69.5591102
  98.0684497  68.3356254  70.0265028  97.0341082  67.2419030  70.1870995
  95.8140815  66.4746967  83.9342311  95.1839476  67.1563248  84.1677708
  95.7076903  66.3630049  82.9895449 105.1249597  73.4824003  77.6113516
 105.9467041  73.0804190  77.3296198 105.1212000  73.3792237  78.5629632
  98.8906201  73.0308046  79.7674227  98.9550633  73.4928453  80.6032399
  98.1817125  72.4005411  79.8956537 113.2155590  69.8262751  73.9598488
 112.4619299  69.2570149  73.8042492 113.3503132  69.7925415  74.9069122
  98.6054218  74.6976153  69.6353207  98.4699893  75.5427689  70.0638055
  99.1464031  74.8995431  68.8719141  95.0921558  60.7767733  86.2967562
  94.6988504  60.2233932  86.9715207  95.9087698  61.0878312  86.6874080
  92.0583616  72.2151591  70.2081132  92.5708136  73.0094842  70.3586697
  92.7106329  71.5177882  70.1414734  93.8678501  75.3317348  72.2903885
  94.0445129  76.2535312  72.1024869  94.6635334  75.0175767  72.7198265
  98.0089519  62.1925612  83.8887819  98.7499232  62.7932765  83.8092281
  98.2407442  61.4503250  83.3305861  93.1530857  67.3781979  82.1666049
  93.0384372  66.4767237  82.4673147  92.2975375  67.6245676  81.8150865
 100.2322695  75.3199720  83.7653549  99.7886549  74.5336098  83.4474454
 100.8939908  75.5078870  83.0997440  94.9909816  76.8495521  78.2914228
  95.5417241  76.7212585  77.5191222  94.1521292  77.1490410  77.9409120
 102.3303933  75.6002520  81.7934950 102.3122408  76.4211401  81.3015220
 103.2523853  75.4756595  82.0185092  98.7876987  73.1146649  82.6358459
  99.3205324  72.3534937  82.4057767  98.2591068  72.8220301  83.3782613
 101.9546682  58.2206715  78.1652101 101.6110951  59.1108357  78.0891211
 102.3225645  58.0308373  77.3021686  90.0232533  70.5440246  70.9840703
  90.8607755  70.9537254  70.7674410  90.2010800  69.6039688  70.9540897
 101.9196965  68.2115326  66.6724536 101.4043588  68.9819931  66.9112923
 101.6474273  67.5380462  67.2957597  99.5044076  63.0565027  71.7309774
  98.6485672  62.6671877  71.5515413  99.9171028  63.1356988  70.8709560
 101.0343222  60.5911370  76.1301334 100.5308018  60.5541505  75.3169139
 101.3273829  61.5004113  76.1897990  97.2786108  60.6750100  75.1367516
  98.1439105  60.4792909  74.7773405  97.3463617  60.4460452  76.0636872
 106.8931239  70.9647681  68.6077709 106.1160682  70.6258840  68.1632871
 107.5722720  70.9700304  67.9332674 101.7083268  66.0842418  68.4984317
 101.4033404  66.3988568  69.3494460 102.6613710  66.1623838  68.5411650
 100.1529700  72.2432642  70.1477271  99.6251061  71.5085401  69.8350508
  99.6517203  73.0207318  69.9017239 105.1322546  70.4381662  75.2644317
 104.4746220  71.1280924  75.3524446 105.9362945  70.8278094  75.6078303
 103.9428005  68.7926035  73.3148259 104.4559886  69.4256027  73.8169969
 104.5929228  68.1927230  72.9491619  98.2982300  70.0612852  63.1512244
  97.3909362  69.8302105  63.3503393  98.7953332  69.2650471  63.3386225
 101.2050379  78.7710359  66.0708930 100.5312078  79.0742056  66.6793888
 101.5916201  79.5739439  65.7214387 100.4208835  66.2675490  75.5606599
  99.5031397  66.4890437  75.4028287 100.8368979  66.3421801  74.7018307
 101.2043883  67.6666906  70.6909280 101.9515702  68.1788303  70.3816402
 101.4735473  67.3450959  71.5513673  99.4770533  70.1625447  67.6736234
  98.5681753  69.8784480  67.7708704  99.5065617  70.5824525  66.8139541
 104.7089801  73.7732036  71.4427401 104.2552128  72.9322946  71.4992592
 104.0783768  74.4093435  71.7802182 103.6522720  64.7024022  72.6728069
 102.9145477  64.1901409  73.0038311 103.9049494  64.2624404  71.8611346
 103.1522740  75.6108533  72.3777220 103.4445714  76.1713590  71.6589585
 103.6621361  75.9037094  73.1330379 103.7534348  57.4800274  73.2669838
 104.0593225  56.6197638  72.9795753 104.4786953  58.0717895  73.0668832
  98.0255427  67.7754067  73.7746029  98.0804037  66.8227904  73.6988506
  97.2146629  67.9313507  74.2587328  99.1746621  71.7034190  65.0124312
  98.7366051  70.9870049  64.5529950  99.9157062  71.9310305  64.4509404
  98.1156365  76.3888884  73.4670673  98.0732544  76.6149730  72.5379205
  99.0319064  76.1552259  73.6156474 101.5621999  66.8572952  80.3651302
 101.9171387  67.0844425  81.2245768 102.2094130  67.1891328  79.7428557
 107.2919736  69.9791388  71.0700631 107.1537635  70.1692984  70.1421820
 106.9355955  70.7410770  71.5268682 107.3189116  72.0467915  76.0811903
 107.7525622  71.9543204  76.9294957 108.0320696  72.0225415  75.4431919
  96.2322166  73.2651913  73.2632636  97.0262765  72.7702233  73.0615211
  95.5213858  72.7369776  72.9000341 101.0517010  75.6470009  77.6145003
 101.1054033  76.2160945  78.3822719 100.1831792  75.8171894  77.2499040
 108.1804665  72.0891615  78.6144788 108.3740555  72.9937426  78.8604063
 108.0805283  71.6299034  79.4483373  99.8340976  61.9749506  81.1135115
  99.1868891  62.6739455  81.0199592 100.6041991  62.4085650  81.4811363
 103.2419774  72.2398358  84.1885669 103.0905280  72.0108910  83.2715752
 103.2324453  73.1968959  84.2017014 100.0105110  69.8130271  79.1731935
 100.9397170  69.9641430  79.0000902  99.5896140  69.9014291  78.3180582
  98.8093442  73.8380935  76.9430473  98.6704528  73.4699719  77.8156411
  98.0208038  74.3528575  76.7714430  99.4041594  78.9390032  68.2856009
  99.5793350  78.4678075  69.1001632  98.7174382  79.5655798  68.5137270
 100.3598657  73.2162538  74.3319310 100.0248490  73.1763308  75.2276960
  99.8602603  72.5507254  73.8589721 103.2957849  70.5618572  64.6056370
 102.6787019  69.8365400  64.5089423 102.8274337  71.3227932  64.2623444
  96.9625202  68.3350127  79.3455571  97.6724820  67.6943319  79.3042190
  96.9194510  68.5863022  80.2681752 104.9511980  75.2717480  82.2662150
 104.8924527  74.5876701  81.5992733 105.3531499  76.0136470  81.8142776
  95.6754136  65.3215345  81.1651211  95.1391493  64.8706083  81.8172807
  95.0870844  65.4561254  80.4221675  93.9702679  82.0879394  75.0595869
  94.2099277  82.7197918  75.7374888  93.1271876  81.7367434  75.3461229
 104.9529388  73.2357064  80.4976130 104.0656167  72.8982986  80.6202529
 105.5227939  72.5040096  80.7344896  86.6058535  69.5681156  73.8219181
  87.2929575  69.2542886  73.2340197  86.4506664  70.4722521  73.5486433
  98.4830541  77.8958517  77.4637373  98.4100713  78.7013488  77.9756678
  98.0407934  78.0950483  76.6385395  98.2720321  77.1330287  70.9740195
  97.4887843  77.6751967  71.0678419  98.9713066  77.6504266  71.3734436
 101.5816971  62.9424916  73.6174400 102.0785670  62.1894879  73.2975470
 100.8103952  62.9789233  73.0517610 109.4346728  68.6465282  75.2592692
 109.4236605  69.5289997  74.8886625 108.5664108  68.2936833  75.0647229
 100.9429225  77.7945351  79.6195532 101.6557197  78.4292816  79.5471433
 100.4519253  77.8909217  78.8035534 102.6646752  71.6996603  71.1912824
 101.7303030  71.8198066  71.0217528 102.8423420  70.7969070  70.9272833
  98.1651940  65.0842299  73.3446085  97.7949727  64.5313340  74.0326990
  98.6611032  64.4800433  72.7921085 106.0519303  67.5413923  71.7262858
 106.5179755  68.3741914  71.6523160 106.5026803  67.0758904  72.4308116
  95.9941138  75.5439794  80.4401103  96.6950598  76.1776277  80.5930497
  95.5236253  75.8854526  79.6796742 104.1195534  73.8857744  68.7249010
 104.3955378  73.7714339  69.6342884 103.2500033  73.4875229  68.6861183
 104.0235966  59.9094510  75.7653759 103.1099045  60.1398737  75.9335966
 104.4529067  59.9932954  76.6167791 103.7942424  68.0984402  78.2653653
 103.1413874  68.3460309  77.6106106 104.1722804  67.2848540  77.9316130
 100.7549598  78.1344095  72.3681823 100.9371993  77.3165751  72.8309576
 101.5782584  78.3511787  71.9306713 101.0891764  77.0612280  69.6296872
 101.6179530  76.5504735  69.0167034 101.3519983  76.7454810  70.4942405
  99.8429997  68.8404213  84.7519690  99.1670634  68.7398342  85.4222065
 100.6657631  68.6843427  85.2155687  91.5908856  75.0776149  77.3732205
  92.1762293  74.3319837  77.5060110  91.3933695  75.3880106  78.2568869
  94.4447511  78.1127397  72.3894648  93.7757887  78.5973524  71.9058688
  94.3060381  78.3596617  73.3038026  86.1826511  67.6481750  76.0936649
  86.2210610  67.1145340  76.8873767  85.6766804  67.1216955  75.4747626
  98.5852780  80.1471140  78.9877306  99.1371088  80.3102762  79.7526391
  98.9258974  80.7375578  78.3157331  93.5617273  62.4946290  79.5899191
  93.6258600  63.3561121  79.1776589  93.4984394  61.8820292  78.8571549
  93.0369546  64.5669423  83.2372225  93.6641585  64.1846500  83.8509750
  92.1797465  64.3483625  83.6027918 103.4363654  74.9732398  84.8425961
 103.9803558  75.5862356  84.3480915 102.8550499  75.5311976  85.3592974
 101.7221167  78.0953116  75.9740988 101.5972307  77.2942856  75.4651934
 102.3800258  78.5899309  75.4854958 103.7856076  75.8962136  77.6020538
 102.8386411  75.7767487  77.5298865 104.1338849  75.0084634  77.6846800
  96.1455649  61.7856275  81.4258780  96.6690051  62.0318571  82.1885090
  95.9267982  62.6176310  81.0061918 100.7902509  75.6914852  73.8024891
 100.6427471  74.7631559  73.9832461 101.6156003  75.7134943  73.3181966
 104.3936631  76.5143411  74.8889763 105.3183178  76.3086272  74.7514215
 104.2251934  76.2659812  75.7979105  97.3508194  62.7269970  79.1108451
  97.0105014  61.9277783  79.5129131  96.6447200  63.0271681  78.5385284
  98.0024666  59.8119282  77.5635774  98.8250735  59.3379760  77.4414664
  98.2462729  60.5909766  78.0634460 100.7864023  63.5452690  68.7957008
 101.0027638  64.4277328  68.4945836 100.3058090  63.1538903  68.0662650
  97.3859628  63.4940951  75.4208642  97.3721196  62.5982044  75.0840940
  98.1032056  63.5011615  76.0546928  99.2385758  63.9278291  77.4661770
  98.9803536  64.8495362  77.4646100  98.7070799  63.5308726  78.1562234
 104.1831947  77.0329078  70.2451855 104.3568825  76.4675501  69.4925707
 104.6760838  77.8329973  70.0631345  90.0008907  69.0443747  78.3115414
  89.4562375  69.8203555  78.4435688  90.8788257  69.3914552  78.1534535
  99.6587714  60.0610242  73.8262932  99.6809411  60.1249575  72.8714912
 100.0755773  59.2214750  74.0203438 110.0371338  69.7965501  71.8642155
 110.4802484  69.0472826  71.4661278 109.1597849  69.7875638  71.4815887
 105.1707120  76.3495843  67.3448753 105.8658024  76.9702535  67.5636068
 105.5130270  75.4991194  67.6201131  90.7874929  68.1713644  81.2045571
  90.0456665  68.3196279  81.7910201  90.4667673  68.4321909  80.3412320
 107.0698543  73.7995548  68.8736084 107.5949867  74.1382821  68.1485404
 106.9820895  72.8642563  68.6899219  98.7318591  77.7129622  81.0025961
  99.0405718  77.4678769  81.8748660  99.5294073  77.9176260  80.5144831
  98.7539203  79.8667531  73.2331337  98.3144194  79.3743910  73.9264194
  99.5047320  79.3240499  72.9923412  91.2331542  76.0579072  73.2355965
  92.0589562  75.7582844  72.8554609  90.8825594  75.2886695  73.6845754
  96.2013076  75.4105541  75.3053639  95.5793085  74.7476246  75.0055867
  96.8717942  75.4366672  74.6227287  89.4340147  73.9765399  74.1944899
  88.5972056  73.5487573  74.0128900  89.4063793  74.1697842  75.1315690
  96.2737603  63.8887329  84.8986145  96.3225759  64.7649451  84.5163914
  96.8160117  63.3464722  84.3257788 106.7592449  74.4328452  84.1787282
 105.9687992  74.4152591  83.6391781 106.5225803  74.9716746  84.9336318
 106.8790324  71.2820918  81.4920010 106.9288329  71.1170926  82.4335533
 106.7704247  70.4148177  81.1017891  95.7626582  73.9609464  68.7812099
  95.9114703  74.6444928  68.1278772  96.5693026  73.9414554  69.2961555
 104.1694086  67.2651846  82.8079317 105.0703949  67.1258311  82.5163315
 104.2442061  67.4306301  83.7477495  98.5036892  64.6418701  81.6532503
  97.6340201  64.9352267  81.3815092  98.7396372  65.2259146  82.3739767
 108.3808521  73.7017860  81.7362032 108.0893329  74.0647840  82.5725493
 107.7680652  72.9884868  81.5575364 109.5804203  71.2670739  74.2564602
 110.4151094  71.7060544  74.4202163 109.7163332  70.7909393  73.4372848
 106.6295709  68.8250474  80.2042090 107.1049830  69.0178121  79.3960941
 105.7061274  68.8809660  79.9585474  93.5179215  69.9874642  69.7873168
  93.2725257  69.0836972  69.9853378  93.6875130  69.9891792  68.8452646
 101.2075925  60.8598318  79.1697924 101.7257869  61.5959345  78.8444412
 100.8531058  61.1662311  80.0044683 101.4588520  57.2798600  74.6898820
 101.7390273  56.6121789  75.3159247 102.2439126  57.4727696  74.1773484
  99.2621988  76.4557594  66.2523847  98.6895955  77.0747781  65.7994319
  99.8354782  77.0056956  66.7863769 105.3297378  65.7016234  78.4370396
 106.2814801  65.8014332  78.4582620 105.1600828  64.9094503  78.9468480
 103.3511757  62.7871818  78.6229797 102.7561689  63.0676830  77.9276285
 103.0661454  63.2765719  79.3946538 102.4819248  76.7394744  67.3832429
 103.4149921  76.6740306  67.5865305 102.3942461  77.5751011  66.9246962
 105.1107264  76.0560615  64.3436377 105.0320896  75.7220478  65.2372135
 105.9316931  76.5482383  64.3427849 107.8085456  68.9222354  77.5512695
 107.7761776  67.9838355  77.7372379 108.4186079  69.0006391  76.8178520
  99.6468787  67.7918407  63.5939899 100.5927891  67.6624615  63.6628317
  99.2683031  67.0533069  64.0709327 107.9579944  65.7133398  77.5970978
 107.4418993  64.9291854  77.4100907 108.8419893  65.3852114  77.7617498
 105.6190671  59.4574413  73.5566791 105.4215492  59.1489501  74.4410123
 106.2290377  60.1836052  73.6864721 113.6262006  69.9838361  76.6918732
 114.3565394  69.7223649  77.2526435 113.0168951  69.2467083  76.7320800
 111.7077303  68.1246224  77.2893183 110.9810466  67.9902188  76.6809675
 111.2924590  68.4323052  78.0949901  99.5307479  71.8436153  85.0540556
 100.4510489  72.0214752  85.2480603  99.4957062  70.8992199  84.9020256
  97.8311704  65.7168383  63.5294785  96.9243159  65.4201496  63.6057498
  98.1087685  65.4198202  62.6629071  99.4473769  60.2605273  69.6839026
  98.6374498  59.9152358  70.0594272 100.1358186  59.9512817  70.2726637
 101.3764318  59.3383320  71.3063322 101.9295356  59.7578773  71.9653346
 101.6134404  58.4119068  71.3486278  97.3997417  65.3270394  87.0866086
  97.2994144  66.2764751  87.0178177  97.1818959  64.9988633  86.2142156
  96.6010488  62.5755319  63.6706764  97.4629652  62.9010217  63.9302581
  96.7860832  61.7886815  63.1579829  88.6177904  70.6577658  75.9486952
  87.9241375  70.2431611  75.4356907  89.3650895  70.6998195  75.3520371
 104.7543125  61.4483845  70.8141987 104.1741794  62.1068649  70.4320039
 104.4879057  60.6261190  70.4029404 103.2046691  60.8488903  73.0163307
 103.7046469  60.9605437  72.2077626 103.8482299  60.5449956  73.6564115
  97.2628687  68.7567532  85.9031148  96.7795769  69.5567893  86.1095037
  97.3489626  68.7675477  84.9498592  90.5314647  70.5895912  73.8252967
  90.5085335  70.6883599  72.8734850  90.8415283  71.4361063  74.1470133
  93.1902024  72.6472067  77.9399582  94.1445278  72.6156010  77.8729513
  92.9914548  72.1862691  78.7549808  93.7801407  71.2173183  80.5070379
  94.5994296  71.7117262  80.5305217  94.0538214  70.3005151  80.4787947
 103.5368003  63.6083936  69.8698335 102.6493858  63.8933586  69.6518530
 103.9521992  63.4477699  69.0225612 106.8882539  63.6330457  73.5852674
 107.6642929  64.1226909  73.8577291 106.1630673  64.0588511  74.0424544
 109.3255098  64.3458076  74.6426615 109.9199588  64.1053812  73.9319923
 109.3981681  63.6265206  75.2700151  91.5452253  78.1891687  74.9569780
  91.4106721  77.4292088  74.3907778  91.1284316  78.9132587  74.4898569
 102.6811216  73.3728610  63.9646355 103.3847066  73.5778613  64.5804011
 101.9573865  73.9405372  64.2295438 103.5109027  69.1238471  70.0848625
 103.4544228  69.5807023  69.2456258 104.0637369  68.3629156  69.9071468
 107.3213832  64.9128203  70.9098745 107.0650767  64.5124839  71.7406952
 106.6966700  65.6271997  70.7848884 111.6326170  67.6524277  73.4170036
 111.0725728  67.7217466  74.1901598 111.0269674  67.4765261  72.6969532
  94.7021379  79.0861004  75.1688222  94.5853763  80.0306436  75.0666913
  93.8813825  78.7834565  75.5574021 104.5897914  73.8111139  66.0144815
 105.4243518  73.3792338  65.8322290 104.4282257  73.6393153  66.9421709
 104.2443806  70.3143253  67.3801154 104.1892610  70.1487524  66.4389598
 103.6189861  71.0219286  67.5363344  89.0336321  65.5511317  81.2062577
  89.6795184  65.0410271  81.6949802  88.8253472  66.2879999  81.7806002
 101.5589713  72.6192165  86.7054717 102.4280873  72.7932817  86.3441352
 101.0796464  73.4386581  86.5830446  97.5539931  59.8151362  66.9586473
  97.5418601  60.7593202  67.1154744  98.4463353  59.6321507  66.6645934
  95.7275893  79.7389266  78.3844151  96.6303140  79.7712876  78.7010646
  95.5013263  78.8089717  78.3990487  97.4829495  78.4920252  75.0454229
  96.5325126  78.4922114  74.9318602  97.7861981  77.7452987  74.5290264
 101.3692051  56.4094138  71.2132409 100.6024447  55.8552625  71.3589092
 101.7802756  56.4816007  72.0746561  93.3733812  62.6978934  85.3037591
  94.2365273  62.3415739  85.5140915  92.7999222  62.3592829  85.9912995
 113.2182189  84.3280791  76.1099992 113.8560599  84.2087538  75.4063332
 113.1003032  85.2761634  76.1687944 110.0271895  84.2808219  76.0461516
 109.6890407  84.1649283  75.1582051 110.8961663  83.8799384  76.0262523
 105.8858711  86.1343695  72.0358407 105.3223576  86.0433632  71.2674695
 105.7711106  85.3143599  72.5160900 110.5091678  85.4343070  82.0047722
 110.4980319  85.0395869  81.1328226 110.6712317  84.7009143  82.5981493
 103.4323143  87.6294887  74.8742628 104.2244435  87.2885711  74.4588927
 103.6719793  87.7389862  75.7944781 111.4658269  89.8014663  67.3472872
 110.8146249  90.3868743  66.9606886 112.2602632  90.3320858  67.4067910
 105.3913897  86.8903800  67.7460007 106.1644773  86.3432787  67.6072882
 105.7439295  87.7548049  67.9574468 107.2298939  88.2180182  80.9526906
 106.9388805  89.1225813  80.8373572 107.8655924  88.2596710  81.6670976
 108.1555146  85.5957031  77.5428266 108.7518718  85.3713053  76.8285229
 108.2130118  84.8541776  78.1453713 107.7280174  83.0496466  65.3778457
 107.9805695  82.5277987  64.6161920 106.7904734  82.8862611  65.4805140
 112.7723457  82.0532244  73.1853200 113.5586546  81.6351668  72.8343617
 113.0362162  82.9578337  73.3534848 112.9433535  87.4905095  67.8841857
 112.3079368  87.5639721  68.5962761 112.6130941  88.0798694  67.2060936
 118.1731884  81.9907478  74.0886178 118.9057056  81.4206694  74.3224008
 117.4171240  81.6029078  74.5292684 107.4476463  84.9524572  67.5802832
 107.3312721  84.2769475  68.2483916 107.5578723  84.4656946  66.7634985
 109.7908004  84.4134719  71.2849521 109.4266211  83.8865340  71.9962442
 110.6475120  84.0233188  71.1116006 115.6957305  75.7029052  78.5480787
 115.3640630  76.5724463  78.3242002 115.1002918  75.3865336  79.2274817
 109.4313491  79.4424619  66.2810869 109.5987893  80.3104855  66.6481340
 109.2410660  79.6051900  65.3572159 112.1888824  87.9041598  77.9476700
 111.8889547  88.8066636  77.8392507 111.8439884  87.6373781  78.7997853
 105.6401306  84.3555395  73.9813404 104.7151802  84.2231609  74.1891096
 105.8885719  85.1349614  74.4783346 115.5885968  80.4224138  75.6274137
 114.6802845  80.3539546  75.3332898 115.5373564  80.8996083  76.4555962
 109.4102712  81.8982276  67.2657536 109.2902337  82.3439327  68.1043016
 108.7155300  82.2467594  66.7071074 103.0010117  83.9988668  74.8157193
 103.1302498  84.2523147  75.7296605 102.3207568  84.5916376  74.4961848
 107.1709604  94.6685918  70.9147667 107.0933634  95.6193743  70.9936148
 106.5671248  94.3231791  71.5722594 109.6626834  81.8413783  83.5709034
 108.8860168  82.4007704  83.5611899 110.3017397  82.3270566  84.0923904
 117.4547614  78.6240576  77.4052011 116.8121995  78.9173109  76.7591805
 116.9502543  78.5093497  78.2105208 115.1087778  82.3703749  68.0937870
 116.0205634  82.6031136  67.9185568 114.5997425  82.9540794  67.5312949
 107.9173206  84.6499237  83.1327001 108.6587890  85.1884281  82.8561825
 107.2110192  85.2765526  83.2898553 113.3928546  86.7928377  81.7299163
 113.8011902  86.3510788  80.9853795 112.6705807  86.2181005  81.9833356
 109.7459616  81.7300984  79.1032720 110.5920811  82.1540398  79.2467369
 109.6858253  81.0734608  79.7971283 113.7157360  87.3529568  75.4851452
 113.0866223  87.5175282  74.7827519 113.3283022  87.7671177  76.2562416
 117.5946592  88.2884006  72.8395815 116.9097630  88.6682907  72.2892849
 117.6790442  88.8979332  73.5727763 112.8959061  79.3905352  80.7613893
 112.6519993  80.1447413  80.2248169 113.1718992  79.7690700  81.5961140
 114.8497524  85.9343965  79.4391159 115.0614419  86.5775725  78.7625540
 114.8027272  85.1006281  78.9713089 112.4523753  78.5461785  76.3427731
 111.5908232  78.8443039  76.6344469 112.4786188  78.7632184  75.4108764
 109.2685322  87.0903976  72.7501537 109.7323668  87.3691679  71.9606159
 109.0042120  86.1887421  72.5674627 106.1609403  86.6375458  75.6881300
 106.7310760  87.0662726  75.0498784 106.7517515  86.3558042  76.3865486
 108.2054208  83.2127128  69.5591102 108.9078252  83.6648172  70.0265028
 107.8734837  82.5710947  70.1870995 106.6534570  81.8038885  83.9342311
 106.0233230  82.4855166  84.1677708 106.5470658  81.6921967  82.9895449
 101.9479542  81.4710681  74.8608235 101.1578596  81.7268210  74.3848346
 102.4390790  82.2859019  74.9660276 115.9643352  88.8115920  77.6113516
 116.7860796  88.4096107  77.3296198 115.9605755  88.7084154  78.5629632
 103.8994288  81.8355260  71.8191712 103.1025451  81.9473955  72.3375208
 103.6719880  82.1741912  70.9532603 109.7299955  88.3599963  79.7674227
 109.7944388  88.8220371  80.6032399 109.0210879  87.7297328  79.8956537
 100.2317245  81.7241171  77.2923226 100.4825284  82.6088181  77.5580802
 100.7676794  81.5445773  76.5198318 109.4447973  90.0268071  69.6353207
 109.3093648  90.8719607  70.0638055 109.9857785  90.2287349  68.8719141
 105.9315313  76.1059651  86.2967562 105.5382258  75.5525849  86.9715207
 106.7481453  76.4170229  86.6874080 102.8977370  87.5443509  70.2081132
 103.4101891  88.3386759  70.3586697 103.5500083  86.8469799  70.1414734
 104.7072255  90.6609265  72.2903885 104.8838883  91.5827230  72.1024869
 105.5029089  90.3467684  72.7198265 108.8483274  77.5217530  83.8887819
 109.5892987  78.1224683  83.8092281 109.0801196  76.7795168  83.3305861
 103.9924612  82.7073897  82.1666049 103.8778127  81.8059154  82.4673147
 103.1369129  82.9537594  81.8150865 111.0716449  90.6491637  83.7653549
 110.6280304  89.8628016  83.4474454 111.7333663  90.8370788  83.0997440
 105.8303571  92.1787439  78.2914228 106.3810996  92.0504502  77.5191222
 104.9915046  92.4782328  77.9409120 113.1697687  90.9294437  81.7934950
 113.1516163  91.7503318  81.3015220 114.0917607  90.8048513  82.0185092
 109.6270742  88.4438567  82.6358459 110.1599078  87.6826855  82.4057767
 109.0984823  88.1512219  83.3782613 112.7940437  73.5498633  78.1652101
 112.4504706  74.4400275  78.0891211 113.1619399  73.3600290  77.3021686
 100.8626287  85.8732163  70.9840703 101.7001509  86.2829172  70.7674410
 101.0404555  84.9331605  70.9540897 112.7590719  83.5407244  66.6724536
 112.2437343  84.3111849  66.9112923 112.4868028  82.8672380  67.2957597
 110.3437830  78.3856945  71.7309774 109.4879427  77.9963795  71.5515413
 110.7564782  78.4648906  70.8709560 111.8736977  75.9203288  76.1301334
 111.3701773  75.8833423  75.3169139 112.1667584  76.8296031  76.1897990
 108.1179863  76.0042018  75.1367516 108.9832860  75.8084826  74.7773405
 108.1857372  75.7752369  76.0636872 117.7324993  86.2939599  68.6077709
 116.9554436  85.9550758  68.1632871 118.4116474  86.2992222  67.9332674
 112.5477022  81.4134336  68.4984317 112.2427158  81.7280485  69.3494460
 113.5007465  81.4915756  68.5411650 110.9923454  87.5724559  70.1477271
 110.4644816  86.8377319  69.8350508 110.4910957  88.3499236  69.9017239
 115.9716300  85.7673580  75.2644317 115.3139975  86.4572841  75.3524446
 116.7756700  86.1570012  75.6078303 105.7242182  78.2344226  72.5083882
 106.2985934  78.0119407  71.7757075 106.3113164  78.3032920  73.2612484
 114.7821759  84.1217953  73.3148259 115.2953641  84.7547944  73.8169969
 115.4322983  83.5219148  72.9491619 106.0511769  80.2648687  66.5279768
 105.2149081  80.6023373  66.8489042 105.9116539  80.1297666  65.5906905
 108.0264850  75.1085475  71.2358952 107.3729262  74.7934492  70.6115567
 107.9845324  74.4861215  71.9618775 109.1376054  85.3904770  63.1512244
 108.2303116  85.1594023  63.3503393 109.6347086  84.5942389  63.3386225
 112.0444133  94.1002277  66.0708930 111.3705832  94.4033974  66.6793888
 112.4309955  94.9031357  65.7214387 111.2602590  81.5967408  75.5606599
 110.3425151  81.8182355  75.4028287 111.6762734  81.6713719  74.7018307
 112.0437638  82.9958824  70.6909280 112.7909457  83.5080221  70.3816402
 112.3129227  82.6742876  71.5513673 110.3164288  85.4917364  67.6736234
 109.4075507  85.2076397  67.7708704 110.3459372  85.9116443  66.8139541
 115.5483555  89.1023954  71.4427401 115.0945882  88.2614864  71.4992592
 114.9177522  89.7385352  71.7802182 114.4916475  80.0315940  72.6728069
 113.7539232  79.5193326  73.0038311 114.7443248  79.5916322  71.8611346
 113.9916495  90.9400451  72.3777220 114.2839469  91.5005508  71.6589585
 114.5015115  91.2329012  73.1330379 114.5928102  72.8092192  73.2669838
 114.8986979  71.9489555  72.9795753 115.3180707  73.4009812  73.0668832
 100.8852458  83.2122879  71.6551436 100.6876858  82.6192239  70.9302503
 100.3299122  82.9075089  72.3727375 108.8649182  83.1045985  73.7746029
 108.9197792  82.1519821  73.6988506 108.0540384  83.2605424  74.2587328
 110.0140376  87.0326108  65.0124312 109.5759806  86.3161967  64.5529950
 110.7550817  87.2602223  64.4509404 106.8041542  81.7223045  71.5336408
 105.9909407  82.0217215  71.9401600 107.3000536  81.3278734  72.2510890
 108.9550120  91.7180802  73.4670673 108.9126299  91.9441648  72.5379205
 109.8712819  91.4844176  73.6156474 112.4015754  82.1864869  80.3651302
 112.7565141  82.4136342  81.2245768 113.0487885  82.5183246  79.7428557
 118.1313490  85.3083305  71.0700631 117.9931389  85.4984901  70.1421820
 117.7749709  86.0702688  71.5268682 106.2955617  79.2941400  77.1497643
 106.9354996  79.1530159  76.4520606 105.4633147  79.0075914  76.7736245
 118.1582870  87.3759832  76.0811903 118.5919377  87.2835121  76.9294957
 118.8714451  87.3517333  75.4431919 107.0715921  88.5943831  73.2632636
 107.8656519  88.0994151  73.0615211 106.3607613  88.0661694  72.9000341
 111.8910765  90.9761926  77.6145003 111.9447787  91.5452863  78.3822719
 111.0225546  91.1463811  77.2499040 103.3798684  82.7386913  69.3392388
 102.4496272  82.6771368  69.5562350 103.4756156  82.2162865  68.5429029
 103.2984233  79.2641725  71.9270630 103.5591050  80.1787059  71.8179790
 104.1201405  78.7966168  72.0767243 104.7709158  80.6779483  79.0969454
 105.4432212  80.4696845  78.4482103 103.9438945  80.4801569  78.6574687
 119.0198420  87.4183533  78.6144788 119.2134310  88.3229343  78.8604063
 118.9199038  86.9590952  79.4483373 110.6734730  77.3041423  81.1135115
 110.0262645  78.0031373  81.0199592 111.4435746  77.7377567  81.4811363
 114.0813528  87.5690276  84.1885669 113.9299035  87.3400827  83.2715752
 114.0718208  88.5260877  84.2017014 110.8498865  85.1422188  79.1731935
 111.7790925  85.2933348  79.0000902 110.4289895  85.2306209  78.3180582
 109.6487197  89.1672853  76.9430473 109.5098282  88.7991637  77.8156411
 108.8601793  89.6820492  76.7714430 110.2435348  94.2681949  68.2856009
 110.4187104  93.7969992  69.1001632 109.5568137  94.8947715  68.5137270
 111.1992412  88.5454455  74.3319310 110.8642244  88.5055225  75.2276960
 110.6996357  87.8799171  73.8589721 105.1736656  83.9522085  79.8571892
 105.0356454  83.2202324  80.4583431 106.0841579  83.8630986  79.5756079
 114.1351603  85.8910490  64.6056370 113.5180774  85.1657318  64.5089423
 113.6668092  86.6519850  64.2623444 107.8018956  83.6642045  79.3455571
 108.5118575  83.0235237  79.3042190 107.7588264  83.9154940  80.2681752
 115.7905735  90.6009398  82.2662150 115.7318281  89.9168618  81.5992733
 116.1925253  91.3428388  81.8142776 106.5147890  80.6507263  81.1651211
 105.9785247  80.1998001  81.8172807 105.9264599  80.7853172  80.4221675
 104.8096434  97.4171312  75.0595869 105.0493032  98.0489836  75.7374888
 103.9665630  97.0659352  75.3461229 105.9250149  80.1095914  63.7277674
 105.0479616  79.9884715  63.3639921 106.4007902  79.3181992  63.4756563
 115.7923142  88.5648982  80.4976130 114.9049921  88.2274904  80.6202529
 116.3621693  87.8332013  80.7344896  97.4452289  84.8973074  73.8219181
  98.1323329  84.5834804  73.2340197  97.2900418  85.8014438  73.5486433
 102.2487011  79.7863270  78.2504205 102.1645200  79.1788940  77.5154615
 101.4269718  80.2772289  78.2513702 109.3224296  93.2250434  77.4637373
 109.2494467  94.0305406  77.9756678 108.8801689  93.4242400  76.6385395
 109.1114075  92.4622204  70.9740195 108.3281597  93.0043885  71.0678419
 109.8106820  92.9796184  71.3734436 112.4210725  78.2716834  73.6174400
 112.9179425  77.5186796  73.2975470 111.6497707  78.3081151  73.0517610
 120.2740483  83.9757199  75.2592692 120.2630359  84.8581915  74.8886625
 119.4057862  83.6228750  75.0647229 111.7822979  93.1237268  79.6195532
 112.4950951  93.7584733  79.5471433 111.2913008  93.2201134  78.8035534
 113.5040506  87.0288521  71.1912824 112.5696785  87.1489984  71.0217528
 113.6817175  86.1260988  70.9272833 109.0045694  80.4134217  73.3446085
 108.6343482  79.8605257  74.0326990 109.5004787  79.8092350  72.7921085
 116.8913057  82.8705840  71.7262858 117.3573510  83.7033832  71.6523160
 117.3420558  82.4050822  72.4308116 106.8334893  90.8731712  80.4401103
 107.5344352  91.5068195  80.5930497 106.3630008  91.2146443  79.6796742
 114.9589289  89.2149662  68.7249010 115.2349132  89.1006256  69.6342884
 114.0893787  88.8167147  68.6861183 114.8629720  75.2386427  75.7653759
 113.9492800  75.4690654  75.9335966 115.2922822  75.3224871  76.6167791
 114.6336179  83.4276319  78.2653653 113.9807629  83.6752227  77.6106106
 115.0116559  82.6140458  77.9316130 111.5943353  93.4636013  72.3681823
 111.7765747  92.6457668  72.8309576 112.4176339  93.6803705  71.9306713
 111.9285518  92.3904198  69.6296872 112.4573284  91.8796652  69.0167034
 112.1913738  92.0746728  70.4942405 110.6823752  84.1696130  84.7519690
 110.0064389  84.0690260  85.4222065 111.5051386  84.0135344  85.2155687
 102.4302611  90.4068067  77.3732205 103.0156048  89.6611755  77.5060110
 102.2327449  90.7172024  78.2568869 105.2841266  93.4419314  72.3894648
 104.6151641  93.9265442  71.9058688 105.1454136  93.6888535  73.3038026
  97.0220265  82.9773667  76.0936649  97.0604365  82.4437258  76.8873767
  96.5160558  82.4508873  75.4747626 109.4246535  95.4763058  78.9877306
 109.9764843  95.6394679  79.7526391 109.7652728  96.0667496  78.3157331
 104.4011028  77.8238208  79.5899191 104.4652354  78.6853039  79.1776589
 104.3378148  77.2112209  78.8571549 103.8763300  79.8961340  83.2372225
 104.5035339  79.5138418  83.8509750 103.0191219  79.6775542  83.6027918
 114.2757409  90.3024315  84.8425961 114.8197313  90.9154274  84.3480915
 113.6944254  90.8603894  85.3592974 100.6528843  81.7037769  69.1690580
 100.9482284  80.7948448  69.1157634  99.7516879  81.6825509  68.8471582
 112.5614922  93.4245033  75.9740988 112.4366061  92.6234773  75.4651934
 113.2194013  93.9191227  75.4854958 104.1823090  79.7793766  75.1518129
 103.4609676  80.3929734  75.0125602 104.9716346  80.3151531  75.0734775
 114.6249830  91.2254054  77.6020538 113.6780166  91.1059405  77.5298865
 114.9732603  90.3376552  77.6846800 106.9849404  77.1148192  81.4258780
 107.5083805  77.3610489  82.1885090 106.7661737  77.9468227  81.0061918
 102.3816685  79.3851867  69.2929905 102.0529391  78.5049246  69.1105011
 102.7356055  79.3299536  70.1806294 111.6296264  91.0206770  73.8024891
 111.4821226  90.0923477  73.9832461 112.4549757  91.0426860  73.3181966
 105.4958508  79.6724837  69.6605383 105.8354580  80.2010758  68.9383991
 105.9430628  80.0105243  70.4363949 115.2330385  91.8435328  74.8889763
 116.1576933  91.6378190  74.7514215 115.0645689  91.5951730  75.7979105
 108.1901949  78.0561888  79.1108451 107.8498769  77.2569701  79.5129131
 107.4840955  78.3563598  78.5385284 108.8418420  75.1411200  77.5635774
 109.6644490  74.6671678  77.4414664 109.0856484  75.9201684  78.0634460
 107.4826655  78.1699458  67.8598676 108.2035017  78.5480711  67.3562392
 106.8591959  78.8888335  67.9633654 111.6257778  78.8744607  68.7957008
 111.8421392  79.7569245  68.4945836 111.1451845  78.4830821  68.0662650
 106.3656999  81.8330321  75.3727753 106.2201580  82.1470624  76.2652034
 105.8882203  82.4515221  74.8198651 108.2253382  78.8232869  75.4208642
 108.2114951  77.9273962  75.0840940 108.9425810  78.8303532  76.0546928
 110.0779513  79.2570209  77.4661770 109.8197291  80.1787279  77.4646100
 109.5464553  78.8600643  78.1562234 115.0225702  92.3620996  70.2451855
 115.1962579  91.7967418  69.4925707 115.5154593  93.1621891  70.0631345
 100.8402661  84.3735665  78.3115414 100.2956129  85.1495473  78.4435688
 101.7182011  84.7206469  78.1534535 107.6290278  77.7047249  70.6896212
 107.7506189  76.7763895  70.8887100 107.3392320  77.7185935  69.7774528
 110.4981468  75.3902159  73.8262932 110.5203165  75.4541492  72.8714912
 110.9149527  74.5506668  74.0203438 120.8765093  85.1257419  71.8642155
 121.3196239  84.3764744  71.4661278 119.9991603  85.1167555  71.4815887
 116.0100874  91.6787760  67.3448753 116.7051779  92.2994453  67.5636068
 116.3524024  90.8283112  67.6201131 101.6268683  83.5005561  81.2045571
 100.8850419  83.6488197  81.7910201 101.3061428  83.7613827  80.3412320
 117.9092297  89.1287466  68.8736084 118.4343621  89.4674739  68.1485404
 117.8214650  88.1934481  68.6899219 109.5712346  93.0421539  81.0025961
 109.8799472  92.7970686  81.8748660 110.3687828  93.2468178  80.5144831
 109.5932958  95.1959449  73.2331337 109.1537948  94.7035828  73.9264194
 110.3441075  94.6532417  72.9923412 102.0725297  91.3870990  73.2355965
 102.8983317  91.0874762  72.8554609 101.7219349  90.6178612  73.6845754
 107.0406830  90.7397458  75.3053639 106.4186839  90.0768163  75.0055867
 107.7111697  90.7658590  74.6227287 100.2733902  89.3057316  74.1944899
  99.4365810  88.8779491  74.0128900 100.2457547  89.4989760  75.1315690
 107.1131358  79.2179246  84.8986145 107.1619513  80.0941369  84.5163914
 107.6553872  78.6756639  84.3257788 117.5986203  89.7620369  84.1787282
 116.8081747  89.7444508  83.6391781 117.3619558  90.3008663  84.9336318
 117.7184078  86.6112836  81.4920010 117.7682083  86.4462843  82.4335533
 117.6098002  85.7440095  81.1017891 106.6020337  89.2901382  68.7812099
 106.7508457  89.9736846  68.1278772 107.4086780  89.2706472  69.2961555
 115.0087841  82.5943764  82.8079317 115.9097703  82.4550229  82.5163315
 115.0835815  82.7598219  83.7477495 109.3430646  79.9710619  81.6532503
 108.4733955  80.2644185  81.3815092 109.5790126  80.5551064  82.3739767
 119.2202275  89.0309777  81.7362032 118.9287083  89.3939758  82.5725493
 118.6074406  88.3176786  81.5575364 120.4197957  86.5962657  74.2564602
 121.2544849  87.0352461  74.4202163 120.5557086  86.1201310  73.4372848
 117.4689463  84.1542392  80.2042090 117.9443585  84.3470038  79.3960941
 116.5455029  84.2101578  79.9585474 104.3572970  85.3166559  69.7873168
 104.1119012  84.4128889  69.9853378 104.5268885  85.3183710  68.8452646
 112.0469680  76.1890236  79.1697924 112.5651624  76.9251262  78.8444412
 111.6924813  76.4954229  80.0044683 103.6268617  81.0494917  67.2859330
 102.9337862  81.1239272  66.6299366 103.3820369  80.2855260  67.8080847
 112.2982274  72.6090518  74.6898820 112.5784028  71.9413707  75.3159247
 113.0832881  72.8019614  74.1773484 110.1015743  91.7849512  66.2523847
 109.5289710  92.4039699  65.7994319 110.6748536  92.3348874  66.7863769
 116.1691132  81.0308152  78.4370396 117.1208555  81.1306250  78.4582620
 115.9994583  80.2386421  78.9468480 114.1905512  78.1163735  78.6229797
 113.5955444  78.3968748  77.9276285 113.9055209  78.6057636  79.3946538
 113.3213002  92.0686662  67.3832429 114.2543675  92.0032224  67.5865305
 113.2336215  92.9042929  66.9246962 115.9501019  91.3852532  64.3436377
 115.8714650  91.0512396  65.2372135 116.7710686  91.8774300  64.3427849
 118.6479210  84.2514272  77.5512695 118.6155530  83.3130273  77.7372379
 119.2579834  84.3298308  76.8178520 110.4862541  83.1210325  63.5939899
 111.4321646  82.9916533  63.6628317 110.1076786  82.3824987  64.0709327
 118.7973699  81.0425315  77.5970978 118.2812747  80.2583772  77.4100907
 119.6813647  80.7144032  77.7617498 116.4584426  74.7866331  73.5566791
 116.2609247  74.4781419  74.4410123 117.0684131  75.5127970  73.6864721
 110.3701234  87.1728071  85.0540556 111.2904243  87.3506670  85.2480603
 110.3350817  86.2284116  84.9020256 108.6705458  81.0460301  63.5294785
 107.7636914  80.7493414  63.6057498 108.9481439  80.7490119  62.6629071
  99.5883399  82.3666665  73.9793831  99.2686183  81.5131973  73.6868205
  99.0416827  82.5815243  74.7351798 103.3663306  85.0829106  77.6963337
 103.5849316  86.0146213  77.7151371 103.7789080  84.7237080  78.4818141
 110.2867524  75.5897191  69.6839026 109.4768252  75.2444276  70.0594272
 110.9751941  75.2804735  70.2726637 112.2158072  74.6675238  71.3063322
 112.7689111  75.0870691  71.9653346 112.4528159  73.7410986  71.3486278
 108.2391171  80.6562311  87.0866086 108.1387898  81.6056668  87.0178177
 108.0212713  80.3280550  86.2142156 107.4404243  77.9047236  63.6706764
 108.3023407  78.2302135  63.9302581 107.6254587  77.1178732  63.1579829
  99.4571659  85.9869576  75.9486952  98.7635130  85.5723529  75.4356907
 100.2044650  86.0290113  75.3520371 115.5936879  76.7775763  70.8141987
 115.0135548  77.4360567  70.4320039 115.3272812  75.9553107  70.4029404
 114.0440446  76.1780821  73.0163307 114.5440224  76.2897355  72.2077626
 114.6876054  75.8741873  73.6564115 108.1022441  84.0859450  85.9031148
 107.6189523  84.8859810  86.1095037 108.1883380  84.0967395  84.9498592
 101.3708401  85.9187830  73.8252967 101.3479089  86.0175517  72.8734850
 101.6809038  86.7652981  74.1470133 104.0295779  87.9763985  77.9399582
 104.9839032  87.9447927  77.8729513 103.8308303  87.5154609  78.7549808
 104.6195161  86.5465101  80.5070379 105.4388050  87.0409180  80.5305217
 104.8931969  85.6297069  80.4787947 114.3761757  78.9375853  69.8698335
 113.4887612  79.2225504  69.6518530 114.7915746  78.7769617  69.0225612
 117.7276293  78.9622374  73.5852674 118.5036684  79.4518827  73.8577291
 117.0024428  79.3880428  74.0424544 120.1648852  79.6749993  74.6426615
 120.7593343  79.4345729  73.9319923 120.2375436  78.9557124  75.2700151
 102.3846008  93.5183604  74.9569780 102.2500476  92.7584005  74.3907778
 101.9678070  94.2424504  74.4898569 113.5204971  88.7020528  63.9646355
 114.2240821  88.9070530  64.5804011 112.7967620  89.2697290  64.2295438
 114.3502781  84.4530389  70.0848625 114.2937982  84.9098941  69.2456258
 114.9031123  83.6921074  69.9071468 118.1607587  80.2420121  70.9098745
 117.9044521  79.8416757  71.7406952 117.5360455  80.9563915  70.7848884
 122.4719925  82.9816194  73.4170036 121.9119483  83.0509384  74.1901598
 121.8663428  82.8057179  72.6969532 105.5415134  94.4152921  75.1688222
 105.4247518  95.3598354  75.0666913 104.7207580  94.1126483  75.5574021
 115.4291668  89.1403057  66.0144815 116.2637272  88.7084256  65.8322290
 115.2676011  88.9685071  66.9421709 115.0837560  85.6435170  67.3801154
 115.0286364  85.4779442  66.4389598 114.4583616  86.3511203  67.5363344
  99.8730075  80.8803235  81.2062577 100.5188939  80.3702189  81.6949802
  99.6647226  81.6171916  81.7806002 112.3983468  87.9484082  86.7054717
 113.2674627  88.1224735  86.3441352 111.9190219  88.7678499  86.5830446
 108.3933686  75.1443279  66.9586473 108.3812356  76.0885119  67.1154744
 109.2857108  74.9613425  66.6645934 106.5669648  95.0681183  78.3844151
 107.4696894  95.1004794  78.7010646 106.3407018  94.1381634  78.3990487
 108.3223250  93.8212170  75.0454229 107.3718881  93.8214031  74.9318602
 108.6255736  93.0744904  74.5290264 112.2085805  71.7386056  71.2132409
 111.4418201  71.1844543  71.3589092 112.6196510  71.8107925  72.0746561
 104.2127566  78.0270852  85.3037591 105.0759028  77.6707657  85.5140915
 103.6392977  77.6884747  85.9912995 120.8665650  99.6100136  76.0461516
 120.5284161  99.4941201  75.1582051 121.7355418  99.2091301  76.0262523
 116.7252465 101.4635613  72.0358407 116.1617330 101.3725550  71.2674695
 116.6104860 100.6435517  72.5160900 121.3485433 100.7634988  82.0047722
 121.3374073 100.3687786  81.1328226 121.5106072 100.0301061  82.5981493
 114.2716897 102.9586804  74.8742628 115.0638189 102.6177629  74.4588927
 114.5113547 103.0681779  75.7944781 116.2307651 102.2195718  67.7460007
 117.0038527 101.6724705  67.6072882 116.5833050 103.0839967  67.9574468
 118.0692694 103.5472100  80.9526906 117.7782560 104.4517731  80.8373572
 118.7049678 103.5888627  81.6670976 118.9948901 100.9248948  77.5428266
 119.5912473 100.7004971  76.8285229 119.0523872 100.1833694  78.1453713
 118.5673929  98.3788384  65.3778457 118.8199450  97.8569905  64.6161920
 117.6298488  98.2154529  65.4805140 118.2870218 100.2816490  67.5802832
 118.1706476  99.6061393  68.2483916 118.3972478  99.7948864  66.7634985
 120.6301759  99.7426637  71.2849521 120.2659966  99.2157258  71.9962442
 121.4868874  99.3525106  71.1116006 120.2707246  94.7716536  66.2810869
 120.4381648  95.6396773  66.6481340 120.0804415  94.9343818  65.3572159
 116.4795060  99.6847312  73.9813404 115.5545557  99.5523526  74.1891096
 116.7279473 100.4641531  74.4783346 120.2496466  97.2274194  67.2657536
 120.1296092  97.6731245  68.1043016 119.5549055  97.5759512  66.7071074
 113.8403871  99.3280586  74.8157193 113.9696252  99.5815065  75.7296605
 113.1601323  99.9208294  74.4961848 120.5020588  97.1705701  83.5709034
 119.7253922  97.7299621  83.5611899 121.1411151  97.6562484  84.0923904
 118.7566961  99.9791154  83.1327001 119.4981645 100.5176198  82.8561825
 118.0503946 100.6057443  83.2898553 120.5853370  97.0592902  79.1032720
 121.4314566  97.4832315  79.2467369 120.5252008  96.4026526  79.7971283
 120.1079077 102.4195894  72.7501537 120.5717422 102.6983597  71.9606159
 119.8435875 101.5179338  72.5674627 117.0003158 101.9667375  75.6881300
 117.5704515 102.3954644  75.0498784 117.5911270 101.6849960  76.3865486
 119.0447963  98.5419046  69.5591102 119.7472006  98.9940090  70.0265028
 118.7128591  97.9002865  70.1870995 117.4928324  97.1330803  83.9342311
 116.8626985  97.8147084  84.1677708 117.3864412  97.0213884  82.9895449
 112.7873297  96.8002599  74.8608235 111.9972351  97.0560127  74.3848346
 113.2784544  97.6150937  74.9660276 114.7388042  97.1647178  71.8191712
 113.9419205  97.2765872  72.3375208 114.5113634  97.5033830  70.9532603
 120.5693710 103.6891881  79.7674227 120.6338142 104.1512288  80.6032399
 119.8604634 103.0589246  79.8956537 111.0711000  97.0533089  77.2923226
 111.3219038  97.9380099  77.5580802 111.6070548  96.8737691  76.5198318
 120.2841727 105.3559989  69.6353207 120.1487402 106.2011524  70.0638055
 120.8251540 105.5579266  68.8719141 116.7709067  91.4351568  86.2967562
 116.3776013  90.8817767  86.9715207 117.5875207  91.7462147  86.6874080
 113.7371125 102.8735427  70.2081132 114.2495645 103.6678677  70.3586697
 114.3893838 102.1761717  70.1414734 115.5466010 105.9901183  72.2903885
 115.7232638 106.9119148  72.1024869 116.3422843 105.6759602  72.7198265
 119.6877028  92.8509448  83.8887819 120.4286741  93.4516601  83.8092281
 119.9194951  92.1087085  83.3305861 114.8318366  98.0365815  82.1666049
 114.7171881  97.1351072  82.4673147 113.9762884  98.2829512  81.8150865
 116.6697325 107.5079357  78.2914228 117.2204750 107.3796420  77.5191222
 115.8308801 107.8074246  77.9409120 120.4664496 103.7730485  82.6358459
 120.9992833 103.0118773  82.4057767 119.9378577 103.4804136  83.3782613
 111.7020042 101.2024081  70.9840703 112.5395264 101.6121089  70.7674410
 111.8798309 100.2623523  70.9540897 121.1831585  93.7148862  71.7309774
 120.3273181  93.3255713  71.5515413 121.5958537  93.7940823  70.8709560
 118.9573617  91.3333935  75.1367516 119.8226614  91.1376744  74.7773405
 119.0251126  91.1044287  76.0636872 121.8317209 102.9016477  70.1477271
 121.3038570 102.1669237  69.8350508 121.3304711 103.6791153  69.9017239
 116.5635936  93.5636143  72.5083882 117.1379688  93.3411325  71.7757075
 117.1506919  93.6324838  73.2612484 116.8905523  95.5940604  66.5279768
 116.0542836  95.9315291  66.8489042 116.7510293  95.4589584  65.5906905
 118.8658604  90.4377392  71.2358952 118.2123016  90.1226409  70.6115567
 118.8239078  89.8153133  71.9618775 119.9769809 100.7196687  63.1512244
 119.0696871 100.4885941  63.3503393 120.4740841  99.9234307  63.3386225
 121.1558042 100.8209282  67.6736234 120.2469262 100.5368315  67.7708704
 121.1853126 101.2408361  66.8139541 111.7246213  98.5414796  71.6551436
 111.5270613  97.9484157  70.9302503 111.1692877  98.2367006  72.3727375
 119.7042936  98.4337903  73.7746029 119.7591546  97.4811739  73.6988506
 118.8934138  98.5897342  74.2587328 120.8534130 102.3618026  65.0124312
 120.4153560 101.6453885  64.5529950 121.5944571 102.5894141  64.4509404
 117.6435296  97.0514963  71.5336408 116.8303162  97.3509133  71.9401600
 118.1394291  96.6570651  72.2510890 117.1349371  94.6233318  77.1497643
 117.7748750  94.4822077  76.4520606 116.3026902  94.3367831  76.7736245
 117.9109675 103.9235748  73.2632636 118.7050273 103.4286069  73.0615211
 117.2001367 103.3953612  72.9000341 114.2192438  98.0678830  69.3392388
 113.2890027  98.0063286  69.5562350 114.3149910  97.5454783  68.5429029
 114.1377988  94.5933643  71.9270630 114.3984805  95.5078976  71.8179790
 114.9595160  94.1258086  72.0767243 115.6102913  96.0071400  79.0969454
 116.2825966  95.7988762  78.4482103 114.7832699  95.8093486  78.6574687
 121.5128485  92.6333341  81.1135115 120.8656400  93.3323291  81.0199592
 122.2829500  93.0669485  81.4811363 120.4880951 104.4964770  76.9430473
 120.3492037 104.1283555  77.8156411 119.6995547 105.0112410  76.7714430
 122.0386166 103.8746373  74.3319310 121.7035999 103.8347143  75.2276960
 121.5390112 103.2091089  73.8589721 116.0130410  99.2814003  79.8571892
 115.8750208  98.5494242  80.4583431 116.9235334  99.1922903  79.5756079
 118.6412711  98.9933963  79.3455571 119.3512329  98.3527155  79.3042190
 118.5982019  99.2446857  80.2681752 117.3541645  95.9799180  81.1651211
 116.8179002  95.5289919  81.8172807 116.7658353  96.1145089  80.4221675
 116.7643904  95.4387832  63.7277674 115.8873370  95.3176633  63.3639921
 117.2401657  94.6473910  63.4756563 108.2846044 100.2264992  73.8219181
 108.9717084  99.9126722  73.2340197 108.1294173 101.1306356  73.5486433
 113.0880766  95.1155188  78.2504205 113.0038955  94.5080858  77.5154615
 112.2663472  95.6064206  78.2513702 119.8439449  95.7426135  73.3446085
 119.4737236  95.1897175  74.0326990 120.3398541  95.1384268  72.7921085
 117.6728647 106.2023630  80.4401103 118.3738107 106.8360113  80.5930497
 117.2023762 106.5438361  79.6796742 121.5217506  99.4988048  84.7519690
 120.8458143  99.3982177  85.4222065 122.3445140  99.3427262  85.2155687
 113.2696365 105.7359985  77.3732205 113.8549802 104.9903673  77.5060110
 113.0721204 106.0463941  78.2568869 116.1235020 108.7711232  72.3894648
 115.4545396 109.2557360  71.9058688 115.9847890 109.0180453  73.3038026
 107.8614020  98.3065585  76.0936649 107.8998119  97.7729176  76.8873767
 107.3554313  97.7800790  75.4747626 115.2404782  93.1530125  79.5899191
 115.3046109  94.0144956  79.1776589 115.1771903  92.5404127  78.8571549
 114.7157055  95.2253258  83.2372225 115.3429094  94.8430335  83.8509750
 113.8584974  95.0067460  83.6027918 111.4922598  97.0329687  69.1690580
 111.7876039  96.1240365  69.1157634 110.5910633  97.0117426  68.8471582
 115.0216845  95.1085684  75.1518129 114.3003430  95.7221651  75.0125602
 115.8110100  95.6443448  75.0734775 117.8243158  92.4440110  81.4258780
 118.3477560  92.6902407  82.1885090 117.6055491  93.2760145  81.0061918
 113.2210439  94.7143785  69.2929905 112.8923145  93.8341164  69.1105011
 113.5749810  94.6591453  70.1806294 116.3352262  95.0016754  69.6605383
 116.6748335  95.5302676  68.9383991 116.7824383  95.3397161  70.4363949
 119.0295703  93.3853805  79.1108451 118.6892523  92.5861618  79.5129131
 118.3234709  93.6855516  78.5385284 119.6812175  90.4703118  77.5635774
 120.5038244  89.9963596  77.4414664 119.9250238  91.2493601  78.0634460
 118.3220409  93.4991376  67.8598676 119.0428772  93.8772629  67.3562392
 117.6985714  94.2180253  67.9633654 117.2050754  97.1622238  75.3727753
 117.0595334  97.4762541  76.2652034 116.7275957  97.7807139  74.8198651
 119.0647137  94.1524786  75.4208642 119.0508705  93.2565880  75.0840940
 119.7819565  94.1595450  76.0546928 120.9173267  94.5862126  77.4661770
 120.6591045  95.5079197  77.4646100 120.3858308  94.1892561  78.1562234
 111.6796416  99.7027583  78.3115414 111.1349884 100.4787391  78.4435688
 112.5575766 100.0498387  78.1534535 118.4684033  93.0339167  70.6896212
 118.5899944  92.1055813  70.8887100 118.1786075  93.0477853  69.7774528
 121.3375223  90.7194077  73.8262932 121.3596920  90.7833410  72.8714912
 121.7543282  89.8798586  74.0203438 112.4662438  98.8297479  81.2045571
 111.7244174  98.9780114  81.7910201 112.1455182  99.0905745  80.3412320
 112.9119051 106.7162908  73.2355965 113.7377071 106.4166680  72.8554609
 112.5613103 105.9470530  73.6845754 117.8800585 106.0689376  75.3053639
 117.2580594 105.4060081  75.0055867 118.5505451 106.0950508  74.6227287
 111.1127656 104.6349234  74.1944899 110.2759565 104.2071408  74.0128900
 111.0851302 104.8281677  75.1315690 117.9525112  94.5471164  84.8986145
 118.0013268  95.4233287  84.5163914 118.4947626  94.0048557  84.3257788
 117.4414091 104.6193299  68.7812099 117.5902212 105.3028764  68.1278772
 118.2480535 104.5998389  69.2961555 120.1824400  95.3002536  81.6532503
 119.3127710  95.5936102  81.3815092 120.4183881  95.8842981  82.3739767
 115.1966724 100.6458477  69.7873168 114.9512766  99.7420807  69.9853378
 115.3662639 100.6475627  68.8452646 114.4662372  96.3786834  67.2859330
 113.7731617  96.4531189  66.6299366 114.2214124  95.6147178  67.8080847
 121.3256295  98.4502242  63.5939899 122.2715400  98.3208451  63.6628317
 120.9470540  97.7116904  64.0709327 121.2094988 102.5019989  85.0540556
 122.1297997 102.6798588  85.2480603 121.1744571 101.5576034  84.9020256
 119.5099213  96.3752219  63.5294785 118.6030668  96.0785332  63.6057498
 119.7875194  96.0782037  62.6629071 110.4277153  97.6958582  73.9793831
 110.1079937  96.8423890  73.6868205 109.8810581  97.9107160  74.7351798
 114.2057061 100.4121023  77.6963337 114.4243070 101.3438131  77.7151371
 114.6182834 100.0528998  78.4818141 121.1261278  90.9189109  69.6839026
 120.3162007  90.5736194  70.0594272 121.8145695  90.6096652  70.2726637
 119.0784926  95.9854229  87.0866086 118.9781653  96.9348586  87.0178177
 118.8606468  95.6572468  86.2142156 118.2797997  93.2339154  63.6706764
 119.1417161  93.5594052  63.9302581 118.4648341  92.4470650  63.1579829
 110.2965413 101.3161494  75.9486952 109.6028884 100.9015447  75.4356907
 111.0438404 101.3582030  75.3520371 118.9416196  99.4151368  85.9031148
 118.4583278 100.2151728  86.1095037 119.0277135  99.4259313  84.9498592
 112.2102156 101.2479747  73.8252967 112.1872844 101.3467435  72.8734850
 112.5202792 102.0944898  74.1470133 114.8689533 103.3055903  77.9399582
 115.8232787 103.2739845  77.8729513 114.6702057 102.8446526  78.7549808
 115.4588916 101.8757019  80.5070379 116.2781805 102.3701097  80.5305217
 115.7325723 100.9588987  80.4787947 113.2239762 108.8475522  74.9569780
 113.0894230 108.0875923  74.3907778 112.8071824 109.5716422  74.4898569
 110.7123830  96.2095152  81.2062577 111.3582693  95.6994106  81.6949802
 110.5040981  96.9463834  81.7806002 119.2327440  90.4735197  66.9586473
 119.2206110  91.4177037  67.1154744 120.1250862  90.2905342  66.6645934
 115.0521321  93.3562770  85.3037591 115.9152782  92.9999574  85.5140915
 114.4786731  93.0176664  85.9912995  52.9740833  -4.9711548  57.6392974
  52.8964863  -4.0203723  57.7181455  52.3702476  -5.3165675  58.2967900
  50.6127663  -2.2226154  61.7841176  50.8524261  -1.5907630  62.4620195
  49.7696859  -2.5738114  62.0706535  51.0872495  -6.1978151  59.1139954
  50.4182870  -5.7132024  58.6303995  50.9485364  -5.9508931  60.0283333
  55.2277763  -4.1634408  65.7122613  55.7796071  -4.0002786  66.4771698
  55.5683957  -3.5729970  65.0402638  55.3964187  -4.4438017  59.9576644
  54.9569177  -4.9361638  60.6509500  56.1472304  -4.9865049  59.7168719
  48.1877237  -6.1213861  61.6815086  48.0531704  -6.8813461  61.1153084
  47.7709299  -5.3972962  61.2143875  51.3446362  -5.2244544  61.8933529
  51.2278747  -4.2799112  61.7912219  50.5238809  -5.5270983  62.2819328
  52.3700877  -4.5716283  65.1089457  53.2728123  -4.5392672  65.4255952
  52.1438247  -5.5015832  65.1235793  66.6696878  -0.0297329  62.7706823
  66.3315390  -0.1456265  61.8827358  67.5386647  -0.4306164  62.7507829
  62.5283694   1.8238147  58.7603714  61.9648559   1.7328084  57.9920002
  62.4136089   1.0038051  59.2406207  67.1516661   1.1237522  68.7293029
  67.1405302   0.7290321  67.8573532  67.3137301   0.3903595  69.3226800
  60.0748126   3.3189339  61.5987934  60.8669418   2.9780163  61.1834234
  60.3144776   3.4284314  62.5190088  68.1083253   5.4909115  54.0718179
  67.4571232   6.0763195  53.6852193  68.9027616   6.0215310  54.1313216
  62.0338880   2.5798252  54.4705313  62.8069756   2.0327239  54.3318189
  62.3864279   3.4442501  54.6819775  63.8723922   3.9074634  67.6772213
  63.5813788   4.8120265  67.5618879  64.5080907   3.9491162  68.3916282
  64.7980129   1.2851483  64.2673572  65.3943702   1.0607505  63.5530535
  64.8555101   0.5436228  64.8699020  64.3705158  -1.2609082  52.1023763
  64.6230678  -1.7827561  51.3407226  63.4329717  -1.4242937  52.2050447
  69.5858518   3.1799547  54.6087163  68.9504351   3.2534173  55.3208068
  69.2555924   3.7693145  53.9306242  64.0901446   0.6419024  54.3048138
  63.9737705  -0.0336073  54.9729222  64.2003706   0.1551398  53.4880291
  66.4332987   0.1029171  58.0094827  66.0691195  -0.4240208  58.7207749
  67.2900103  -0.2872360  57.8361313  68.8313808   3.5936050  64.6722006
  68.5314531   4.4961088  64.5637813  68.4864867   3.3268233  65.5243159
  62.2826289   0.0449846  60.7058711  61.3576785  -0.0873940  60.9136402
  62.5310702   0.8244066  61.2028653  59.6435100  -0.3116880  61.5402500
  59.7727481  -0.0582401  62.4541911  58.9632551   0.2810828  61.2207155
  63.8134587  10.3580370  57.6392974  63.7358617  11.3088195  57.7181455
  63.2096231  10.0126242  58.2967900  64.5598189   0.3393689  69.8572308
  65.3012874   0.8778733  69.5807131  63.8535175   0.9659977  70.0143860
  70.0353529   2.4822829  68.4544469  70.4436885   2.0405240  67.7099102
  69.3130791   1.9075457  68.7078662  70.3582344   3.0424020  62.2096758
  69.7291206   3.2069734  61.5072826  69.9708006   3.4565629  62.9807722
  74.2371576   3.9778458  59.5641122  73.5522614   4.3577359  59.0138155
  74.3215425   4.5873784  60.2973070  71.4922507   1.6238417  66.1636466
  71.7039402   2.2670177  65.4870847  71.4452255   0.7900733  65.6958396
  65.9110306   2.7798428  59.4746843  66.3748651   3.0586131  58.6851466
  65.6467104   1.8781872  59.2919934  62.8034387   2.3269909  62.4126607
  63.3735744   2.7557178  61.7744091  63.3942498   2.0452494  63.1110792
  64.8479192  -1.0978420  56.2836408  65.5503235  -0.6457376  56.7510335
  64.5159820  -1.7394601  56.9116302  63.2959553  -2.5066663  70.6587618
  62.6658214  -1.8250382  70.8923015  63.1895641  -2.6183582  69.7140756
  58.5904526  -2.8394867  61.5853542  57.8003580  -2.5837339  61.1093653
  59.0815773  -2.0246529  61.6905583  72.6068335   4.5010372  64.3358823
  73.4285779   4.0990559  64.0541504  72.6030738   4.3978606  65.2874939
  60.5419271  -2.4750288  58.5437019  59.7450434  -2.3631594  59.0620514
  60.3144863  -2.1363636  57.6777909  66.3724939   4.0494415  66.4919533
  66.4369371   4.5114823  67.3277705  65.6635862   3.4191780  66.6201843
  56.8742229  -2.5864377  64.0168533  57.1250267  -1.7017367  64.2826109
  57.4101777  -2.7659775  63.2443625  66.0872956   5.7162523  56.3598514
  65.9518631   6.5614059  56.7883361  66.6282769   5.9181801  55.5964447
  59.5402354   3.2337961  56.9326439  60.0526874   4.0281211  57.0832003
  60.1925066   2.5364251  56.8660040  61.3497238   6.3503717  59.0149192
  61.5263867   7.2721682  58.8270176  62.1454072   6.0362136  59.4443572
  60.6349595  -1.6031651  68.8911355  60.5203110  -2.5046394  69.1918454
  59.7794113  -1.3567954  68.5396172  67.7141433   6.3386089  70.4898856
  67.2705287   5.5522468  70.1719760  68.3758646   6.5265240  69.8242747
  62.4728554   7.8681891  65.0159534  63.0235979   7.7398954  64.2436528
  61.6340030   8.1676780  64.6654427  69.8122671   6.6188889  68.5180257
  69.7941146   7.4397770  68.0260526  70.7342591   6.4942965  68.7430398
  66.2695725   4.1333019  69.3603765  66.8024062   3.3721307  69.1303073
  65.7409806   3.8406671  70.1027920  57.5051270   1.5626615  57.7086009
  58.3426492   1.9723624  57.4919717  57.6829538   0.6226057  57.6786203
  74.3749977   1.9834050  55.3323016  73.5979419   1.6445210  54.8878178
  75.0541458   1.9886674  54.6577981  67.6348438   3.2619011  56.8722577
  67.1069799   2.5271771  56.5595815  67.1335940   4.0393688  56.6262546
  72.6141284   1.4568032  61.9889624  71.9564958   2.1467293  62.0769752
  73.4181683   1.8464464  62.3323610  65.7801038   1.0799222  49.8757550
  64.8728099   0.8488475  50.0748699  66.2772070   0.2836841  50.0631532
  68.6869117   9.7896729  52.7954237  68.0130815  10.0928425  53.4039194
  69.0734939  10.5925809  52.4459694  66.9589271   1.1811816  54.3981541
  66.0500490   0.8970849  54.4954010  66.9884355   1.6010895  53.5384847
  72.1908539   4.7918406  58.1672708  71.7370866   3.9509316  58.2237899
  71.5602505   5.4279804  58.5047488  70.6341478   6.6294903  59.1022526
  70.9264452   7.1899960  58.3834892  71.1440098   6.9223464  59.8575685
  57.5277442  -1.0982669  58.3796743  57.3301841  -1.6913309  57.6547809
  56.9724106  -1.4030459  59.0972682  66.6565359   2.7220560  51.7369619
  66.2184789   2.0056419  51.2775256  67.3975800   2.9496675  51.1754711
  65.5975103   7.4075254  60.1915979  65.5551282   7.6336100  59.2624511
  66.5137802   7.1738628  60.3401781  74.8007853   3.0654284  62.8057209
  75.2344360   2.9729573  63.6540263  75.5139434   3.0411785  62.1677225
  63.7140904   4.2838283  59.9877942  64.5081502   3.7888603  59.7860517
  63.0032596   3.7556146  59.6245648  68.5335748   6.6656378  64.3390310
  68.5872771   7.2347315  65.1068026  67.6650530   6.8358263  63.9744347
  60.0223667  -1.5718636  56.0637695  59.0921255  -1.6334180  56.2807657
  60.1181139  -2.0942683  55.2674336  75.6623403   3.1077985  65.3390095
  75.8559293   4.0123795  65.5849370  75.5624021   2.6485404  66.1728680
  70.7238512   3.2584728  70.9130975  70.5724018   3.0295279  69.9961059
  70.7143191   4.2155329  70.9262320  67.4923848   0.8316640  65.8977242
  68.4215908   0.9827800  65.7246209  67.0714878   0.9200661  65.0425888
  66.2912180   4.8567305  63.6675779  66.1523265   4.4886089  64.5401717
  65.5026776   5.3714944  63.4959737  66.8860332   9.9576401  55.0101316
  67.0612087   9.4864444  55.8246938  66.1993120  10.5842167  55.2382577
  67.8417395   4.2348907  61.0564617  67.5067228   4.1949677  61.9522267
  67.3421341   3.5693623  60.5835027  61.8161639  -0.3583463  66.5817198
  61.6781437  -1.0903224  67.1828737  62.7266562  -0.4474563  66.3001386
  70.7776587   1.5804942  51.3301677  70.1605757   0.8551770  51.2334729
  70.3093075   2.3414302  50.9868751  64.4443940  -0.6463503  66.0700878
  65.1543558  -1.2870311  66.0287496  64.4013248  -0.3950608  66.9927059
  72.4330718   6.2903850  68.9907457  72.3743264   5.6063070  68.3238040
  72.8350237   7.0322840  68.5388083  61.4521417  13.1065764  61.7841176
  61.6918015  13.7384288  62.4620195  60.6090614  12.7553804  62.0706535
  72.4348126   4.2543434  67.2221437  71.5474904   3.9169356  67.3447836
  73.0046677   3.5226465  67.4590202  54.0877273   0.5867526  60.5464488
  54.7748312   0.2729256  59.9585503  53.9325401   1.4908890  60.2731740
  65.9649279   8.9144886  64.1882680  65.8919450   9.7199858  64.7001985
  65.5226672   9.1136852  63.3630701  65.7539059   8.1516656  57.6985501
  64.9706580   8.6938337  57.7923726  66.4531804   8.6690636  58.0979743
  68.4247962   8.8131720  66.3440839  69.1375935   9.4479185  66.2716740
  67.9337991   8.9095586  65.5280840  70.1465489   2.7182973  57.9158130
  69.2121768   2.8384436  57.7462835  70.3242158   1.8155440  57.6518140
  63.4759876   6.5626164  67.1646409  64.1769335   7.1962647  67.3175804
  63.0054991   6.9040895  66.4042049  71.6014272   4.9044114  55.4494316
  71.8774116   4.7900708  56.3588191  70.7318771   4.5061598  55.4106490
  68.2368336   9.1530464  59.0927130  68.4190730   8.3352120  59.5554882
  69.0601322   9.3698157  58.6552020  68.5710501   8.0798650  56.3542179
  69.0998268   7.5691104  55.7412341  68.8338721   7.7641180  57.2187712
  67.3248735  -0.1409418  71.4764997  66.6489372  -0.2415288  72.1467372
  68.1476369  -0.2970204  71.9400994  59.0727594   6.0962519  64.0977512
  59.6581031   5.3506207  64.2305416  58.8752432   6.4066476  64.9814176
  61.9266249   9.1313766  59.1139954  61.2576625   9.6159894  58.6303995
  61.7879119   9.3782987  60.0283333  53.6645249  -1.3331881  62.8181955
  53.7029348  -1.8668290  63.6119073  53.1585542  -1.8596675  62.1992932
  66.0671518  11.1657510  65.7122613  66.6189826  11.3289131  66.4771698
  66.4077711  11.7561948  65.0402638  70.9182392   5.9918767  71.5671267
  71.4622296   6.6048726  71.0726222  70.3369237   6.5498346  72.0838280
  57.2953826  -2.6067779  55.8935887  57.5907267  -3.5157100  55.8402940
  56.3941862  -2.6280039  55.5716889  69.2039905   9.1139485  62.6986295
  69.0791045   8.3129225  62.1897241  69.8618996   9.6085679  62.2100265
  71.2674814   6.9148505  64.3265845  70.3205149   6.7953857  64.2544172
  71.6157587   6.0271003  64.4092107  68.2721247   6.7101222  60.5270197
  68.1246209   5.7817929  60.7077767  69.0974740   6.7321312  60.0427273
  71.8755369   7.5329780  61.6135070  72.8001916   7.3272642  61.4759521
  71.7070672   7.2846182  62.5224412  63.0081983  -2.4775228  62.0973059
  62.8626563  -2.1634924  62.9897341  62.5307186  -1.8590327  61.5443958
  71.6650685   8.0515448  56.9697162  71.8387562   7.4861870  56.2171014
  72.1579576   8.8516343  56.7876651  57.4827645   0.0630117  65.0360720
  56.9381113   0.8389925  65.1680995  58.3606995   0.4100921  64.8779842
  72.6525857   7.3682212  54.0694060  73.3476762   7.9888905  54.2881374
  72.9949007   6.5177563  54.3446438  58.2693667  -0.8099987  67.9290877
  57.5275403  -0.6617351  68.5155508  57.9486411  -0.5491721  67.0657627
  74.5517280   4.8181918  55.5981391  75.0768605   5.1569190  54.8730711
  74.4639633   3.8828933  55.4144525  66.2137329   8.7315991  67.7271267
  66.5224456   8.4865138  68.5993967  67.0112811   8.9362630  67.2390137
  66.2357941  10.8853901  59.9576644  65.7962932  10.3930280  60.6509500
  66.9866058  10.3426869  59.7168719  58.7150280   7.0765442  59.9601272
  59.5408300   6.7769214  59.5799915  58.3644332   6.3073064  60.4091061
  63.6831813   6.4291910  62.0298945  63.0611823   5.7662615  61.7301173
  64.3536680   6.4553042  61.3472593  56.9158885   4.9951768  60.9190205
  56.0790794   4.5673943  60.7374207  56.8882531   5.1884212  61.8560997
  74.2411187   5.4514821  70.9032589  73.4506730   5.4338960  70.3637088
  74.0044541   5.9903115  71.6581625  74.3609062   2.3007288  68.2165317
  74.4107067   2.1357295  69.1580840  74.2522985   1.4334547  67.8263198
  63.2445320   4.9795833  55.5057406  63.3933441   5.6631298  54.8524079
  64.0511764   4.9600924  56.0206862  75.8627258   4.7204229  68.4607339
  75.5712067   5.0834210  69.2970800  75.2499390   4.0071238  68.2820671
  60.9997953   1.0061011  56.5118475  60.7543995   0.1023341  56.7098685
  61.1693868   1.0078162  55.5697953  66.7440726   7.4743964  52.9769153
  66.1714693   8.0934151  52.5239625  67.3173519   8.0243326  53.5109075
  69.9637986   7.7581114  54.1077736  70.8968659   7.6926676  54.3110611
  69.8761198   8.5937381  53.6492268  72.5926002   7.0746984  51.0681683
  72.5139634   6.7406848  51.9617441  73.4135669   7.5668752  51.0673156
  67.0126217   2.8622523  71.7785863  67.9329226   3.0401122  71.9725909
  66.9775800   1.9178568  71.6265562  56.2308382  -1.9438884  60.7039138
  55.9111166  -2.7973575  60.4113512  55.6841810  -1.7290305  61.4597105
  60.0088289   0.7723557  64.4208644  60.2274299   1.7040665  64.4396678
  60.4214063   0.4131532  65.2063448  56.0996642   1.6764028  62.6732259
  55.4060113   1.2617981  62.1602214  56.8469633   1.7184564  62.0765678
  64.7447425  -0.2246098  72.6276455  64.2614506   0.5754262  72.8340344
  64.8308364  -0.2138153  71.6743899  58.0133384   1.6082282  60.5498274
  57.9904072   1.7069969  59.5980157  58.3234021   2.4547433  60.8715440
  60.6720762   3.6658437  64.6644888  61.6264016   3.6342379  64.5974820
  60.4733286   3.2049060  65.4795114  61.2620144   2.2359553  67.2315686
  62.0813033   2.7303631  67.2550523  61.5356952   1.3191521  67.2033254
  59.0270991   9.2078056  61.6815086  58.8925459   8.4478457  61.1153084
  58.6103053   9.9318956  61.2143875  70.1629954   4.3914980  50.6891662
  70.8665804   4.5964982  51.3049317  69.4392603   4.9591742  50.9540745
  62.1840117  10.1047373  61.8933529  62.0672501  11.0492806  61.7912219
  61.3632563   9.8020935  62.2819328  72.0716651   4.8297509  52.7390122
  72.9062255   4.3978707  52.5567596  71.9100994   4.6579523  53.6667016
  71.7262544   1.3329622  54.1046461  71.6711347   1.1673894  53.1634905
  71.1008599   2.0405655  54.2608651  56.5155059  -3.4302313  67.9307883
  57.1613922  -3.9403359  68.4195108  56.3072210  -2.6933632  68.5051308
  69.0408451   3.6378534  73.4300024  69.9099610   3.8119186  73.0686659
  68.5615202   4.4572951  73.3075753  63.2094631  10.7575635  65.1089457
  64.1121878  10.7899245  65.4255952  62.9832001   9.8276086  65.1235793
  64.9648233   9.5106622  61.7699536  64.0143864   9.5108483  61.6563908
  65.2680719   8.7639356  61.2535571  80.7000927  15.3467160  62.8345298
  81.3379336  15.2273907  62.1308638  80.5821769  16.2948004  62.8933251
  77.5090633  15.2994588  62.7706823  77.1709144  15.1835653  61.8827358
  78.3780401  14.8985753  62.7507829  73.3677449  17.1530065  58.7603714
  72.8042314  17.0620002  57.9920002  73.2529844  16.3329969  59.2406207
  77.9910416  16.4529440  68.7293029  77.9799057  16.0582238  67.8573532
  78.1531055  15.7195513  69.3226800  70.9141880  18.6481256  61.5987934
  71.7063172  18.3072081  61.1834234  71.1538531  18.7576231  62.5190088
  78.9477007  20.8201032  54.0718179  78.2964987  21.4055113  53.6852193
  79.7421370  21.3507227  54.1313216  72.8732634  17.9090169  54.4705313
  73.6463510  17.3619157  54.3318189  73.2258033  18.7734419  54.6819775
  74.7117677  19.2366552  67.6772213  74.4207543  20.1412183  67.5618879
  75.3474661  19.2783079  68.3916282  75.6373884  16.6143400  64.2673572
  76.2337456  16.3899423  63.5530535  75.6948855  15.8728146  64.8699020
  75.2098912  14.0682836  52.1023763  75.4624433  13.5464357  51.3407226
  74.2723471  13.9048981  52.2050447  80.2542195  13.0718614  59.9098506
  81.0405284  12.6538037  59.5588923  80.5180899  13.9764706  60.0780155
  80.4252272  18.5091464  54.6087163  79.7898105  18.5826091  55.3208068
  80.0949679  19.0985063  53.9306242  85.6550622  13.0093847  60.8131485
  86.3875794  12.4393064  61.0469314  84.8989978  12.6215448  61.2537991
  74.9295201  15.9710942  54.3048138  74.8131459  15.2955845  54.9729222
  75.0397461  15.4843315  53.4880291  77.2726742  15.4321089  58.0094827
  76.9084949  14.9051710  58.7207749  78.1293858  15.0419558  57.8361313
  83.1776042   6.7215421  65.2726094  82.8459367   7.5910832  65.0487309
  82.5821656   6.4051705  65.9520124  76.9132229  10.4610988  53.0056176
  77.0806631  11.3291225  53.3726647  76.7229398  10.6238270  52.0817465
  79.6707562  18.9227967  64.6722006  79.3708285  19.8253006  64.5637813
  79.3258622  18.6560150  65.5243159  73.1220044  15.3741764  60.7058711
  72.1970540  15.2417978  60.9136402  73.3704457  16.1535983  61.2028653
  83.0704706  11.4410507  62.3519444  82.1621583  11.3725916  62.0578205
  83.0192302  11.9182452  63.1801269  76.8921450  12.9168646  53.9902843
  76.7721075  13.3625697  54.8288323  76.1974038  13.2653963  53.4316381
  70.4828855  15.0175038  61.5402500  70.6121236  15.2709517  62.4541911
  69.8026306  15.6102746  61.2207155  77.1445572  12.8600153  70.2954341
  76.3678906  13.4194073  70.2857205  77.7836135  13.3456936  70.8169211
  84.9366352   9.6426946  64.1297318  84.2940732   9.9359479  63.4837112
  84.4321281   9.5279866  64.9350514  82.5906516  13.3890119  54.8183177
  83.5024372  13.6217506  54.6430874  82.0816163  13.9727163  54.2558255
  75.3991944  15.6685606  69.8572308  76.1406628  16.2070650  69.5807131
  74.6928929  16.2951895  70.0143860  80.8747284  17.8114747  68.4544469
  81.2830640  17.3697157  67.7099102  80.1524545  17.2367374  68.7078662
  77.2278354  12.7487354  65.8278026  78.0739549  13.1726767  65.9712675
  77.1676991  12.0920978  66.5216589  81.1976098  18.3715937  62.2096758
  80.5684961  18.5361652  61.5072826  80.8101760  18.7857547  62.9807722
  85.0765330  19.3070375  59.5641122  84.3916368  19.6869277  59.0138155
  85.1609179  19.9165702  60.2973070  80.3777799  10.4091722  67.4859200
  80.1338731  11.1633782  66.9493476  80.6537729  10.7877070  68.3206447
  82.3316262  16.9530334  66.1636466  82.5433157  17.5962094  65.4870847
  82.2846010  16.1192651  65.6958396  79.9342491   9.5648155  63.0673038
  79.0726970   9.8629409  63.3589775  79.9604925   9.7818554  62.1354070
  76.7504060  18.1090346  59.4746843  77.2142406  18.3878049  58.6851466
  76.4860858  17.2073790  59.2919934  73.6428141  17.6561827  62.4126607
  74.2129498  18.0849095  61.7744091  74.2336253  17.3744412  63.1110792
  75.6872946  14.2313498  56.2836408  76.3896989  14.6834542  56.7510335
  75.3553575  13.5897317  56.9116302  74.1353308  12.8225255  70.6587618
  73.5051968  13.5041535  70.8923015  74.0289396  12.7108336  69.7140756
  69.4298280  12.4897051  61.5853542  68.6397334  12.7454579  61.1093653
  69.9209527  13.3045388  61.6905583  83.4462090  19.8302290  64.3358823
  84.2679533  19.4282477  64.0541504  83.4424493  19.7270524  65.2874939
  71.3813025  12.8541630  58.5437019  70.5844189  12.9660324  59.0620514
  71.1538618  13.1928282  57.6777909  77.2118693  19.3786333  66.4919533
  77.2763126  19.8406740  67.3277705  76.5029617  18.7483698  66.6201843
  67.7135983  12.7427541  64.0168533  67.9644021  13.6274551  64.2826109
  68.2495531  12.5632143  63.2443625  91.5368083  16.1741038  60.6843794
  90.7831791  15.6048436  60.5287799  91.6715624  16.1403703  61.6314429
  76.9266711  21.0454441  56.3598514  76.7912386  21.8905976  56.7883361
  77.4676523  21.2473718  55.5964447  73.4134050   7.1246020  73.0212869
  73.0200996   6.5712219  73.6960513  74.2300191   7.4356599  73.4119386
  70.3796108  18.5629879  56.9326439  70.8920629  19.3573129  57.0832003
  71.0318821  17.8656169  56.8660040  72.1890993  21.6795635  59.0149192
  72.3657621  22.6013600  58.8270176  72.9847826  21.3654054  59.4443572
  76.3302011   8.5403899  70.6133125  77.0711725   9.1411053  70.5337588
  76.5619934   7.7981537  70.0551168  71.4743349  13.7260267  68.8911355
  71.3596865  12.8245524  69.1918454  70.6187867  13.9723963  68.5396172
  78.5535187  21.6678007  70.4898856  78.1099041  20.8814386  70.1719760
  79.2152401  21.8557158  69.8242747  73.3122308  23.1973809  65.0159534
  73.8629733  23.0690872  64.2436528  72.4733784  23.4968698  64.6654427
  80.6516425  21.9480807  68.5180257  80.6334901  22.7689688  68.0260526
  81.5736345  21.8234882  68.7430398  77.1089479  19.4624936  69.3603765
  77.6417816  18.7013225  69.1303073  76.5803560  19.1698588  70.1027920
  80.2759174   4.5685002  64.8897407  79.9323444   5.4586644  64.8136518
  80.6438137   4.3786660  64.0266992  68.3445025  16.8918533  57.7086009
  69.1820247  17.3015541  57.4919717  68.5223293  15.9517975  57.6786203
  80.2409457  14.5593614  53.3969842  79.7256080  15.3298218  53.6358230
  79.9686765  13.8858750  54.0202904  77.8256568   9.4043314  58.4555081
  76.9698164   9.0150165  58.2760719  78.2383520   9.4835275  57.5954866
  79.3555715   6.9389658  62.8546640  78.8520510   6.9019793  62.0414446
  79.6486322   7.8482400  62.9143297  75.5998601   7.0228387  61.8612822
  76.4651597   6.8271196  61.5018712  75.6676109   6.7938739  62.7882179
  85.2143731  17.3125968  55.3323016  84.4373174  16.9737128  54.8878178
  85.8935212  17.3178591  54.6577981  80.0295760  12.4320706  55.2229623
  79.7245896  12.7466855  56.0739767  80.9826202  12.5102126  55.2656956
  78.4742192  18.5910929  56.8722577  77.9463554  17.8563689  56.5595815
  77.9729695  19.3685605  56.6262546  83.4535038  16.7859949  61.9889624
  82.7958713  17.4759211  62.0769752  84.2575437  17.1756381  62.3323610
  73.2060920   9.2530595  59.2329189  73.7804672   9.0305777  58.5002382
  73.7931902   9.3219290  59.9857790  82.2640497  15.1404322  60.0393565
  82.7772379  15.7734314  60.5415275  82.9141721  14.5405518  59.6736925
  73.5330507  11.2835056  53.2525074  72.6967819  11.6209743  53.5734349
  73.3935276  11.1484036  52.3152211  75.5083587   6.1271844  57.9604258
  74.8548000   5.8120861  57.3360873  75.4664062   5.5047585  58.6864081
  76.6194792  16.4091139  49.8757550  75.7121854  16.1780393  50.0748699
  77.1165824  15.6128758  50.0631532  78.7421328  12.6153778  62.2851906
  77.8243889  12.8368725  62.1273594  79.1581471  12.6900088  61.4263613
  79.5256375  14.0145193  57.4154586  80.2728194  14.5266591  57.1061708
  79.7947965  13.6929246  58.2758980  77.7983026  16.5103734  54.3981541
  76.8894245  16.2262767  54.4954010  77.8278109  16.9302813  53.5384847
  83.0302293  20.1210324  58.1672708  82.5764620  19.2801233  58.2237899
  82.3996260  20.7571722  58.5047488  81.9735213  11.0502310  59.3973376
  81.2357969  10.5379696  59.7283618  82.2261986  10.6102691  58.5856652
  81.4735232  21.9586820  59.1022526  81.7658207  22.5191877  58.3834892
  81.9833853  22.2515381  59.8575685  68.3671196  14.2309248  58.3796743
  68.1695596  13.6378609  57.6547809  67.8117860  13.9261458  59.0972682
  76.3467920  14.1232355  60.4991336  76.4016529  13.1706191  60.4233812
  75.5359122  14.2791794  60.9832634  77.4959113  18.0512478  51.7369619
  77.0578543  17.3348337  51.2775256  78.2369554  18.2788593  51.1754711
  74.2860280  12.7409414  58.2581715  73.4728145  13.0403585  58.6646907
  74.7819274  12.3465103  58.9756197  76.4368858  22.7367171  60.1915979
  76.3945036  22.9628018  59.2624511  77.3531556  22.5030546  60.3401781
  79.8834491  13.2051239  67.0896609  80.2383879  13.4322712  67.9491074
  80.5306623  13.5369616  66.4673864  85.6132228  16.3269675  57.7945938
  85.4750127  16.5171271  56.8667127  85.2568447  17.0889058  58.2513989
  73.7774354  10.3127770  63.8742950  74.4173734  10.1716529  63.1765913
  72.9451885  10.0262283  63.4981552  85.6401608  18.3946202  62.8057209
  86.0738115  18.3021491  63.6540263  86.3533189  18.3703702  62.1677225
  74.5534658  19.6130200  59.9877942  75.3475257  19.1180520  59.7860517
  73.8426351  19.0848063  59.6245648  79.3729503  21.9948296  64.3390310
  79.4266525  22.5639232  65.1068026  78.5044284  22.1650181  63.9744347
  70.8617422  13.7573282  56.0637695  69.9315010  13.6957738  56.2807657
  70.9574894  13.2349235  55.2674336  70.7802971  10.2828095  58.6515937
  71.0409788  11.1973428  58.5425097  71.6020143   9.8152537  58.8012549
  72.2527896  11.6965852  65.8214761  72.9250950  11.4883214  65.1727410
  71.4257683  11.4987938  65.3819993  86.5017157  18.4369902  65.3390095
  86.6953048  19.3415713  65.5849370  86.4017776  17.9777322  66.1728680
  78.1553468   8.3227793  67.8380422  77.5081383   9.0217743  67.7444898
  78.9254484   8.7563937  68.2056670  81.5632266  18.5876645  70.9130975
  81.4117773  18.3587197  69.9961059  81.5536946  19.5447247  70.9262320
  78.3317603  16.1608558  65.8977242  79.2609663  16.3119718  65.7246209
  77.9108633  16.2492579  65.0425888  77.1305934  20.1859222  63.6675779
  76.9917020  19.8178007  64.5401717  76.3420531  20.7006862  63.4959737
  78.6811149  19.5640825  61.0564617  78.3460982  19.5241595  61.9522267
  78.1815095  18.8985541  60.5835027  72.6555393  14.9708455  66.5817198
  72.5175191  14.2388694  67.1828737  73.5660317  14.8817355  66.3001386
  81.6170341  16.9096859  51.3301677  80.9999512  16.1843688  51.2334729
  81.1486830  17.6706220  50.9868751  75.2837694  14.6828414  66.0700878
  75.9937313  14.0421607  66.0287496  75.2407002  14.9341309  66.9927059
  83.2724473  21.6195768  68.9907457  83.2137019  20.9354988  68.3238040
  83.6743991  22.3614758  68.5388083  73.9966628  11.6693632  67.8896517
  73.4603985  11.2184371  68.5418114  73.4083336  11.8039541  67.1466982
  73.4068887  11.1282284  50.4522981  72.5298353  11.0071084  50.0885228
  73.8826640  10.3368362  50.2001870  83.2741880  19.5835352  67.2221437
  82.3868659  19.2461273  67.3447836  83.8440431  18.8518383  67.4590202
  64.9271027  15.9159443  60.5464488  65.6142067  15.6021173  59.9585503
  64.7719156  16.8200808  60.2731740  69.7305749  10.8049640  64.9749512
  69.6463938  10.1975310  64.2399922  68.9088456  11.2958658  64.9759008
  76.8043033  24.2436804  64.1882680  76.7313205  25.0491776  64.7001985
  76.3620427  24.4428770  63.3630701  76.5932813  23.4808574  57.6985501
  75.8100335  24.0230254  57.7923726  77.2925558  23.9982554  58.0979743
  79.9029463   9.2903204  60.3419707  80.3998163   8.5373166  60.0220777
  79.1316445   9.3267520  59.7762916  87.7559221  14.9943569  61.9837998
  87.7449097  15.8768284  61.6131931  86.8876600  14.6415120  61.7892535
  79.2641717  24.1423638  66.3440839  79.9769689  24.7771103  66.2716740
  78.7731746  24.2387504  65.5280840  80.9859244  18.0474891  57.9158130
  80.0515523  18.1676353  57.7462835  81.1635912  17.1447357  57.6518140
  76.4864432  11.4320586  60.0691391  76.1162219  10.8791627  60.7572297
  76.9823524  10.8278720  59.5166392  84.3731795  13.8892210  58.4508164
  84.8392247  14.7220202  58.3768467  84.8239296  13.4237192  59.1553423
  74.3153630  21.8918082  67.1646409  75.0163090  22.5254564  67.3175804
  73.8448745  22.2332813  66.4042049  82.4408026  20.2336031  55.4494316
  82.7167870  20.1192626  56.3588191  81.5712525  19.8353516  55.4106490
  82.3448458   6.2572797  62.4899066  81.4311538   6.4877024  62.6581273
  82.7741559   6.3411241  63.3413098  82.1154916  14.4462689  64.9898960
  81.4626367  14.6938596  64.3351413  82.4935296  13.6326827  64.6561437
  79.0762090  24.4822382  59.0927130  79.2584485  23.6644038  59.5554882
  79.8995076  24.6990074  58.6552020  79.4104256  23.4090567  56.3542179
  79.9392022  22.8983022  55.7412341  79.6732475  23.0933097  57.2187712
  78.1642489  15.1882500  71.4764997  77.4883126  15.0876629  72.1467372
  78.9870123  15.0321714  71.9400994  69.9121349  21.4254437  64.0977512
  70.4974785  20.6798124  64.2305416  69.7146187  21.7358393  64.9814176
  64.5039003  13.9960037  62.8181955  64.5423103  13.4623627  63.6119073
  63.9979296  13.4695242  62.1992932  76.9065272  26.4949427  65.7122613
  77.4583580  26.6581049  66.4771698  77.2471466  27.0853865  65.0402638
  71.8829766   8.8424577  66.3144498  71.9471092   9.7039408  65.9021895
  71.8196886   8.2298579  65.5816856  71.3582038  10.9147710  69.9617532
  71.9854077  10.5324787  70.5755056  70.5009957  10.6961912  70.3273224
  81.7576147  21.3210685  71.5671267  82.3016051  21.9340643  71.0726222
  81.1762992  21.8790263  72.0838280  68.1347581  12.7224139  55.8935887
  68.4301022  11.8134817  55.8402940  67.2335617  12.7011878  55.5716889
  80.0433660  24.4431403  62.6986295  79.9184799  23.6421143  62.1897241
  80.7012751  24.9377596  62.2100265  71.6641828  10.7980135  61.8763435
  70.9428414  11.4116103  61.7370909  72.4535084  11.3337900  61.7980081
  82.1068568  22.2440423  64.3265845  81.1598904  22.1245774  64.2544172
  82.4551341  21.3562921  64.4092107  74.4668141   8.1334562  68.1504087
  74.9902543   8.3796859  68.9130396  74.2480475   8.9654597  67.7307224
  69.8635422  10.4038237  56.0175212  69.5348129   9.5235616  55.8350318
  70.2174793  10.3485905  56.9051601  79.1115001  22.0393139  60.5270197
  78.9639964  21.1109847  60.7077767  79.9368495  22.0613230  60.0427273
  72.9777246  10.6911206  56.3850689  73.3173318  11.2197128  55.6629298
  73.4249366  11.0291613  57.1609256  82.7149123  22.8621698  61.6135070
  83.6395671  22.6564559  61.4759521  82.5464427  22.6138099  62.5224412
  75.6720686   9.0748257  65.8353758  75.3317507   8.2756070  66.2374437
  74.9659693   9.3749968  65.2630591  76.3237158   6.1597570  64.2881081
  77.1463228   5.6858048  64.1659971  76.5675222   6.9388053  64.7879767
  74.9645393   9.1885828  54.5843982  75.6853755   9.5667081  54.0807699
  74.3410697   9.9074705  54.6878960  79.1076516   9.8930977  55.5202315
  79.3240130  10.7755615  55.2191143  78.6270583   9.5017190  54.7907957
  73.8475737  12.8516690  62.0973059  73.7020318  13.1656993  62.9897341
  73.3700941  13.4701590  61.5443958  75.7072120   9.8419238  62.1453949
  75.6933689   8.9460331  61.8086247  76.4244548   9.8489902  62.7792235
  77.5598251  10.2756578  64.1907076  77.3016028  11.1973649  64.1891407
  77.0283291   9.8787013  64.8807540  82.5044439  23.3807365  56.9697162
  82.6781317  22.8153788  56.2171014  82.9973331  24.1808260  56.7876651
  68.3221399  15.3922035  65.0360720  67.7774867  16.1681843  65.1680995
  69.2000749  15.7392839  64.8779842  75.1109016   8.7233618  57.4141519
  75.2324927   7.7950265  57.6132406  74.8211058   8.7372304  56.5019834
  77.9800206   6.4088529  60.5508239  78.0021903   6.4727862  59.5960218
  78.3968265   5.5693038  60.7448745  88.3583831  16.1443788  58.5887461
  88.8014977  15.3951114  58.1906585  87.4810341  16.1353925  58.2061193
  69.1087421  14.5191931  67.9290877  68.3669157  14.6674566  68.5155508
  68.7880165  14.7800196  67.0657627  85.3911035  20.1473835  55.5981391
  85.9162359  20.4861108  54.8730711  85.3033388  19.2120851  55.4144525
  77.0531084  24.0607909  67.7271267  77.3618210  23.8157056  68.5993967
  77.8506566  24.2654548  67.2390137  77.0751696  26.2145819  59.9576644
  76.6356686  25.7222197  60.6509500  77.8259813  25.6718786  59.7168719
  69.5544035  22.4057360  59.9601272  70.3802055  22.1061131  59.5799915
  69.2038087  21.6364982  60.4091061  74.5225568  21.7583828  62.0298945
  73.9005577  21.0954533  61.7301173  75.1930435  21.7844960  61.3472593
  67.7552640  20.3243686  60.9190205  66.9184548  19.8965860  60.7374207
  67.7276285  20.5176129  61.8560997  74.5950095  10.2365616  71.6231451
  74.6438251  11.1127739  71.2409221  75.1372610   9.6943009  71.0503095
  85.0804941  20.7806739  70.9032589  84.2900485  20.7630878  70.3637088
  84.8438296  21.3195033  71.6581625  85.2002816  17.6299205  68.2165317
  85.2500821  17.4649213  69.1580840  85.0916739  16.7626464  67.8263198
  74.0839075  20.3087751  55.5057406  74.2327195  20.9923216  54.8524079
  74.8905518  20.2892841  56.0206862  82.4906578  13.6130133  69.5324624
  83.3916441  13.4736598  69.2408622  82.5654553  13.7784588  70.4722801
  76.8249384  10.9896988  68.3777810  75.9552693  11.2830554  68.1060399
  77.0608864  11.5737433  69.0985074  86.7021013  20.0496147  68.4607339
  86.4105821  20.4126127  69.2970800  86.0893144  19.3363155  68.2820671
  87.9016695  17.6149027  60.9809909  88.7363587  18.0538831  61.1447469
  88.0375824  17.1387680  60.1618155  84.9508201  15.1728762  66.9287397
  85.4262323  15.3656408  66.1206248  84.0273767  15.2287947  66.6830780
  71.8391708  16.3352929  56.5118475  71.5937750  15.4315259  56.7098685
  72.0087622  16.3370079  55.5697953  79.5288418   7.2076605  65.8943231
  80.0470361   7.9437632  65.5689719  79.1743550   7.5140598  66.7289990
  71.1087355  12.0681286  54.0104636  70.4156600  12.1425641  53.3544672
  70.8639107  11.3041630  54.5326153  77.5834480  22.8035882  52.9769153
  77.0108447  23.4226069  52.5239625  78.1567274  23.3535243  53.5109075
  83.6509870  12.0494522  65.1615702  84.6027293  12.1492619  65.1827926
  83.4813321  11.2572790  65.6713787  81.6724250   9.1350105  65.3475103
  81.0774182   9.4155118  64.6521592  81.3873946   9.6244006  66.1191844
  86.1297948  15.2700641  64.2758002  86.0974268  14.3316642  64.4617686
  86.7398572  15.3484678  63.5423827  77.9681279  14.1396694  50.3185206
  78.9140384  14.0102902  50.3873624  77.5895524  13.4011356  50.7954634
  86.2792436  12.0611685  64.3216285  85.7631485  11.2770141  64.1346214
  87.1632385  11.7330401  64.4862805  83.9403163   5.8052700  60.2812098
  83.7427984   5.4967789  61.1655430  84.5502869   6.5314339  60.4110028
  91.9474498  16.3316648  63.4164039  92.6777886  16.0701936  63.9771742
  91.3381443  15.5945370  63.4566107  90.0289795  14.4724511  64.0138490
  89.3022958  14.3380476  63.4054981  89.6137082  14.7801339  64.8195208
  77.8519971  18.1914440  71.7785863  78.7722981  18.3693039  71.9725909
  77.8169554  17.2470486  71.6265562  76.1524196  12.0646671  50.2540091
  75.2455651  11.7679783  50.3302805  76.4300177  11.7676489  49.3874377
  67.0702136  13.3853034  60.7039138  66.7504921  12.5318342  60.4113512
  66.5235565  13.6001612  61.4597105  70.8482044  16.1015475  64.4208644
  71.0668054  17.0332583  64.4396678  71.2607818  15.7423450  65.2063448
  77.7686262   6.6083560  56.4084332  76.9586990   6.2630645  56.7839579
  78.4570679   6.2991104  56.9971944  79.6976810   5.6861607  58.0308629
  80.2507849   6.1057061  58.6898652  79.9346896   4.7597355  58.0731585
  75.7209909  11.6748681  73.8111393  75.6206636  12.6243038  73.7423484
  75.5031451  11.3466920  72.9387463  74.9222981   8.9233606  50.3952070
  75.7842145   9.2488504  50.6547888  75.1073325   8.1365102  49.8825136
  66.9390396  17.0055946  62.6732259  66.2453868  16.5909898  62.1602214
  67.6863387  17.0476482  62.0765678  83.0755617   7.7962132  57.5387293
  82.4954286   8.4546936  57.1565346  82.8091550   6.9739477  57.1274711
  81.5259183   7.1967190  59.7408614  82.0258962   7.3083725  58.9322933
  82.1694791   6.8928243  60.3809422  75.5841179  15.1045820  72.6276455
  75.1008261  15.9046180  72.8340344  75.6702118  15.1153765  71.6743899
  68.8527139  16.9374199  60.5498274  68.8297827  17.0361887  59.5980157
  69.1627775  17.7839350  60.8715440  71.5114517  18.9950354  64.6644888
  72.4657770  18.9634297  64.5974820  71.3127040  18.5340978  65.4795114
  72.1013899  17.5651470  67.2315686  72.9206788  18.0595549  67.2550523
  72.3750707  16.6483439  67.2033254  81.8580495   9.9562223  56.5943642
  80.9706350  10.2411873  56.3763836  82.2734484   9.7955986  55.7470918
  85.2095031   9.9808744  60.3097981  85.9855421  10.4705196  60.5822598
  84.4843165  10.4066798  60.7669850  87.6467590  10.6936363  61.3671921
  88.2412081  10.4532099  60.6565230  87.7194174   9.9743494  61.9945458
  69.8664746  24.5369974  61.6815086  69.7319213  23.7770375  61.1153084
  69.4496808  25.2610874  61.2143875  81.0023709  19.7206897  50.6891662
  81.7059559  19.9256900  51.3049317  80.2786357  20.2883659  50.9540745
  81.8321519  15.4716759  56.8093932  81.7756720  15.9285310  55.9701564
  82.3849861  14.7107443  56.6316775  85.6426325  11.2606491  57.6344051
  85.3863259  10.8603126  58.4652259  85.0179193  11.9750285  57.5094190
  89.9538663  14.0002564  60.1415343  89.3938221  14.0695753  60.9146905
  89.3482166  13.8243548  59.4214839  82.9110406  20.1589427  52.7390122
  83.7456010  19.7270625  52.5567596  82.7494749  19.9871440  53.6667016
  82.5656298  16.6621540  54.1046461  82.5105102  16.4965811  53.1634905
  81.9402353  17.3697573  54.2608651  67.3548813  11.8989604  67.9307883
  68.0007677  11.3888558  68.4195108  67.1465964  12.6358286  68.5051308
  79.8802205  18.9670452  73.4300024  80.7493365  19.1411104  73.0686659
  79.4008957  19.7864869  73.3075753  75.8752424   6.1629649  53.6831779
  75.8631093   7.1071489  53.8400050  76.7675845   5.9799794  53.3891241
  71.6946304   9.0457221  72.0282897  72.5577766   8.6894026  72.2386222
  71.1211715   8.7071116  72.7158302  91.5394681  30.6759078  62.8345298
  92.1773091  30.5565825  62.1308638  91.4215524  31.6239922  62.8933251
  88.8304170  31.7821358  68.7293029  88.8192811  31.3874156  67.8573532
  88.9924810  31.0487430  69.3226800  85.5511431  34.5658469  67.6772213
  85.2601297  35.4704100  67.5618879  86.1868416  34.6074997  68.3916282
  91.0935950  28.4010532  59.9098506  91.8799039  27.9829955  59.5588923
  91.3574654  29.3056624  60.0780155  96.4944377  28.3385765  60.8131485
  97.2269549  27.7684982  61.0469314  95.7383732  27.9507365  61.2537991
  94.0169797  22.0507339  65.2726094  93.6853122  22.9202750  65.0487309
  93.4215410  21.7343623  65.9520124  87.7525983  25.7902906  53.0056176
  87.9200386  26.6583142  53.3726647  87.5623152  25.9530188  52.0817465
  90.5101317  34.2519885  64.6722006  90.2102040  35.1544924  64.5637813
  90.1652376  33.9852068  65.5243159  93.9098460  26.7702425  62.3519444
  93.0015338  26.7017834  62.0578205  93.8586056  27.2474370  63.1801269
  87.9839326  28.1892071  70.2954341  87.2072660  28.7485991  70.2857205
  88.6229889  28.6748854  70.8169211  95.7760107  24.9718863  64.1297318
  95.1334487  25.2651397  63.4837112  95.2715035  24.8571784  64.9350514
  93.4300270  28.7182037  54.8183177  94.3418126  28.9509423  54.6430874
  92.9209917  29.3019081  54.2558255  86.2385698  30.9977524  69.8572308
  86.9800383  31.5362568  69.5807131  85.5322684  31.6243813  70.0143860
  91.7141038  33.1406665  68.4544469  92.1224394  32.6989075  67.7099102
  90.9918300  32.5659292  68.7078662  88.0672108  28.0779271  65.8278026
  88.9133303  28.5018685  65.9712675  88.0070746  27.4212896  66.5216589
  92.0369853  33.7007855  62.2096758  91.4078715  33.8653569  61.5072826
  91.6495515  34.1149465  62.9807722  95.9159085  34.6362293  59.5641122
  95.2310123  35.0161194  59.0138155  96.0002934  35.2457620  60.2973070
  91.2171553  25.7383640  67.4859200  90.9732485  26.4925700  66.9493476
  91.4931484  26.1168987  68.3206447  93.1710016  32.2822252  66.1636466
  93.3826911  32.9254012  65.4870847  93.1239764  31.4484569  65.6958396
  90.7736245  24.8940073  63.0673038  89.9120724  25.1921326  63.3589775
  90.7998680  25.1110472  62.1354070  84.9747062  28.1517172  70.6587618
  84.3445723  28.8333453  70.8923015  84.8683150  28.0400254  69.7140756
  94.2855844  35.1594207  64.3358823  95.1073288  34.7574395  64.0541504
  94.2818247  35.0562442  65.2874939  88.0512448  34.7078251  66.4919533
  88.1156880  35.1698658  67.3277705  87.3423371  34.0775616  66.6201843
  78.5529738  28.0719459  64.0168533  78.8037776  28.9566469  64.2826109
  79.0889286  27.8924060  63.2443625 102.3761837  31.5032956  60.6843794
 101.6225546  30.9340354  60.5287799 102.5109378  31.4695620  61.6314429
  84.2527805  22.4537938  73.0212869  83.8594750  21.9004137  73.6960513
  85.0693945  22.7648517  73.4119386  87.1695766  23.8695817  70.6133125
  87.9105479  24.4702970  70.5337588  87.4013689  23.1273455  70.0551168
  82.3137104  29.0552184  68.8911355  82.1990619  28.1537442  69.1918454
  81.4581622  29.3015881  68.5396172  89.3928942  36.9969925  70.4898856
  88.9492796  36.2106303  70.1719760  90.0546155  37.1849075  69.8242747
  91.4910180  37.2772725  68.5180257  91.4728655  38.0981606  68.0260526
  92.4130100  37.1526800  68.7430398  87.9483234  34.7916854  69.3603765
  88.4811571  34.0305142  69.1303073  87.4197315  34.4990506  70.1027920
  91.1152929  19.8976920  64.8897407  90.7717198  20.7878562  64.8136518
  91.4831891  19.7078578  64.0266992  91.0803212  29.8885531  53.3969842
  90.5649835  30.6590136  53.6358230  90.8080520  29.2150667  54.0202904
  88.6650323  24.7335232  58.4555081  87.8091919  24.3442082  58.2760719
  89.0777274  24.8127193  57.5954866  90.1949469  22.2681575  62.8546640
  89.6914265  22.2311710  62.0414446  90.4880076  23.1774318  62.9143297
  86.4392355  22.3520305  61.8612822  87.3045352  22.1563114  61.5018712
  86.5069864  22.1230657  62.7882179  96.0537486  32.6417886  55.3323016
  95.2766928  32.3029045  54.8878178  96.7328967  32.6470509  54.6577981
  90.8689515  27.7612623  55.2229623  90.5639650  28.0758772  56.0739767
  91.8219957  27.8394043  55.2656956  94.2928793  32.1151867  61.9889624
  93.6352467  32.8051128  62.0769752  95.0969192  32.5048299  62.3323610
  84.0454674  24.5822513  59.2329189  84.6198426  24.3597694  58.5002382
  84.6325657  24.6511207  59.9857790  93.1034251  30.4696240  60.0393565
  93.6166133  31.1026232  60.5415275  93.7535475  29.8697435  59.6736925
  86.3477342  21.4563762  57.9604258  85.6941754  21.1412779  57.3360873
  86.3057816  20.8339502  58.6864081  90.3650130  29.3437111  57.4154586
  91.1121949  29.8558508  57.1061708  90.6341720  29.0221164  58.2758980
  93.8696048  35.4502241  58.1672708  93.4158375  34.6093151  58.2237899
  93.2390014  36.0863640  58.5047488  92.8128967  26.3794227  59.3973376
  92.0751724  25.8671613  59.7283618  93.0655741  25.9394609  58.5856652
  92.3128987  37.2878738  59.1022526  92.6051961  37.8483795  58.3834892
  92.8227607  37.5807299  59.8575685  92.9140594  19.1570479  59.9915145
  93.2199471  18.2967843  59.7041060  93.6393199  19.7488099  59.7914139
  90.7228246  28.5343157  67.0896609  91.0777634  28.7614630  67.9491074
  91.3700377  28.8661533  66.4673864  96.4525983  31.6561592  57.7945938
  96.3143881  31.8463188  56.8667127  96.0962202  32.4180975  58.2513989
  84.6168109  25.6419688  63.8742950  85.2567488  25.5008447  63.1765913
  83.7845639  25.3554201  63.4981552  96.4795362  33.7238119  62.8057209
  96.9131869  33.6313409  63.6540263  97.1926943  33.6995620  62.1677225
  81.6196725  25.6120013  58.6515937  81.8803543  26.5265346  58.5425097
  82.4413898  25.1444455  58.8012549  83.0921651  27.0257770  65.8214761
  83.7644704  26.8175132  65.1727410  82.2651437  26.8279856  65.3819993
  97.3410912  33.7661820  65.3390095  97.5346802  34.6707631  65.5849370
  97.2411530  33.3069239  66.1728680  88.9947223  23.6519711  67.8380422
  88.3475138  24.3509660  67.7444898  89.7648238  24.0855855  68.2056670
  92.4026021  33.9168563  70.9130975  92.2511527  33.6879115  69.9961059
  92.3930700  34.8739164  70.9262320  89.1711357  31.4900476  65.8977242
  90.1003417  31.6411635  65.7246209  88.7502387  31.5784496  65.0425888
  83.4949148  30.3000373  66.5817198  83.3568946  29.5680612  67.1828737
  84.4054071  30.2109273  66.3001386  94.1118227  36.9487685  68.9907457
  94.0530773  36.2646906  68.3238040  94.5137746  37.6906675  68.5388083
  84.8360383  26.9985550  67.8896517  84.2997740  26.5476288  68.5418114
  84.2477091  27.1331459  67.1466982  94.1135635  34.9127269  67.2221437
  93.2262413  34.5753191  67.3447836  94.6834186  34.1810301  67.4590202
  80.5699504  26.1341558  64.9749512  80.4857693  25.5267227  64.2399922
  79.7482210  26.6250576  64.9759008  90.7423218  24.6195121  60.3419707
  91.2391917  23.8665084  60.0220777  89.9710199  24.6559438  59.7762916
  98.5952975  30.3235487  61.9837998  98.5842851  31.2060202  61.6131931
  97.7270354  29.9707038  61.7892535  91.8252998  33.3766808  57.9158130
  90.8909277  33.4968271  57.7462835  92.0029667  32.4739275  57.6518140
  95.2125550  29.2184128  58.4508164  95.6786002  30.0512119  58.3768467
  95.6633050  28.7529109  59.1553423  93.1842212  21.5864715  62.4899066
  92.2705292  21.8168942  62.6581273  93.6135314  21.6703159  63.3413098
  92.9548671  29.7754607  64.9898960  92.3020121  30.0230514  64.3351413
  93.3329051  28.9618745  64.6561437  89.9155845  39.8114300  59.0927130
  90.0978239  38.9935956  59.5554882  90.7388831  40.0281992  58.6552020
  89.0036244  30.5174418  71.4764997  88.3276881  30.4168547  72.1467372
  89.8263878  30.3613631  71.9400994  82.7223520  24.1716495  66.3144498
  82.7864847  25.0331326  65.9021895  82.6590640  23.5590497  65.5816856
  82.1975793  26.2439627  69.9617532  82.8247831  25.8616705  70.5755056
  81.3403711  26.0253829  70.3273224  92.5969901  36.6502603  71.5671267
  93.1409805  37.2632561  71.0726222  92.0156746  37.2082181  72.0838280
  82.5035582  26.1272053  61.8763435  81.7822168  26.7408021  61.7370909
  83.2928838  26.6629818  61.7980081  92.9462322  37.5732341  64.3265845
  91.9992658  37.4537692  64.2544172  93.2945096  36.6854839  64.4092107
  85.3061896  23.4626480  68.1504087  85.8296298  23.7088776  68.9130396
  85.0874229  24.2946514  67.7307224  80.7029177  25.7330154  56.0175212
  80.3741883  24.8527533  55.8350318  81.0568548  25.6777823  56.9051601
  83.8171000  26.0203124  56.3850689  84.1567073  26.5489045  55.6629298
  84.2643121  26.3583530  57.1609256  93.5542878  38.1913616  61.6135070
  94.4789425  37.9856477  61.4759521  93.3858181  37.9430017  62.5224412
  86.5114441  24.4040175  65.8353758  86.1711261  23.6047988  66.2374437
  85.8053447  24.7041886  65.2630591  87.1630913  21.4889487  64.2881081
  87.9856982  21.0149965  64.1659971  87.4068976  22.2679971  64.7879767
  85.8039147  24.5177746  54.5843982  86.5247510  24.8958998  54.0807699
  85.1804451  25.2366622  54.6878960  89.9470270  25.2222895  55.5202315
  90.1633884  26.1047532  55.2191143  89.4664337  24.8309108  54.7907957
  86.5465874  25.1711156  62.1453949  86.5327443  24.2752249  61.8086247
  87.2638302  25.1781820  62.7792235  88.3992005  25.6048496  64.1907076
  88.1409783  26.5265567  64.1891407  87.8677045  25.2078931  64.8807540
  85.9502770  24.0525536  57.4141519  86.0718681  23.1242182  57.6132406
  85.6604813  24.0664222  56.5019834  88.8193961  21.7380447  60.5508239
  88.8415658  21.8019780  59.5960218  89.2362020  20.8984955  60.7448745
  99.1977585  31.4735706  58.5887461  99.6408731  30.7243031  58.1906585
  98.3204095  31.4645842  58.2061193  79.9481176  29.8483849  67.9290877
  79.2062912  29.9966484  68.5155508  79.6273920  30.1092114  67.0657627
  96.2304789  35.4765753  55.5981391  96.7556114  35.8153026  54.8730711
  96.1427142  34.5412768  55.4144525  87.8924838  39.3899827  67.7271267
  88.2011965  39.1448974  68.5993967  88.6900320  39.5946465  67.2390137
  85.4343850  25.5657533  71.6231451  85.4832005  26.4419656  71.2409221
  85.9766364  25.0234927  71.0503095  95.9198696  36.1098657  70.9032589
  95.1294239  36.0922796  70.3637088  95.6832050  36.6486950  71.6581625
  96.0396571  32.9591123  68.2165317  96.0894575  32.7941131  69.1580840
  95.9310494  32.0918382  67.8263198  93.3300333  28.9422051  69.5324624
  94.2310196  28.8028516  69.2408622  93.4048307  29.1076506  70.4722801
  87.6643138  26.3188906  68.3777810  86.7946448  26.6122472  68.1060399
  87.9002619  26.9029351  69.0985074  97.5414767  35.3788065  68.4607339
  97.2499576  35.7418045  69.2970800  96.9286899  34.6655073  68.2820671
  98.7410450  32.9440944  60.9809909  99.5757341  33.3830748  61.1447469
  98.8769579  32.4679598  60.1618155  95.7901956  30.5020679  66.9287397
  96.2656077  30.6948326  66.1206248  94.8667521  30.5579865  66.6830780
  90.3682172  22.5368523  65.8943231  90.8864116  23.2729550  65.5689719
  90.0137305  22.8432516  66.7289990  90.6194766  18.9568805  61.4144127
  90.8996520  18.2891994  62.0404554  91.4045373  19.1497901  60.9018791
  94.4903625  27.3786439  65.1615702  95.4421048  27.4784537  65.1827926
  94.3207075  26.5864708  65.6713787  92.5118004  24.4642023  65.3475103
  91.9167936  24.7447035  64.6521592  92.2267701  24.9535923  66.1191844
  96.9691702  30.5992559  64.2758002  96.9368023  29.6608560  64.4617686
  97.5792326  30.6776596  63.5423827  97.1186191  27.3903602  64.3216285
  96.6025240  26.6062059  64.1346214  98.0026139  27.0622319  64.4862805
  94.7796918  21.1344618  60.2812098  94.5821739  20.8259706  61.1655430
  95.3896623  21.8606257  60.4110028 102.7868252  31.6608566  63.4164039
 103.5171641  31.3993854  63.9771742 102.1775198  30.9237288  63.4566107
 100.8683549  29.8016428  64.0138490 100.1416713  29.6672393  63.4054981
 100.4530836  30.1093257  64.8195208  88.6913726  33.5206358  71.7785863
  89.6116735  33.6984957  71.9725909  88.6563309  32.5762403  71.6265562
  88.6080016  21.9375478  56.4084332  87.7980744  21.5922563  56.7839579
  89.2964433  21.6283022  56.9971944  90.5370564  21.0153525  58.0308629
  91.0901603  21.4348978  58.6898652  90.7740651  20.0889273  58.0731585
  86.5603664  27.0040599  73.8111393  86.4600391  27.9534956  73.7423484
  86.3425206  26.6758837  72.9387463  93.9149372  23.1254050  57.5387293
  93.3348041  23.7838854  57.1565346  93.6485304  22.3031395  57.1274711
  92.3652938  22.5259108  59.7408614  92.8652716  22.6375642  58.9322933
  93.0088546  22.2220161  60.3809422  86.4234934  30.4337737  72.6276455
  85.9402015  31.2338098  72.8340344  86.5095873  30.4445682  71.6743899
  92.6974250  25.2854140  56.5943642  91.8100105  25.5703791  56.3763836
  93.1128239  25.1247904  55.7470918  96.0488786  25.3100661  60.3097981
  96.8249176  25.7997114  60.5822598  95.3236920  25.7358716  60.7669850
  98.4861344  26.0228281  61.3671921  99.0805835  25.7824017  60.6565230
  98.5587928  25.3035411  61.9945458  92.6715273  30.8008676  56.8093932
  92.6150475  31.2577228  55.9701564  93.2243616  30.0399361  56.6316775
  96.4820079  26.5898408  57.6344051  96.2257013  26.1895044  58.4652259
  95.8572947  27.3042202  57.5094190 100.7932417  29.3294481  60.1415343
 100.2331975  29.3987671  60.9146905 100.1875920  29.1535466  59.4214839
  78.1942568  27.2281522  67.9307883  78.8401431  26.7180476  68.4195108
  77.9859719  27.9650204  68.5051308  90.7195960  34.2962369  73.4300024
  91.5887119  34.4703022  73.0686659  90.2402711  35.1156786  73.3075753
  86.7146178  21.4921567  53.6831779  86.7024848  22.4363407  53.8400050
  87.6069600  21.3091712  53.3891241  90.5298298  18.0864343  57.9377716
  89.7630693  17.5322830  58.0834398  90.9409002  18.1586212  58.7991868
  82.5340059  24.3749139  72.0282897  83.3971520  24.0185944  72.2386222
  81.9605469  24.0363034  72.7158302 102.3788436  46.0050995  62.8345298
 103.0166845  45.8857743  62.1308638 102.2609278  46.9531839  62.8933251
  99.1878142  45.9578424  62.7706823  98.8496653  45.8419488  61.8827358
 100.0567910  45.5569589  62.7507829  99.6697925  47.1113275  68.7293029
  99.6586566  46.7166074  67.8573532  99.8318564  46.3779348  69.3226800
 100.6264516  51.4784868  54.0718179  99.9752496  52.0638948  53.6852193
 101.4208879  52.0091063  54.1313216  96.3905186  49.8950387  67.6772213
  96.0995052  50.7996018  67.5618879  97.0262170  49.9366915  68.3916282
  97.3161393  47.2727236  64.2673572  97.9124965  47.0483258  63.5530535
  97.3736364  46.5311981  64.8699020  96.8886421  44.7266671  52.1023763
  97.1411942  44.2048192  51.3407226  95.9510980  44.5632816  52.2050447
 101.9329704  43.7302449  59.9098506 102.7192793  43.3121872  59.5588923
 102.1968408  44.6348541  60.0780155 102.1039781  49.1675300  54.6087163
 101.4685614  49.2409926  55.3208068 101.7737188  49.7568898  53.9306242
 107.3338131  43.6677682  60.8131485 108.0663303  43.0976899  61.0469314
 106.5777487  43.2799283  61.2537991  96.6082710  46.6294777  54.3048138
  96.4918968  45.9539680  54.9729222  96.7184970  46.1427151  53.4880291
  98.9514251  46.0904924  58.0094827  98.5872458  45.5635545  58.7207749
  99.8081367  45.7003393  57.8361313 104.8563551  37.3799257  65.2726094
 104.5246876  38.2494668  65.0487309 104.2609165  37.0635541  65.9520124
  98.5919738  41.1194824  53.0056176  98.7594140  41.9875060  53.3726647
  98.4016907  41.2822105  52.0817465 101.3495071  49.5811803  64.6722006
 101.0495794  50.4836841  64.5637813 101.0046131  49.3143986  65.5243159
  94.8007552  46.0325599  60.7058711  93.8758049  45.9001814  60.9136402
  95.0491966  46.8119819  61.2028653 104.7492215  42.0994343  62.3519444
 103.8409092  42.0309751  62.0578205 104.6979811  42.5766288  63.1801269
  98.5708959  43.5752481  53.9902843  98.4508584  44.0209532  54.8288323
  97.8761547  43.9237799  53.4316381  92.1616364  45.6758873  61.5402500
  92.2908745  45.9293352  62.4541911  91.4813815  46.2686581  61.2207155
  98.8233081  43.5183988  70.2954341  98.0466415  44.0777908  70.2857205
  99.4623644  44.0040771  70.8169211 106.6153861  40.3010781  64.1297318
 105.9728241  40.5943314  63.4837112 106.1108790  40.1863701  64.9350514
 104.2694025  44.0473954  54.8183177 105.1811881  44.2801341  54.6430874
 103.7603672  44.6310999  54.2558255  97.0779453  46.3269442  69.8572308
  97.8194137  46.8654486  69.5807131  96.3716438  46.9535730  70.0143860
 102.5534793  48.4698582  68.4544469 102.9618149  48.0280993  67.7099102
 101.8312054  47.8951210  68.7078662  98.9065863  43.4071189  65.8278026
  99.7527058  43.8310603  65.9712675  98.8464500  42.7504813  66.5216589
 102.8763607  49.0299773  62.2096758 102.2472470  49.1945487  61.5072826
 102.4889269  49.4441382  62.9807722 106.7552839  49.9654211  59.5641122
 106.0703877  50.3453112  59.0138155 106.8396688  50.5749537  60.2973070
 102.0565308  41.0675557  67.4859200 101.8126240  41.8217618  66.9493476
 102.3325238  41.4460905  68.3206447 104.0103771  47.6114170  66.1636466
 104.2220666  48.2545930  65.4870847 103.9633519  46.7776486  65.6958396
 101.6130000  40.2231990  63.0673038 100.7514479  40.5213244  63.3589775
 101.6392434  40.4402389  62.1354070  98.4291569  48.7674181  59.4746843
  98.8929915  49.0461884  58.6851466  98.1648367  47.8657625  59.2919934
  97.3660455  44.8897333  56.2836408  98.0684498  45.3418377  56.7510335
  97.0341084  44.2481152  56.9116302  95.8140817  43.4809090  70.6587618
  95.1839477  44.1625371  70.8923015  95.7076905  43.3692171  69.7140756
 105.1249599  50.4886125  64.3358823 105.9467042  50.0866312  64.0541504
 105.1212001  50.3854359  65.2874939  93.0600534  43.5125465  58.5437019
  92.2631698  43.6244159  59.0620514  92.8326127  43.8512117  57.6777909
  98.8906202  50.0370168  66.4919533  98.9550635  50.4990576  67.3277705
  98.1817126  49.4067533  66.6201843 113.2155592  46.8324874  60.6843794
 112.4619300  46.2632272  60.5287799 113.3503133  46.7987538  61.6314429
  98.6054220  51.7038276  56.3598514  98.4699895  52.5489812  56.7883361
  99.1464032  51.9057554  55.5964447  95.0921559  37.7829856  73.0212869
  94.6988505  37.2296054  73.6960513  95.9087700  38.0940434  73.4119386
  98.0089520  39.1987735  70.6133125  98.7499234  39.7994888  70.5337588
  98.2407443  38.4565373  70.0551168  93.1530858  44.3844102  68.8911355
  93.0384373  43.4829359  69.1918454  92.2975376  44.6307799  68.5396172
 100.2322696  52.3261842  70.4898856  99.7886550  51.5398221  70.1719760
 100.8939910  52.5140993  69.8242747  94.9909817  53.8557644  65.0159534
  95.5417242  53.7274707  64.2436528  94.1521293  54.1552533  64.6654427
 102.3303934  52.6064642  68.5180257 102.3122410  53.4273523  68.0260526
 103.2523854  52.4818718  68.7430398  98.7876988  50.1208772  69.3603765
  99.3205325  49.3597060  69.1303073  98.2591069  49.8282424  70.1027920
 101.9546683  35.2268838  64.8897407 101.6110953  36.1170479  64.8136518
 102.3225646  35.0370495  64.0266992 101.9196966  45.2177449  53.3969842
 101.4043589  45.9882054  53.6358230 101.6474274  44.5442585  54.0202904
  99.5044077  40.0627150  58.4555081  98.6485673  39.6734000  58.2760719
  99.9171029  40.1419110  57.5954866 101.0343224  37.5973493  62.8546640
 100.5308019  37.5603628  62.0414446 101.3273831  38.5066236  62.9143297
  97.2786110  37.6812223  61.8612822  98.1439106  37.4855031  61.5018712
  97.3463618  37.4522574  62.7882179 106.8931240  47.9709804  55.3323016
 106.1160683  47.6320963  54.8878178 107.5722721  47.9762427  54.6577981
 101.7083269  43.0904541  55.2229623 101.4033405  43.4050690  56.0739767
 102.6613711  43.1685961  55.2656956 100.1529701  49.2494764  56.8722577
  99.6251063  48.5147524  56.5595815  99.6517204  50.0269441  56.6262546
 105.1322547  47.4443785  61.9889624 104.4746221  48.1343046  62.0769752
 105.9362946  47.8340217  62.3323610  94.8848429  39.9114431  59.2329189
  95.4592181  39.6889612  58.5002382  95.4719411  39.9803125  59.9857790
 103.9428006  45.7988157  60.0393565 104.4559888  46.4318149  60.5415275
 104.5929230  45.1989353  59.6736925  95.2118016  41.9418892  53.2525074
  94.3755328  42.2793578  53.5734349  95.0722785  41.8067871  52.3152211
  97.1871096  36.7855679  57.9604258  96.5335509  36.4704697  57.3360873
  97.1451570  36.1631420  58.6864081  98.2982301  47.0674975  49.8757550
  97.3909363  46.8364228  50.0748699  98.7953333  46.2712594  50.0631532
 100.4208837  43.2737613  62.2851906  99.5031398  43.4952560  62.1273594
 100.8368980  43.3483923  61.4263613 101.2043884  44.6729029  57.4154586
 101.9515703  45.1850426  57.1061708 101.4735474  44.3513081  58.2758980
  99.4770535  47.1687569  54.3981541  98.5681754  46.8846602  54.4954010
  99.5065618  47.5886648  53.5384847 104.7089802  50.7794159  58.1672708
 104.2552129  49.9385069  58.2237899 104.0783769  51.4155557  58.5047488
 103.6522722  41.7086145  59.3973376 102.9145478  41.1963531  59.7283618
 103.9049495  41.2686527  58.5856652 103.1522741  52.6170656  59.1022526
 103.4445716  53.1775713  58.3834892 103.6621362  52.9099217  59.8575685
 103.7534349  34.4862397  59.9915145 104.0593226  33.6259760  59.7041060
 104.4786954  35.0780017  59.7914139  98.0255429  44.7816190  60.4991336
  98.0804038  43.8290026  60.4233812  97.2146631  44.9375629  60.9832634
  99.1746622  48.7096313  51.7369619  98.7366052  47.9932172  51.2775256
  99.9157063  48.9372428  51.1754711  95.9647789  43.3993250  58.2581715
  95.1515654  43.6987420  58.6646907  96.4606783  43.0048939  58.9756197
 101.5622000  43.8635074  67.0896609 101.9171388  44.0906547  67.9491074
 102.2094132  44.1953451  66.4673864 107.2919737  46.9853510  57.7945938
 107.1537636  47.1755106  56.8667127 106.9355956  47.7472893  58.2513989
  95.4561863  40.9711605  63.8742950  96.0961243  40.8300364  63.1765913
  94.6239394  40.6846119  63.4981552 107.3189117  49.0530037  62.8057209
 107.7525624  48.9605326  63.6540263 108.0320698  49.0287538  62.1677225
 101.0517012  52.6532131  64.3390310 101.1054034  53.2223068  65.1068026
 100.1831793  52.8234016  63.9744347  92.5404931  44.4157117  56.0637695
  91.6102519  44.3541573  56.2807657  92.6362403  43.8933070  55.2674336
  92.4590480  40.9411930  58.6515937  92.7197297  41.8557264  58.5425097
  93.2807652  40.4736373  58.8012549  93.9315405  42.3549687  65.8214761
  94.6038459  42.1467050  65.1727410  93.1045192  42.1571773  65.3819993
 108.1804666  49.0953738  65.3390095 108.3740556  49.9999548  65.5849370
 108.0805285  48.6361157  66.1728680  99.8340977  38.9811628  67.8380422
  99.1868892  39.6801578  67.7444898 100.6041993  39.4147772  68.2056670
 103.2419775  49.2460481  70.9130975 103.0905281  49.0171032  69.9961059
 103.2324455  50.2031082  70.9262320 100.0105111  46.8192393  65.8977242
 100.9397171  46.9703553  65.7246209  99.5896142  46.9076414  65.0425888
  98.8093443  50.8443058  63.6675779  98.6704529  50.4761842  64.5401717
  98.0208040  51.3590697  63.4959737  99.4041595  55.9452154  55.0101316
  99.5793351  55.4740197  55.8246938  98.7174383  56.5717920  55.2382577
 100.3598658  50.2224660  61.0564617 100.0248491  50.1825430  61.9522267
  99.8602604  49.5569376  60.5835027  94.3342902  45.6292290  66.5817198
  94.1962700  44.8972529  67.1828737  95.2447826  45.5401191  66.3001386
 103.2957850  47.5680695  51.3301677 102.6787021  46.8427523  51.2334729
 102.8274339  48.3290055  50.9868751  96.9625203  45.3412250  66.0700878
  97.6724822  44.7005442  66.0287496  96.9194511  45.5925145  66.9927059
 104.9511982  52.2779603  68.9907457 104.8924528  51.5938823  68.3238040
 105.3531500  53.0198593  68.5388083  95.6754137  42.3277468  67.8896517
  95.1391494  41.8768206  68.5418114  95.0870845  42.4623376  67.1466982
  95.0856396  41.7866119  50.4522981  94.2085862  41.6654920  50.0885228
  95.5614149  40.9952197  50.2001870 104.9529389  50.2419187  67.2221437
 104.0656168  49.9045109  67.3447836 105.5227940  49.5102218  67.4590202
  98.4830542  54.9020639  64.1882680  98.4100714  55.7075611  64.7001985
  98.0407935  55.1012605  63.3630701 101.5816972  39.9487039  60.3419707
 102.0785672  39.1957001  60.0220777 100.8103954  39.9851356  59.7762916
 109.4346730  45.6527404  61.9837998 109.4236606  46.5352120  61.6131931
 108.5664109  45.2998955  61.7892535 100.9429226  54.8007473  66.3440839
 101.6557198  55.4354938  66.2716740 100.4519255  54.8971339  65.5280840
 102.6646753  48.7058726  57.9158130 101.7303032  48.8260189  57.7462835
 102.8423421  47.8031193  57.6518140  98.1651941  42.0904422  60.0691391
  97.7949728  41.5375462  60.7572297  98.6611033  41.4862555  59.5166392
 106.0519304  44.5476045  58.4508164 106.5179756  45.3804037  58.3768467
 106.5026805  44.0821027  59.1553423  95.9941139  52.5501917  67.1646409
  96.6950599  53.1838400  67.3175804  95.5236254  52.8916648  66.4042049
 104.1195535  50.8919867  55.4494316 104.3955379  50.7776461  56.3588191
 103.2500034  50.4937352  55.4106490 104.0235967  36.9156632  62.4899066
 103.1099047  37.1460859  62.6581273 104.4529068  36.9995076  63.3413098
 103.7942425  45.1046524  64.9898960 103.1413876  45.3522432  64.3351413
 104.1722805  44.2910663  64.6561437 100.7549599  55.1406217  59.0927130
 100.9371994  54.3227873  59.5554882 101.5782585  55.3573910  58.6552020
 101.0891765  54.0674403  56.3542179 101.6179531  53.5566857  55.7412341
 101.3519984  53.7516933  57.2187712  99.8429998  45.8466335  71.4764997
  99.1670635  45.7460465  72.1467372 100.6657632  45.6905549  71.9400994
  98.5852781  57.1533263  65.7122613  99.1371089  57.3164884  66.4771698
  98.9258975  57.7437701  65.0402638  93.5617275  39.5008413  66.3144498
  93.6258601  40.3623244  65.9021895  93.4984395  38.8882414  65.5816856
  93.0369547  41.5731545  69.9617532  93.6641586  41.1908622  70.5755056
  92.1797466  41.3545747  70.3273224 103.4363656  51.9794520  71.5671267
 103.9803560  52.5924479  71.0726222 102.8550500  52.5374099  72.0838280
 101.7221169  55.1015238  62.6986295 101.5972308  54.3004978  62.1897241
 102.3800260  55.5961432  62.2100265  93.3429337  41.4563971  61.8763435
  92.6215923  42.0699939  61.7370909  94.1322593  41.9921736  61.7980081
 103.7856077  52.9024258  64.3265845 102.8386413  52.7829610  64.2544172
 104.1338850  52.0146756  64.4092107  96.1455650  38.7918397  68.1504087
  96.6690052  39.0380694  68.9130396  95.9267984  39.6238432  67.7307224
 100.7902510  52.6976975  60.5270197 100.6427473  51.7693682  60.7077767
 101.6156004  52.7197065  60.0427273  94.6564755  41.3495042  56.3850689
  94.9960827  41.8780963  55.6629298  95.1036875  41.6875448  57.1609256
 104.3936632  53.5205533  61.6135070 105.3183180  53.3148395  61.4759521
 104.2251935  53.2721935  62.5224412  97.3508195  39.7332092  65.8353758
  97.0105016  38.9339906  66.2374437  96.6447202  40.0333803  65.2630591
  98.0024667  36.8181405  64.2881081  98.8250737  36.3441883  64.1659971
  98.2462731  37.5971889  64.7879767  96.6432902  39.8469663  54.5843982
  97.3641264  40.2250916  54.0807699  96.0198206  40.5658540  54.6878960
 100.7864025  40.5514812  55.5202315 101.0027639  41.4339450  55.2191143
 100.3058092  40.1601026  54.7907957  95.5263246  43.5100526  62.0973059
  95.3807827  43.8240829  62.9897341  95.0488450  44.1285426  61.5443958
  97.3859629  40.5003074  62.1453949  97.3721198  39.6044167  61.8086247
  98.1032057  40.5073737  62.7792235  99.2385760  40.9340414  64.1907076
  98.9803537  41.8557484  64.1891407  98.7070800  40.5370848  64.8807540
 104.1831948  54.0391201  56.9697162 104.3568826  53.4737623  56.2171014
 104.6760840  54.8392096  56.7876651  96.7896525  39.3817454  57.4141519
  96.9112436  38.4534100  57.6132406  96.4998567  39.3956140  56.5019834
  99.6587715  37.0672364  60.5508239  99.6809412  37.1311697  59.5960218
 100.0755774  36.2276873  60.7448745 110.0371340  46.8027624  58.5887461
 110.4802486  46.0534949  58.1906585 109.1597850  46.7937760  58.2061193
 105.1707121  53.3557965  54.0694060 105.8658025  53.9764658  54.2881374
 105.5130271  52.5053316  54.3446438  90.7874930  45.1775766  67.9290877
  90.0456666  45.3258402  68.5155508  90.4667674  45.4384032  67.0657627
 107.0698544  50.8057671  55.5981391 107.5949868  51.1444944  54.8730711
 106.9820896  49.8704686  55.4144525  98.7318593  54.7191744  67.7271267
  99.0405719  54.4740891  68.5993967  99.5294075  54.9238383  67.2390137
  98.7539205  56.8729654  59.9576644  98.3144195  56.3806033  60.6509500
  99.5047322  56.3302622  59.7168719  96.2737604  40.8949451  71.6231451
  96.3225760  41.7711574  71.2409221  96.8160119  40.3526844  71.0503095
 106.7592450  51.4390574  70.9032589 105.9687994  51.4214713  70.3637088
 106.5225805  51.9778868  71.6581625 106.8790325  48.2883041  68.2165317
 106.9288330  48.1233048  69.1580840 106.7704248  47.4210300  67.8263198
 104.1694087  44.2713969  69.5324624 105.0703950  44.1320434  69.2408622
 104.2442062  44.4368424  70.4722801  98.5036893  41.6480824  68.3777810
  97.6340202  41.9414390  68.1060399  98.7396373  42.2321269  69.0985074
 108.3808522  50.7079982  68.4607339 108.0893330  51.0709963  69.2970800
 107.7680653  49.9946991  68.2820671 109.5804204  48.2732862  60.9809909
 110.4151096  48.7122666  61.1447469 109.7163333  47.7971515  60.1618155
 106.6295710  45.8312597  66.9287397 107.1049832  46.0240243  66.1206248
 105.7061276  45.8871783  66.6830780 101.2075927  37.8660440  65.8943231
 101.7257870  38.6021467  65.5689719 100.8531059  38.1724434  66.7289990
 101.4588521  34.2860723  61.4144127 101.7390275  33.6183912  62.0404554
 102.2439128  34.4789819  60.9018791 105.3297379  42.7078357  65.1615702
 106.2814802  42.8076455  65.1827926 105.1600830  41.9156626  65.6713787
 103.3511759  39.7933940  65.3475103 102.7561691  40.0738953  64.6521592
 103.0661455  40.2827841  66.1191844 102.4819249  53.7456867  54.1077736
 103.4149922  53.6802429  54.3110611 102.3942462  54.5813134  53.6492268
 105.1107266  53.0622737  51.0681683 105.0320897  52.7282601  51.9617441
 105.9316933  53.5544505  51.0673156 107.8085457  45.9284477  64.2758002
 107.7761777  44.9900477  64.4617686 108.4186081  46.0068513  63.5423827
  99.6468788  44.7980530  50.3185206 100.5927892  44.6686738  50.3873624
  99.2683033  44.0595192  50.7954634 107.9579945  42.7195520  64.3216285
 107.4418994  41.9353977  64.1346214 108.8419894  42.3914237  64.4862805
 105.6190672  36.4636536  60.2812098 105.4215493  36.1551624  61.1655430
 106.2290378  37.1898175  60.4110028 113.6262007  46.9900484  63.4164039
 114.3565395  46.7285772  63.9771742 113.0168952  46.2529205  63.4566107
 111.7077304  45.1308346  64.0138490 110.9810467  44.9964311  63.4054981
 111.2924591  45.4385175  64.8195208  99.5307480  48.8498276  71.7785863
 100.4510490  49.0276875  71.9725909  99.4957063  47.9054321  71.6265562
  97.8311705  42.7230506  50.2540091  96.9243160  42.4263619  50.3302805
  98.1087686  42.4260324  49.3874377  92.5269553  46.7599310  64.4208644
  92.7455563  47.6916418  64.4396678  92.9395327  46.4007285  65.2063448
  99.4473771  37.2667396  56.4084332  98.6374499  36.9214481  56.7839579
 100.1358188  36.9574940  56.9971944 101.3764319  36.3445443  58.0308629
 101.9295358  36.7640896  58.6898652 101.6134405  35.4181191  58.0731585
  97.3997418  42.3332516  73.8111393  97.2994145  43.2826873  73.7423484
  97.1818960  42.0050755  72.9387463 104.7543126  38.4545968  57.5387293
 104.1741795  39.1130772  57.1565346 104.4879059  37.6323312  57.1274711
 103.2046692  37.8551025  59.7408614 103.7046471  37.9667560  58.9322933
 103.8482300  37.5512078  60.3809422  97.2628688  45.7629655  72.6276455
  96.7795770  46.5630015  72.8340344  97.3489627  45.7737600  71.6743899
  93.7801408  48.2235306  67.2315686  94.5994297  48.7179384  67.2550523
  94.0538216  47.3067274  67.2033254 103.5368004  40.6146058  56.5943642
 102.6493859  40.8995709  56.3763836 103.9521993  40.4539821  55.7470918
 106.8882540  40.6392579  60.3097981 107.6642930  41.1289032  60.5822598
 106.1630674  41.0650633  60.7669850 109.3255099  41.3520198  61.3671921
 109.9199590  41.1115934  60.6565230 109.3981683  40.6327329  61.9945458
 102.6811218  50.3790733  50.6891662 103.3847068  50.5840735  51.3049317
 101.9573866  50.9467495  50.9540745 103.5109028  46.1300594  56.8093932
 103.4544229  46.5869145  55.9701564 104.0637370  45.3691279  56.6316775
 107.3213834  41.9190326  57.6344051 107.0650768  41.5186962  58.4652259
 106.6966702  42.6334120  57.5094190 111.6326172  44.6586399  60.1415343
 111.0725730  44.7279588  60.9146905 111.0269675  44.4827384  59.4214839
 104.5897915  50.8173262  52.7390122 105.4243519  50.3854460  52.5567596
 104.4282258  50.6455276  53.6667016 104.2443807  47.3205375  54.1046461
 104.1892611  47.1549647  53.1634905 103.6189862  48.0281408  54.2608651
  89.0336322  42.5573440  67.9307883  89.6795186  42.0472394  68.4195108
  88.8253473  43.2942121  68.5051308 101.5589714  49.6254287  73.4300024
 102.4280874  49.7994939  73.0686659 101.0796466  50.4448704  73.3075753
  95.7275895  56.7451388  65.1089457  96.6303141  56.7774998  65.4255952
  95.5013265  55.8151839  65.1235793 101.3692052  33.4156261  57.9377716
 100.6024448  32.8614748  58.0834398 101.7802757  33.4878130  58.7991868
  93.3733813  39.7041057  72.0282897  94.2365275  39.3477862  72.2386222
  92.7999224  39.3654952  72.7158302 113.2182190  61.3342913  62.8345298
 113.8560600  61.2149660  62.1308638 113.1003033  62.2823757  62.8933251
 110.0271896  61.2870341  62.7706823 109.6890408  61.1711406  61.8827358
 110.8961664  60.8861506  62.7507829 105.8858712  63.1405818  58.7603714
 105.3223577  63.0495755  57.9920002 105.7711107  62.3205722  59.2406207
 110.5091679  62.4405193  68.7293029 110.4980320  62.0457991  67.8573532
 110.6712319  61.7071266  69.3226800 103.4323144  64.6357009  61.5987934
 104.2244436  64.2947834  61.1834234 103.6719794  64.7451984  62.5190088
 111.4658271  66.8076785  54.0718179 110.8146250  67.3930866  53.6852193
 112.2602634  67.3382980  54.1313216 105.3913898  63.8965922  54.4705313
 106.1644774  63.3494910  54.3318189 105.7439297  64.7610172  54.6819775
 107.2298940  65.2242305  67.6772213 106.9388806  66.1287936  67.5618879
 107.8655925  65.2658832  68.3916282 108.1555147  62.6019153  64.2673572
 108.7518720  62.3775176  63.5530535 108.2130119  61.8603899  64.8699020
 107.7280176  60.0558589  52.1023763 107.9805696  59.5340110  51.3407226
 106.7904735  59.8924734  52.2050447 112.7723458  59.0594367  59.9098506
 113.5586548  58.6413790  59.5588923 113.0362163  59.9640459  60.0780155
 112.9433536  64.4967217  54.6087163 112.3079369  64.5701844  55.3208068
 112.6130942  65.0860816  53.9306242 118.1731886  58.9969600  60.8131485
 118.9057058  58.4268817  61.0469314 117.4171241  58.6091201  61.2537991
 107.4476464  61.9586695  54.3048138 107.3312723  61.2831598  54.9729222
 107.5578724  61.4719068  53.4880291 109.7908005  61.4196842  58.0094827
 109.4266213  60.8927463  58.7207749 110.6475121  61.0295311  57.8361313
 115.6957306  52.7091174  65.2726094 115.3640631  53.5786585  65.0487309
 115.1002919  52.3927458  65.9520124 109.4313492  56.4486741  53.0056176
 109.5987895  57.3166978  53.3726647 109.2410661  56.6114023  52.0817465
 112.1888826  64.9103720  64.6722006 111.8889549  65.8128759  64.5637813
 111.8439885  64.6435903  65.5243159 105.6401307  61.3617517  60.7058711
 104.7151803  61.2293731  60.9136402 105.8885720  62.1411736  61.2028653
 115.5885969  57.4286260  62.3519444 114.6802847  57.3601669  62.0578205
 115.5373565  57.9058205  63.1801269 109.4102713  58.9044399  53.9902843
 109.2902338  59.3501450  54.8288323 108.7155302  59.2529717  53.4316381
 103.0010118  61.0050791  61.5402500 103.1302499  61.2585270  62.4541911
 102.3207569  61.5978499  61.2207155 107.1709605  71.6748041  57.6392974
 107.0933635  72.6255866  57.7181455 106.5671249  71.3293913  58.2967900
 109.6626835  58.8475906  70.2954341 108.8860169  59.4069826  70.2857205
 110.3017398  59.3332689  70.8169211 117.4547616  55.6302699  64.1297318
 116.8121996  55.9235232  63.4837112 116.9502544  55.5155619  64.9350514
 115.1087779  59.3765872  54.8183177 116.0205635  59.6093259  54.6430874
 114.5997426  59.9602916  54.2558255 107.9173207  61.6561359  69.8572308
 108.6587892  62.1946403  69.5807131 107.2110193  62.2827648  70.0143860
 113.3928547  63.7990500  68.4544469 113.8011903  63.3572910  67.7099102
 112.6705809  63.2243127  68.7078662 109.7459617  58.7363107  65.8278026
 110.5920812  59.1602520  65.9712675 109.6858255  58.0796731  66.5216589
 113.7157362  64.3591690  62.2096758 113.0866224  64.5237405  61.5072826
 113.3283024  64.7733300  62.9807722 117.5946594  65.2946128  59.5641122
 116.9097632  65.6745030  59.0138155 117.6790443  65.9041455  60.2973070
 112.8959062  56.3967475  67.4859200 112.6519994  57.1509536  66.9493476
 113.1718993  56.7752823  68.3206447 114.8497525  62.9406087  66.1636466
 115.0614420  63.5837847  65.4870847 114.8027273  62.1068404  65.6958396
 112.4523754  55.5523908  63.0673038 111.5908233  55.8505162  63.3589775
 112.4786189  55.7694307  62.1354070 109.2685324  64.0966099  59.4746843
 109.7323669  64.3753802  58.6851466 109.0042122  63.1949543  59.2919934
 106.1609405  63.6437580  62.4126607 106.7310762  64.0724848  61.7744091
 106.7517516  63.3620165  63.1110792 108.2054210  60.2189251  56.2836408
 108.9078253  60.6710295  56.7510335 107.8734838  59.5773070  56.9116302
 106.6534571  58.8101008  70.6587618 106.0233232  59.4917288  70.8923015
 106.5470659  58.6984089  69.7140756 101.9479544  58.4772804  61.5853542
 101.1578598  58.7330332  61.1093653 102.4390791  59.2921141  61.6905583
 115.9643353  65.8178043  64.3358823 116.7860797  65.4158230  64.0541504
 115.9605756  65.7146277  65.2874939 103.8994289  58.8417383  58.5437019
 103.1025452  58.9536077  59.0620514 103.6719881  59.1804035  57.6777909
 109.7299957  65.3662086  66.4919533 109.7944389  65.8282493  67.3277705
 109.0210880  64.7359451  66.6201843 100.2317247  58.7303294  64.0168533
 100.4825285  59.6150304  64.2826109 100.7676795  58.5507896  63.2443625
 109.4447974  67.0330194  56.3598514 109.3093649  67.8781729  56.7883361
 109.9857787  67.2349471  55.5964447 105.9315314  53.1121773  73.0212869
 105.5382259  52.5587972  73.6960513 106.7481454  53.4232352  73.4119386
 102.8977372  64.5505632  56.9326439 103.4101892  65.3448882  57.0832003
 103.5500084  63.8531922  56.8660040 104.7072256  67.6671388  59.0149192
 104.8838885  68.5889353  58.8270176 105.5029090  67.3529807  59.4443572
 108.8483275  54.5279653  70.6133125 109.5892988  55.1286806  70.5337588
 109.0801198  53.7857290  70.0551168 103.9924613  59.7136020  68.8911355
 103.8778128  58.8121277  69.1918454 103.1369131  59.9599717  68.5396172
 111.0716451  67.6553760  70.4898856 110.6280305  66.8690139  70.1719760
 111.7333664  67.8432911  69.8242747 105.8303572  69.1849562  65.0159534
 106.3810997  69.0566625  64.2436528 104.9915048  69.4844451  64.6654427
 113.1697689  67.9356560  68.5180257 113.1516164  68.7565441  68.0260526
 114.0917609  67.8110635  68.7430398 109.6270743  65.4500689  69.3603765
 110.1599080  64.6888978  69.1303073 109.0984824  65.1574341  70.1027920
 112.7940438  50.5560755  64.8897407 112.4504707  51.4462397  64.8136518
 113.1619400  50.3662413  64.0266992 100.8626288  62.8794286  57.7086009
 101.7001510  63.2891294  57.4919717 101.0404556  61.9393728  57.6786203
 112.7590721  60.5469367  53.3969842 112.2437344  61.3173971  53.6358230
 112.4868029  59.8734503  54.0202904 110.3437832  55.3919067  58.4555081
 109.4879428  55.0025918  58.2760719 110.7564783  55.4711028  57.5954866
 111.8736978  52.9265411  62.8546640 111.3701774  52.8895546  62.0414446
 112.1667585  53.8358153  62.9143297 108.1179864  53.0104140  61.8612822
 108.9832861  52.8146949  61.5018712 108.1857373  52.7814492  62.7882179
 117.7324995  63.3001721  55.3323016 116.9554437  62.9612881  54.8878178
 118.4116476  63.3054344  54.6577981 112.5477024  58.4196459  55.2229623
 112.2427159  58.7342608  56.0739767 113.5007466  58.4977879  55.2656956
 110.9923456  64.5786682  56.8722577 110.4644817  63.8439442  56.5595815
 110.4910958  65.3561358  56.6262546 115.9716302  62.7735702  61.9889624
 115.3139976  63.4634964  62.0769752 116.7756701  63.1632134  62.3323610
 105.7242183  55.2406348  59.2329189 106.2985935  55.0181530  58.5002382
 106.3113166  55.3095043  59.9857790 114.7821760  61.1280075  60.0393565
 115.2953642  61.7610067  60.5415275 115.4322984  60.5281271  59.6736925
 106.0511770  57.2710809  53.2525074 105.2149083  57.6085496  53.5734349
 105.9116540  57.1359789  52.3152211 108.0264851  52.1147597  57.9604258
 107.3729263  51.7996614  57.3360873 107.9845325  51.4923338  58.6864081
 109.1376056  62.3966892  49.8757550 108.2303117  62.1656146  50.0748699
 109.6347088  61.6004511  50.0631532 112.0444135  71.1064399  52.7954237
 111.3705833  71.4096096  53.4039194 112.4309957  71.9093480  52.4459694
 111.2602591  58.6029531  62.2851906 110.3425153  58.8244478  62.1273594
 111.6762735  58.6775841  61.4263613 112.0437639  60.0020946  57.4154586
 112.7909458  60.5142344  57.1061708 112.3129229  59.6804999  58.2758980
 110.3164289  62.4979487  54.3981541 109.4075508  62.2138520  54.4954010
 110.3459373  62.9178566  53.5384847 115.5483557  66.1086077  58.1672708
 115.0945884  65.2676986  58.2237899 114.9177523  66.7447475  58.5047488
 114.4916476  57.0378063  59.3973376 113.7539233  56.5255449  59.7283618
 114.7443250  56.5978444  58.5856652 113.9916496  67.9462573  59.1022526
 114.2839470  68.5067630  58.3834892 114.5015116  68.2391134  59.8575685
 114.5928103  49.8154315  59.9915145 114.8986980  48.9551678  59.7041060
 115.3180708  50.4071935  59.7914139 100.8852460  60.2185001  58.3796743
 100.6876859  59.6254362  57.6547809 100.3299124  59.9137211  59.0972682
 108.8649183  60.1108108  60.4991336 108.9197793  59.1581944  60.4233812
 108.0540385  60.2667547  60.9832634 110.0140377  64.0388231  51.7369619
 109.5759807  63.3224090  51.2775256 110.7550818  64.2664346  51.1754711
 106.8041543  58.7285167  58.2581715 105.9909409  59.0279338  58.6646907
 107.3000537  58.3340856  58.9756197 108.9550121  68.7242924  60.1915979
 108.9126300  68.9503771  59.2624511 109.8712820  68.4906299  60.3401781
 112.4015755  59.1926992  67.0896609 112.7565143  59.4198465  67.9491074
 113.0487886  59.5245369  66.4673864 118.1313492  62.3145428  57.7945938
 117.9931390  62.5047024  56.8667127 117.7749711  63.0764811  58.2513989
 106.2955618  56.3003523  63.8742950 106.9354997  56.1592282  63.1765913
 105.4633148  56.0138036  63.4981552 118.1582871  64.3821955  62.8057209
 118.5919378  64.2897244  63.6540263 118.8714452  64.3579455  62.1677225
 107.0715922  65.6005953  59.9877942 107.8656520  65.1056274  59.7860517
 106.3607614  65.0723817  59.6245648 111.8910766  67.9824049  64.3390310
 111.9447789  68.5514985  65.1068026 111.0225548  68.1525934  63.9744347
 103.3798685  59.7449035  56.0637695 102.4496273  59.6833491  56.2807657
 103.4756157  59.2224988  55.2674336 103.2984234  56.2703848  58.6515937
 103.5591052  57.1849181  58.5425097 104.1201407  55.8028291  58.8012549
 104.7709160  57.6841605  65.8214761 105.4432213  57.4758967  65.1727410
 103.9438946  57.4863691  65.3819993 119.0198421  64.4245655  65.3390095
 119.2134311  65.3291466  65.5849370 118.9199039  63.9653075  66.1728680
 110.6734732  54.3103546  67.8380422 110.0262647  55.0093496  67.7444898
 111.4435747  54.7439690  68.2056670 114.0813530  64.5752398  70.9130975
 113.9299036  64.3462950  69.9961059 114.0718209  65.5323000  70.9262320
 110.8498866  62.1484311  65.8977242 111.7790926  62.2995471  65.7246209
 110.4289896  62.2368332  65.0425888 109.6487198  66.1734975  63.6675779
 109.5098283  65.8053760  64.5401717 108.8601794  66.6882615  63.4959737
 110.2435350  71.2744072  55.0101316 110.4187105  70.8032115  55.8246938
 109.5568138  71.9009838  55.2382577 111.1992413  65.5516578  61.0564617
 110.8642246  65.5117348  61.9522267 110.6996359  64.8861294  60.5835027
 105.1736657  60.9584208  66.5817198 105.0356455  60.2264447  67.1828737
 106.0841580  60.8693108  66.3001386 114.1351605  62.8972612  51.3301677
 113.5180775  62.1719441  51.2334729 113.6668093  63.6581973  50.9868751
 107.8018958  60.6704167  66.0700878 108.5118576  60.0297360  66.0287496
 107.7588266  60.9217062  66.9927059 115.7905736  67.6071521  68.9907457
 115.7318282  66.9230741  68.3238040 116.1925255  68.3490511  68.5388083
 106.5147892  57.6569385  67.8896517 105.9785249  57.2060124  68.5418114
 105.9264600  57.7915294  67.1466982 104.8096435  74.4233435  61.7841176
 105.0493033  75.0551959  62.4620195 103.9665631  74.0721475  62.0706535
 105.9250150  57.1158037  50.4522981 105.0479617  56.9946837  50.0885228
 106.4007904  56.3244115  50.2001870 115.7923143  65.5711105  67.2221437
 114.9049922  65.2337026  67.3447836 116.3621695  64.8394136  67.4590202
  97.4452291  61.9035196  60.5464488  98.1323330  61.5896926  59.9585503
  97.2900419  62.8076561  60.2731740 102.2487013  56.7925393  64.9749512
 102.1645201  56.1851063  64.2399922 101.4269719  57.2834411  64.9759008
 109.3224297  70.2312557  64.1882680 109.2494468  71.0367529  64.7001985
 108.8801690  70.4304523  63.3630701 109.1114077  69.4684327  57.6985501
 108.3281598  70.0106007  57.7923726 109.8106822  69.9858307  58.0979743
 112.4210727  55.2778957  60.3419707 112.9179426  54.5248919  60.0220777
 111.6497708  55.3143273  59.7762916 120.2740484  60.9819322  61.9837998
 120.2630360  61.8644037  61.6131931 119.4057863  60.6290873  61.7892535
 111.7822980  70.1299391  66.3440839 112.4950953  70.7646856  66.2716740
 111.2913009  70.2263257  65.5280840 113.5040507  64.0350644  57.9158130
 112.5696786  64.1552106  57.7462835 113.6817176  63.1323111  57.6518140
 109.0045695  57.4196340  60.0691391 108.6343483  56.8667380  60.7572297
 109.5004788  56.8154473  59.5166392 116.8913059  59.8767963  58.4508164
 117.3573511  60.7095955  58.3768467 117.3420559  59.4112945  59.1553423
 106.8334894  67.8793835  67.1646409 107.5344353  68.5130318  67.3175804
 106.3630009  68.2208566  66.4042049 114.9589290  66.2211784  55.4494316
 115.2349134  66.1068379  56.3588191 114.0893789  65.8229269  55.4106490
 114.8629721  52.2448550  62.4899066 113.9492801  52.4752777  62.6581273
 115.2922823  52.3286994  63.3413098 114.6336180  60.4338442  64.9898960
 113.9807630  60.6814349  64.3351413 115.0116560  59.6202580  64.6561437
 111.5943354  70.4698135  59.0927130 111.7765748  69.6519791  59.5554882
 112.4176340  70.6865827  58.6552020 111.9285519  69.3966320  56.3542179
 112.4573286  68.8858775  55.7412341 112.1913739  69.0808851  57.2187712
 110.6823753  61.1758253  71.4764997 110.0064390  61.0752382  72.1467372
 111.5051387  61.0197467  71.9400994 102.4302612  67.4130190  64.0977512
 103.0156049  66.6673877  64.2305416 102.2327450  67.7234146  64.9814176
 105.2841267  70.4481437  59.1139954 104.6151642  70.9327565  58.6303995
 105.1454137  70.6950657  60.0283333  97.0220267  59.9835790  62.8181955
  97.0604366  59.4499380  63.6119073  96.5160560  59.4570995  62.1992932
 109.4246536  72.4825180  65.7122613 109.9764844  72.6456802  66.4771698
 109.7652729  73.0729618  65.0402638 104.4011029  54.8300330  66.3144498
 104.4652356  55.6915161  65.9021895 104.3378149  54.2174332  65.5816856
 103.8763302  56.9023463  69.9617532 104.5035340  56.5200540  70.5755056
 103.0191220  56.6837665  70.3273224 114.2757410  67.3086438  71.5671267
 114.8197314  67.9216396  71.0726222 113.6944255  67.8666016  72.0838280
 100.6528844  58.7099892  55.8935887 100.9482285  57.8010570  55.8402940
  99.7516880  58.6887631  55.5716889 112.5614923  70.4307156  62.6986295
 112.4366063  69.6296896  62.1897241 113.2194014  70.9253349  62.2100265
 104.1823091  56.7855889  61.8763435 103.4609677  57.3991856  61.7370909
 104.9716347  57.3213653  61.7980081 114.6249831  68.2316176  64.3265845
 113.6780167  68.1121527  64.2544172 114.9732605  67.3438674  64.4092107
 106.9849405  54.1210315  68.1504087 107.5083807  54.3672612  68.9130396
 106.7661738  54.9530350  67.7307224 102.3816686  56.3913990  56.0175212
 102.0529392  55.5111369  55.8350318 102.7356057  56.3361658  56.9051601
 111.6296265  68.0268892  60.5270197 111.4821227  67.0985600  60.7077767
 112.4549758  68.0488983  60.0427273 105.4958509  56.6786959  56.3850689
 105.8354582  57.2072881  55.6629298 105.9430630  57.0167366  57.1609256
 115.2330387  68.8497451  61.6135070 116.1576934  68.6440312  61.4759521
 115.0645690  68.6013852  62.5224412 108.1901950  55.0624010  65.8353758
 107.8498770  54.2631823  66.2374437 107.4840956  55.3625721  65.2630591
 108.8418422  52.1473323  64.2881081 109.6644491  51.6733801  64.1659971
 109.0856485  52.9263806  64.7879767 107.4826656  55.1761581  54.5843982
 108.2035019  55.5542834  54.0807699 106.8591960  55.8950458  54.6878960
 111.6257779  55.8806730  55.5202315 111.8421393  56.7631368  55.2191143
 111.1451846  55.4892943  54.7907957 106.3657000  58.8392443  62.0973059
 106.2201581  59.1532746  62.9897341 105.8882204  59.4577344  61.5443958
 108.2253383  55.8294991  62.1453949 108.2114952  54.9336084  61.8086247
 108.9425811  55.8365655  62.7792235 110.0779514  56.2632331  64.1907076
 109.8197292  57.1849402  64.1891407 109.5464554  55.8662766  64.8807540
 115.0225703  69.3683119  56.9697162 115.1962580  68.8029541  56.2171014
 115.5154594  70.1684013  56.7876651 100.8402663  61.3797788  65.0360720
 100.2956131  62.1557596  65.1680995 101.7182012  61.7268592  64.8779842
 107.6290279  54.7109371  57.4141519 107.7506190  53.7826018  57.6132406
 107.3392322  54.7248057  56.5019834 110.4981470  52.3964282  60.5508239
 110.5203166  52.4603615  59.5960218 110.9149529  51.5568791  60.7448745
 120.8765094  62.1319541  58.5887461 121.3196240  61.3826867  58.1906585
 119.9991604  62.1229678  58.2061193 116.0100875  68.6849883  54.0694060
 116.7051780  69.3056576  54.2881374 116.3524025  67.8345234  54.3446438
 101.6268684  60.5067684  67.9290877 100.8850421  60.6550319  68.5155508
 101.3061429  60.7675949  67.0657627 117.9092298  66.1349588  55.5981391
 118.4343623  66.4736861  54.8730711 117.8214651  65.1996604  55.4144525
 109.5712347  70.0483662  67.7271267 109.8799474  69.8032809  68.5993967
 110.3687829  70.2530301  67.2390137 109.5932959  72.2021572  59.9576644
 109.1537949  71.7097950  60.6509500 110.3441076  71.6594539  59.7168719
 102.0725298  68.3933113  59.9601272 102.8983318  68.0936884  59.5799915
 101.7219350  67.6240735  60.4091061 107.0406831  67.7459581  62.0298945
 106.4186841  67.0830286  61.7301173 107.7111698  67.7720713  61.3472593
 100.2733903  66.3119439  60.9190205  99.4365812  65.8841613  60.7374207
 100.2457549  66.5051882  61.8560997 107.1131359  56.2241369  71.6231451
 107.1619514  57.1003492  71.2409221 107.6553873  55.6818762  71.0503095
 117.5986204  66.7682492  70.9032589 116.8081748  66.7506631  70.3637088
 117.3619559  67.3070786  71.6581625 117.7184080  63.6174958  68.2165317
 117.7682084  63.4524966  69.1580840 117.6098003  62.7502217  67.8263198
 106.6020338  66.2963504  55.5057406 106.7508459  66.9798969  54.8524079
 107.4086782  66.2768594  56.0206862 115.0087842  59.6005886  69.5324624
 115.9097705  59.4612351  69.2408622 115.0835816  59.7660341  70.4722801
 109.3430647  56.9772741  68.3777810 108.4733957  57.2706307  68.1060399
 109.5790128  57.5613186  69.0985074 119.2202276  66.0371900  68.4607339
 118.9287085  66.4001881  69.2970800 118.6074408  65.3238908  68.2820671
 120.4197959  63.6024780  60.9809909 121.2544850  64.0414584  61.1447469
 120.5557087  63.1263433  60.1618155 117.4689465  61.1604515  66.9287397
 117.9443586  61.3532161  66.1206248 116.5455030  61.2163700  66.6830780
 104.3572971  62.3228682  56.5118475 104.1119013  61.4191012  56.7098685
 104.5268886  62.3245832  55.5697953 112.0469681  53.1952358  65.8943231
 112.5651625  53.9313385  65.5689719 111.6924814  53.5016351  66.7289990
 103.6268619  58.0557039  54.0104636 102.9337864  58.1301394  53.3544672
 103.3820371  57.2917383  54.5326153 112.2982275  49.6152641  61.4144127
 112.5784029  48.9475830  62.0404554 113.0832882  49.8081736  60.9018791
 110.1015744  68.7911635  52.9769153 109.5289711  69.4101822  52.5239625
 110.6748537  69.3410996  53.5109075 116.1691134  58.0370275  65.1615702
 117.1208557  58.1368372  65.1827926 115.9994584  57.2448543  65.6713787
 114.1905513  55.1225858  65.3475103 113.5955445  55.4030871  64.6521592
 113.9055210  55.6119759  66.1191844 113.3213004  69.0748785  54.1077736
 114.2543677  69.0094346  54.3110611 113.2336216  69.9105052  53.6492268
 115.9501020  68.3914655  51.0681683 115.8714652  68.0574519  51.9617441
 116.7710687  68.8836423  51.0673156 118.6479211  61.2576394  64.2758002
 118.6155532  60.3192395  64.4617686 119.2579835  61.3360431  63.5423827
 110.4862542  60.1272447  50.3185206 111.4321647  59.9978655  50.3873624
 110.1076787  59.3887109  50.7954634 118.7973700  58.0487438  64.3216285
 118.2812749  57.2645894  64.1346214 119.6813648  57.7206154  64.4862805
 116.4584427  51.7928453  60.2812098 116.2609248  51.4843542  61.1655430
 117.0684132  52.5190092  60.4110028 110.3701235  64.1790193  71.7785863
 111.2904244  64.3568792  71.9725909 110.3350818  63.2346239  71.6265562
 108.6705459  58.0522424  50.2540091 107.7636915  57.7555536  50.3302805
 108.9481440  57.7552242  49.3874377  99.5883400  59.3728787  60.7039138
  99.2686184  58.5194095  60.4113512  99.0416828  59.5877365  61.4597105
 103.3663307  62.0891228  64.4208644 103.5849317  63.0208336  64.4396678
 103.7789081  61.7299203  65.2063448 110.2867525  52.5959313  56.4084332
 109.4768253  52.2506398  56.7839579 110.9751942  52.2866857  56.9971944
 112.2158073  51.6737360  58.0308629 112.7689112  52.0932814  58.6898652
 112.4528160  50.7473108  58.0731585 108.2391173  57.6624434  73.8111393
 108.1387900  58.6118791  73.7423484 108.0212715  57.3342673  72.9387463
 107.4404244  54.9109359  50.3952070 108.3023408  55.2364257  50.6547888
 107.6254588  54.1240855  49.8825136  99.4571660  62.9931699  62.6732259
  98.7635131  62.5785651  62.1602214 100.2044651  63.0352235  62.0765678
 115.5936881  53.7837885  57.5387293 115.0135550  54.4422689  57.1565346
 115.3272813  52.9615230  57.1274711 114.0440447  53.1842943  59.7408614
 114.5440225  53.2959478  58.9322933 114.6876055  52.8803996  60.3809422
 108.1022443  61.0921573  72.6276455 107.6189524  61.8921933  72.8340344
 108.1883382  61.1029518  71.6743899 101.3708402  62.9249952  60.5498274
 101.3479090  63.0237640  59.5980157 101.6809039  63.7715103  60.8715440
 104.0295780  64.9826107  64.6644888 104.9839034  64.9510050  64.5974820
 103.8308304  64.5216731  65.4795114 104.6195162  63.5527223  67.2315686
 105.4388051  64.0471302  67.2550523 104.8931970  62.6359192  67.2033254
 114.3761759  55.9437976  56.5943642 113.4887614  56.2287626  56.3763836
 114.7915748  55.7831739  55.7470918 117.7276295  55.9684497  60.3097981
 118.5036685  56.4580949  60.5822598 117.0024429  56.3942551  60.7669850
 120.1648853  56.6812116  61.3671921 120.7593344  56.4407852  60.6565230
 120.2375437  55.9619247  61.9945458 102.3846009  70.5245727  61.6815086
 102.2500477  69.7646128  61.1153084 101.9678071  71.2486627  61.2143875
 113.5204972  65.7082650  50.6891662 114.2240822  65.9132653  51.3049317
 112.7967621  66.2759412  50.9540745 114.3502782  61.4592512  56.8093932
 114.2937984  61.9161063  55.9701564 114.9031125  60.6983196  56.6316775
 118.1607588  57.2482244  57.6344051 117.9044522  56.8478879  58.4652259
 117.5360456  57.9626038  57.5094190 122.4719926  59.9878317  60.1415343
 121.9119484  60.0571506  60.9146905 121.8663429  59.8119301  59.4214839
 105.5415135  71.4215044  61.8933529 105.4247519  72.3660476  61.7912219
 104.7207581  71.1188606  62.2819328 115.4291669  66.1465180  52.7390122
 116.2637273  65.7146378  52.5567596 115.2676012  65.9747193  53.6667016
 115.0837562  62.6497293  54.1046461 115.0286365  62.4841564  53.1634905
 114.4583617  63.3573326  54.2608651  99.8730077  57.8865357  67.9307883
 100.5188940  57.3764311  68.4195108  99.6647228  58.6234039  68.5051308
 112.3983469  64.9546205  73.4300024 113.2674628  65.1286857  73.0686659
 111.9190220  65.7740622  73.3075753 108.3933687  52.1505402  53.6831779
 108.3812357  53.0947242  53.8400050 109.2857109  51.9675547  53.3891241
 106.5669649  72.0743306  65.1089457 107.4696896  72.1066916  65.4255952
 106.3407019  71.1443757  65.1235793 108.3223251  70.8274292  61.7699536
 107.3718882  70.8276154  61.6563908 108.6255737  70.0807027  61.2535571
 112.2085807  48.7448179  57.9377716 111.4418202  48.1906665  58.0834398
 112.6196511  48.8170047  58.7991868 104.2127568  55.0332974  72.0282897
 105.0759029  54.6769779  72.2386222 103.6392978  54.6946869  72.7158302
 120.8665651  76.6162259  62.7706823 120.5284162  76.5003324  61.8827358
 121.7355419  76.2153424  62.7507829 116.7252466  78.4697735  58.7603714
 116.1617332  78.3787672  57.9920002 116.6104862  77.6497640  59.2406207
 121.3485434  77.7697111  68.7293029 121.3374075  77.3749909  67.8573532
 121.5106073  77.0363183  69.3226800 114.2716898  79.9648927  61.5987934
 115.0638190  79.6239752  61.1834234 114.5113549  80.0743902  62.5190088
 116.2307652  79.2257840  54.4705313 117.0038528  78.6786827  54.3318189
 116.5833051  80.0902089  54.6819775 118.0692695  80.5534222  67.6772213
 117.7782561  81.4579853  67.5618879 118.7049679  80.5950750  68.3916282
 118.9948902  77.9311071  64.2673572 119.5912474  77.7067093  63.5530535
 119.0523873  77.1895816  64.8699020 118.5673930  75.3850506  52.1023763
 118.8199451  74.8632028  51.3407226 117.6298489  75.2216652  52.2050447
 118.2870219  77.2878612  54.3048138 118.1706477  76.6123516  54.9729222
 118.3972479  76.8010986  53.4880291 120.6301760  76.7488759  58.0094827
 120.2659967  76.2219380  58.7207749 121.4868876  76.3587228  57.8361313
 120.2707247  71.7778659  53.0056176 120.4381649  72.6458895  53.3726647
 120.0804416  71.9405941  52.0817465 116.4795061  76.6909435  60.7058711
 115.5545558  76.5585649  60.9136402 116.7279475  77.4703654  61.2028653
 120.2496468  74.2336317  53.9902843 120.1296093  74.6793367  54.8288323
 119.5549056  74.5821634  53.4316381 113.8403873  76.3342708  61.5402500
 113.9696254  76.5877187  62.4541911 113.1601324  76.9270416  61.2207155
 118.0103360  87.0039958  57.6392974 117.9327389  87.9547783  57.7181455
 117.4065003  86.6585831  58.2967900 120.5020590  74.1767824  70.2954341
 119.7253924  74.7361744  70.2857205 121.1411153  74.6624607  70.8169211
 118.7566962  76.9853277  69.8572308 119.4981646  77.5238321  69.5807131
 118.0503947  77.6119566  70.0143860 120.5853372  74.0655024  65.8278026
 121.4314567  74.4894438  65.9712675 120.5252009  73.4088649  66.5216589
 120.1079078  79.4258016  59.4746843 120.5717424  79.7045719  58.6851466
 119.8435876  78.5241461  59.2919934 117.0003159  78.9729498  62.4126607
 117.5704516  79.4016766  61.7744091 117.5911271  78.6912082  63.1110792
 119.0447964  75.5481169  56.2836408 119.7472007  76.0002212  56.7510335
 118.7128593  74.9064987  56.9116302 117.4928326  74.1392925  70.6587618
 116.8626986  74.8209206  70.8923015 117.3864414  74.0276007  69.7140756
 112.7873298  73.8064721  61.5853542 111.9972352  74.0622250  61.1093653
 113.2784545  74.6213059  61.6905583 114.7388043  74.1709301  58.5437019
 113.9419207  74.2827995  59.0620514 114.5113636  74.5095953  57.6777909
 120.5693711  80.6954004  66.4919533 120.6338144  81.1574411  67.3277705
 119.8604635  80.0651369  66.6201843 111.0711001  74.0595212  64.0168533
 111.3219039  74.9442222  64.2826109 111.6070549  73.8799813  63.2443625
 120.2841729  82.3622111  56.3598514 120.1487403  83.2073647  56.7883361
 120.8251541  82.5641389  55.5964447 116.7709068  68.4413691  73.0212869
 116.3776014  67.8879890  73.6960513 117.5875209  68.7524270  73.4119386
 113.7371126  79.8797549  56.9326439 114.2495647  80.6740800  57.0832003
 114.3893839  79.1823840  56.8660040 115.5466011  82.9963306  59.0149192
 115.7232639  83.9181270  58.8270176 116.3422844  82.6821725  59.4443572
 119.6877029  69.8571570  70.6133125 120.4286743  70.4578723  70.5337588
 119.9194952  69.1149208  70.0551168 114.8318367  75.0427937  68.8911355
 114.7171882  74.1413195  69.1918454 113.9762885  75.2891634  68.5396172
 116.6697326  84.5141479  65.0159534 117.2204751  84.3858543  64.2436528
 115.8308802  84.8136368  64.6654427 120.4664497  80.7792607  69.3603765
 120.9992834  80.0180895  69.1303073 119.9378578  80.4866259  70.1027920
 111.7020043  78.2086204  57.7086009 112.5395265  78.6183212  57.4919717
 111.8798311  77.2685646  57.6786203 121.1831586  70.7210985  58.4555081
 120.3273182  70.3317835  58.2760719 121.5958538  70.8002946  57.5954866
 118.9573619  68.3396058  61.8612822 119.8226615  68.1438867  61.5018712
 119.0251127  68.1106410  62.7882179 121.8317210  79.9078600  56.8722577
 121.3038572  79.1731359  56.5595815 121.3304713  80.6853276  56.6262546
 116.5635938  70.5698266  59.2329189 117.1379690  70.3473447  58.5002382
 117.1506920  70.6386960  59.9857790 116.8905525  72.6002727  53.2525074
 116.0542837  72.9377413  53.5734349 116.7510294  72.4651707  52.3152211
 118.8658605  67.4439515  57.9604258 118.2123018  67.1288532  57.3360873
 118.8239079  66.8215255  58.6864081 119.9769810  77.7258810  49.8757550
 119.0696872  77.4948063  50.0748699 120.4740842  76.9296429  50.0631532
 121.1558044  77.8271405  54.3981541 120.2469263  77.5430438  54.4954010
 121.1853127  78.2470483  53.5384847 111.7246214  75.5476919  58.3796743
 111.5270614  74.9546280  57.6547809 111.1692878  75.2429129  59.0972682
 119.7042938  75.4400025  60.4991336 119.7591547  74.4873862  60.4233812
 118.8934140  75.5959464  60.9832634 120.8534131  79.3680148  51.7369619
 120.4153561  78.6516007  51.2775256 121.5944572  79.5956263  51.1754711
 117.6435298  74.0577085  58.2581715 116.8303163  74.3571256  58.6646907
 118.1394292  73.6632774  58.9756197 119.7943875  84.0534842  60.1915979
 119.7520054  84.2795688  59.2624511 120.7106574  83.8198217  60.3401781
 117.1349372  71.6295441  63.8742950 117.7748752  71.4884200  63.1765913
 116.3026903  71.3429954  63.4981552 117.9109676  80.9297871  59.9877942
 118.7050275  80.4348191  59.7860517 117.2001369  80.4015734  59.6245648
 114.2192440  75.0740953  56.0637695 113.2890028  75.0125408  56.2807657
 114.3149912  74.5516906  55.2674336 114.1377989  71.5995766  58.6515937
 114.3984806  72.5141099  58.5425097 114.9595161  71.1320208  58.8012549
 115.6102914  73.0133523  65.8214761 116.2825968  72.8050885  65.1727410
 114.7832701  72.8155609  65.3819993 121.5128486  69.6395464  67.8380422
 120.8656401  70.3385413  67.7444898 122.2829502  70.0731608  68.2056670
 120.4880952  81.5026893  63.6675779 120.3492038  81.1345677  64.5401717
 119.6995548  82.0174532  63.4959737 121.0829104  86.6035990  55.0101316
 121.2580860  86.1324033  55.8246938 120.3961892  87.2301756  55.2382577
 122.0386167  80.8808496  61.0564617 121.7036000  80.8409266  61.9522267
 121.5390113  80.2153212  60.5835027 116.0130411  76.2876126  66.5817198
 115.8750209  75.5556365  67.1828737 116.9235335  76.1985026  66.3001386
 118.6412712  75.9996085  66.0700878 119.3512331  75.3589277  66.0287496
 118.5982020  76.2508980  66.9927059 117.3541646  72.9861303  67.8896517
 116.8179003  72.5352041  68.5418114 116.7658354  73.1207212  67.1466982
 115.6490190  89.7525352  61.7841176 115.8886788  90.3843876  62.4620195
 114.8059386  89.4013392  62.0706535 116.7643905  72.4449954  50.4522981
 115.8873371  72.3238755  50.0885228 117.2401658  71.6536033  50.2001870
 108.2846045  77.2327114  60.5464488 108.9717085  76.9188844  59.9585503
 108.1294174  78.1368479  60.2731740 113.0880767  72.1217311  64.9749512
 113.0038956  71.5142980  64.2399922 112.2663474  72.6126329  64.9759008
 120.1618051  85.5604475  64.1882680 120.0888223  86.3659446  64.7001985
 119.7195444  85.7596441  63.3630701 119.9507831  84.7976245  57.6985501
 119.1675353  85.3397925  57.7923726 120.6500576  85.3150224  58.0979743
 119.8439450  72.7488257  60.0691391 119.4737237  72.1959298  60.7572297
 120.3398542  72.1446391  59.5166392 117.6728648  83.2085752  67.1646409
 118.3738108  83.8422235  67.3175804 117.2023763  83.5500484  66.4042049
 121.5217507  76.5050171  71.4764997 120.8458144  76.4044300  72.1467372
 122.3445141  76.3489384  71.9400994 113.2696366  82.7422107  64.0977512
 113.8549803  81.9965795  64.2305416 113.0721205  83.0526064  64.9814176
 116.1235022  85.7773355  59.1139954 115.4545397  86.2619482  58.6303995
 115.9847891  86.0242575  60.0283333 107.8614021  75.3127707  62.8181955
 107.8998121  74.7791298  63.6119073 107.3554314  74.7862913  62.1992932
 120.2640290  87.8117098  65.7122613 120.8158598  87.9748720  66.4771698
 120.6046484  88.4021536  65.0402638 115.2404784  70.1592248  66.3144498
 115.3046110  71.0207079  65.9021895 115.1771904  69.5466250  65.5816856
 114.7157056  72.2315381  69.9617532 115.3429095  71.8492458  70.5755056
 113.8584975  72.0129582  70.3273224 111.4922599  74.0391810  55.8935887
 111.7876040  73.1302488  55.8402940 110.5910635  74.0179549  55.5716889
 115.0216846  72.1147806  61.8763435 114.3003432  72.7283774  61.7370909
 115.8110102  72.6505571  61.7980081 117.8243159  69.4502233  68.1504087
 118.3477561  69.6964529  68.9130396 117.6055493  70.2822268  67.7307224
 113.2210440  71.7205907  56.0175212 112.8923147  70.8403286  55.8350318
 113.5749811  71.6653576  56.9051601 116.3352264  72.0078877  56.3850689
 116.6748336  72.5364798  55.6629298 116.7824384  72.3459283  57.1609256
 119.0295704  70.3915928  65.8353758 118.6892525  69.5923741  66.2374437
 118.3234711  70.6917639  65.2630591 119.6812176  67.4765240  64.2881081
 120.5038246  67.0025718  64.1659971 119.9250240  68.2555724  64.7879767
 118.3220411  70.5053499  54.5843982 119.0428773  70.8834751  54.0807699
 117.6985715  71.2242375  54.6878960 117.2050755  74.1684361  62.0973059
 117.0595336  74.4824664  62.9897341 116.7275959  74.7869261  61.5443958
 119.0647138  71.1586909  62.1453949 119.0508707  70.2628002  61.8086247
 119.7819566  71.1657573  62.7792235 120.9173269  71.5924249  64.1907076
 120.6591046  72.5141320  64.1891407 120.3858309  71.1954684  64.8807540
 111.6796417  76.7089705  65.0360720 111.1349885  77.4849513  65.1680995
 112.5575767  77.0560510  64.8779842 118.4684034  70.0401289  57.4141519
 118.5899945  69.1117935  57.6132406 118.1786076  70.0539975  56.5019834
 121.3375224  67.7256200  60.5508239 121.3596921  67.7895533  59.5960218
 121.7543283  66.8860708  60.7448745 112.4662439  75.8359602  67.9290877
 111.7244175  75.9842237  68.5155508 112.1455183  76.0967867  67.0657627
 120.4106102  85.3775580  67.7271267 120.7193228  85.1324727  68.5993967
 121.2081584  85.5822218  67.2390137 120.4326714  87.5313489  59.9576644
 119.9931704  87.0389868  60.6509500 121.1834831  86.9886457  59.7168719
 112.9119053  83.7225030  59.9601272 113.7377073  83.4228802  59.5799915
 112.5613105  82.9532653  60.4091061 117.8800586  83.0751498  62.0298945
 117.2580595  82.4122204  61.7301173 118.5505453  83.1012630  61.3472593
 111.1127658  81.6411357  60.9190205 110.2759566  81.2133531  60.7374207
 111.0851303  81.8343800  61.8560997 117.9525113  71.5533287  71.6231451
 118.0013269  72.4295409  71.2409221 118.4947628  71.0110680  71.0503095
 117.4414093  81.6255422  55.5057406 117.5902213  82.3090886  54.8524079
 118.2480536  81.6060512  56.0206862 120.1824402  72.3064659  68.3777810
 119.3127711  72.5998225  68.1060399 120.4183882  72.8905104  69.0985074
 115.1966726  77.6520599  56.5118475 114.9512768  76.7482929  56.7098685
 115.3662640  77.6537750  55.5697953 114.4662373  73.3848957  54.0104636
 113.7731618  73.4593312  53.3544672 114.2214125  72.6209301  54.5326153
 120.9409498  84.1203552  52.9769153 120.3683465  84.7393739  52.5239625
 121.5142292  84.6702914  53.5109075 121.3256297  75.4564365  50.3185206
 122.2715401  75.3270573  50.3873624 120.9470542  74.7179027  50.7954634
 121.2094989  79.5082111  71.7785863 122.1297999  79.6860710  71.9725909
 121.1744572  78.5638157  71.6265562 119.5099214  73.3814341  50.2540091
 118.6030669  73.0847454  50.3302805 119.7875195  73.0844159  49.3874377
 110.4277154  74.7020705  60.7039138 110.1079939  73.8486013  60.4113512
 109.8810582  74.9169283  61.4597105 114.2057062  77.4183146  64.4208644
 114.4243072  78.3500254  64.4396678 114.6182836  77.0591120  65.2063448
 121.1261280  67.9251231  56.4084332 120.3162008  67.5798316  56.7839579
 121.8145697  67.6158775  56.9971944 119.0784927  72.9916352  73.8111393
 118.9781654  73.9410709  73.7423484 118.8606469  72.6634590  72.9387463
 118.2797999  70.2401277  50.3952070 119.1417163  70.5656175  50.6547888
 118.4648343  69.4532773  49.8825136 110.2965414  78.3223616  62.6732259
 109.6028886  77.9077569  62.1602214 111.0438405  78.3644153  62.0765678
 118.9416197  76.4213490  72.6276455 118.4583279  77.2213851  72.8340344
 119.0277136  76.4321435  71.6743899 112.2102157  78.2541870  60.5498274
 112.1872845  78.3529557  59.5980157 112.5202793  79.1007021  60.8715440
 114.8689535  80.3118025  64.6644888 115.8232788  80.2801967  64.5974820
 114.6702058  79.8508649  65.4795114 115.4588917  78.8819141  67.2315686
 116.2781806  79.3763220  67.2550523 115.7325725  77.9651109  67.2033254
 113.2239763  85.8537645  61.6815086 113.0894231  85.0938045  61.1153084
 112.8071826  86.5778544  61.2143875 116.3808889  86.7506962  61.8933529
 116.2641274  87.6952394  61.7912219 115.5601336  86.4480523  62.2819328
 110.7123831  73.2157275  67.9307883 111.3582695  72.7056229  68.4195108
 110.5040982  73.9525957  68.5051308 119.2327442  67.4797320  53.6831779
 119.2206111  68.4239160  53.8400050 120.1250863  67.2967465  53.3891241
 117.4063403  87.4035224  65.1089457 118.3090650  87.4358834  65.4255952
 117.1800774  86.4735674  65.1235793 119.1617005  86.1566210  61.7699536
 118.2112637  86.1568072  61.6563908 119.4649492  85.4098945  61.2535571
 115.0521322  70.3624892  72.0282897 115.9152784  70.0061697  72.2386222
 114.4786733  70.0238787  72.7158302 121.9104756  89.3887129  64.0168533
 122.1612794  90.2734139  64.2826109 122.4464304  89.2091731  63.2443625
 119.1239800  92.5619032  60.5464488 119.8110839  92.2480762  59.9585503
 118.9687928  93.4660396  60.2731740 118.7007776  90.6419625  62.8181955
 118.7391875  90.1083216  63.6119073 118.1948069  90.1154831  62.1992932
 121.9521412  96.9703274  60.9190205 121.1153320  96.5425449  60.7374207
 121.9245058  97.1635718  61.8560997 121.2670909  90.0312623  60.7039138
 120.9473693  89.1777931  60.4113512 120.7204337  90.2461201  61.4597105
 121.1359169  93.6515534  62.6732259 120.4422640  93.2369487  62.1602214
 121.8832160  93.6936071  62.0765678 121.5517586  88.5449193  67.9307883
 122.1976449  88.0348147  68.4195108 121.3434737  89.2817874  68.5051308
  74.6528343   2.6934410  44.3638281  74.5752373   3.6442235  44.4426761
  74.0489987   2.3480283  45.0213207  72.2915173   5.4419804  48.5086483
  72.5311771   6.0738328  49.1865501  71.4484369   5.0907844  48.7951842
  72.7660005   1.4667807  45.8385261  72.0970380   1.9513934  45.3549301
  72.6272875   1.7137027  46.7528640  76.9065274   3.5011550  52.4367920
  77.4583582   3.6643172  53.2017005  77.2471467   4.0915988  51.7647944
  77.0751697   3.2207941  46.6821950  76.6356687   2.7284320  47.3754807
  77.8259814   2.6780909  46.4414026  69.8664747   1.5432097  48.4060393
  69.7319215   0.7832497  47.8398391  69.4496809   2.2672996  47.9389182
  73.0233873   2.4401414  48.6178836  72.9066257   3.3846846  48.5157526
  72.2026319   2.1374975  49.0064635  74.0488387   3.0929675  51.8334764
  74.9515633   3.1253286  52.1501259  73.8225757   2.1630126  51.8481100
  88.3484389   7.6348628  49.4952130  88.0102900   7.5189693  48.6072665
  89.2174157   7.2339794  49.4753136  84.2071204   9.4884105  45.4849021
  83.6436069   9.3974042  44.7165308  84.0923599   8.6684009  45.9651513
  88.8304172   8.7883480  55.4538335  88.8192812   8.3936278  54.5818839
  88.9924811   8.0549553  56.0472107  81.7535636  10.9835296  48.3233241
  82.5456928  10.6426121  47.9079540  81.9932286  11.0930272  49.2435394
  89.7870763  13.1555073  40.7963486  89.1358743  13.7409153  40.4097499
  90.5815126  13.6861267  40.8558523  83.7126390  10.2444210  41.1950620
  84.4857266   9.6973197  41.0563496  84.0651789  11.1088459  41.4065081
  85.5511433  11.5720592  54.4017519  85.2601299  12.4766223  54.2864186
  86.1868417  11.6137120  55.1161589  86.4767640   8.9497441  50.9918879
  87.0731212   8.7253463  50.2775842  86.5342611   8.2082186  51.5944327
  86.0492668   6.4036876  38.8269070  86.3018189   5.8818397  38.0652533
  85.1117227   6.2403021  38.9295753  91.2646028  10.8445505  41.3332470
  90.6291861  10.9180131  42.0453375  90.9343435  11.4339103  40.6551549
  85.7688957   8.3064982  41.0293445  85.6525215   7.6309885  41.6974529
  85.8791217   7.8197356  40.2125598  88.1120498   7.7675129  44.7340134
  87.7478705   7.2405750  45.4453055  88.9687614   7.3773598  44.5606619
  90.5101318  11.2582008  51.3967313  90.2102041  12.1607046  51.2883120
  90.1652377  10.9914191  52.2488466  83.9613799   7.7095804  47.4304017
  83.0364296   7.5772018  47.6381709  84.2098212   8.4890024  47.9273960
  81.3222610   7.3529078  48.2647806  81.4514991   7.6063557  49.1787218
  80.6420062   7.9456786  47.9452461  85.4922098  18.0226328  44.3638281
  85.4146127  18.9734153  44.4426761  84.8883741  17.6772200  45.0213207
  86.2385700   8.0039647  56.5817615  86.9800384   8.5424691  56.3052438
  85.5322685   8.6305935  56.7389166  91.7141039  10.1468787  55.1789776
  92.1224395   9.7051198  54.4344408  90.9918301   9.5721415  55.4323969
  92.0369854  10.7069978  48.9342065  91.4078716  10.8715692  48.2318133
  91.6495516  11.1211587  49.7053029  95.9159086  11.6424416  46.2886429
  95.2310124  12.0223317  45.7383462  96.0002935  12.2519742  47.0218376
  93.1710017   9.2884375  52.8881772  93.3826913   9.9316134  52.2116153
  93.1239766   8.4546691  52.4203702  87.5897816  10.4444386  46.1992150
  88.0536161  10.7232089  45.4096772  87.3254614   9.5427830  46.0165241
  84.4821897   9.9915867  49.1371913  85.0523254  10.4203136  48.4989398
  85.0730009   9.7098452  49.8356099  86.5266702   6.5667538  43.0081715
  87.2290745   7.0188582  43.4755641  86.1947330   5.9251357  43.6361608
  84.9747063   5.1579295  57.3832924  84.3445724   5.8395576  57.6168321
  84.8683151   5.0462376  56.4386063  80.2692036   4.8251091  48.3098849
  79.4791090   5.0808619  47.8338959  80.7603283   5.6399429  48.4150889
  94.2855845  12.1656330  51.0604130  95.1073289  11.7636517  50.7786811
  94.2818248  12.0624564  52.0120245  82.2206781   5.1895670  45.2682325
  81.4237944   5.3014364  45.7865821  81.9932373   5.5282322  44.4023216
  88.0512449  11.7140373  53.2164840  88.1156881  12.1760781  54.0523012
  87.3423373  11.0837738  53.3447150  78.5529739   5.0781581  50.7413839
  78.8037777   5.9628591  51.0071415  79.0889287   4.8986183  49.9688931
  87.7660466  13.3808481  43.0843820  87.6306141  14.2260017  43.5128668
  88.3070279  13.5827758  42.3209754  81.2189864  10.8983919  43.6571745
  81.7314384  11.6927169  43.8077310  81.8712577  10.2010209  43.5905347
  83.0284749  14.0149675  45.7394499  83.2051377  14.9367640  45.5515482
  83.8241582  13.7008094  46.1688878  82.3137105   6.0614307  55.6156662
  82.1990620   5.1599564  55.9163761  81.4581623   6.3078004  55.2641478
  89.3928943  14.0032047  57.2144162  88.9492797  13.2168426  56.8965067
  90.0546156  14.1911198  56.5488053  84.1516064  15.5327849  51.7404841
  84.7023489  15.4044912  50.9681835  83.3127540  15.8322738  51.3899734
  91.4910181  14.2834847  55.2425564  91.4728656  15.1043728  54.7505833
  92.4130101  14.1588922  55.4675705  87.9483235  11.7978977  56.0849072
  88.4811572  11.0367265  55.8548380  87.4197316  11.5052629  56.8273227
  79.1838781   9.2272573  44.4331316  80.0214003   9.6369582  44.2165024
  79.3617048   8.2872015  44.4031510  96.0537487   9.6480008  42.0568322
  95.2766930   9.3091168  41.6123484  96.7328968   9.6532632  41.3823287
  89.3135948  10.9264969  43.5967884  88.7857309  10.1917729  43.2841122
  88.8123451  11.7039646  43.3507852  94.2928794   9.1213990  48.7134930
  93.6352468   9.8113251  48.8015059  95.0969193   9.5110422  49.0568917
  87.4588548   8.7445179  36.6002857  86.5515610   8.5134433  36.7994006
  87.9559580   7.9482799  36.7876839  90.3656627  17.4542687  39.5199543
  89.6918326  17.7574383  40.1284501  90.7522449  18.2571767  39.1705000
  88.6376781   8.8457774  41.1226847  87.7288001   8.5616807  41.2199317
  88.6671865   9.2656853  40.2630154  93.8696049  12.4564364  44.8918015
  93.4158376  11.6155274  44.9483205  93.2390016  13.0925762  45.2292795
  92.3128988  14.2940861  45.8267833  92.6051962  14.8545918  45.1080199
  92.8227609  14.5869422  46.5820992  79.2064952   6.5663288  45.1042049
  79.0089352   5.9732649  44.3793116  78.6511616   6.2615499  45.8217988
  88.3352869  10.3866518  38.4614926  87.8972299   9.6702377  38.0020563
  89.0763310  10.6142633  37.9000017  87.2762613  15.0721212  46.9161286
  87.2338792  15.2982058  45.9869818  88.1925312  14.8384586  47.0647087
  96.4795364  10.7300242  49.5302516  96.9131870  10.6375531  50.3785570
  97.1926944  10.7057743  48.8922532  85.3928414  11.9484241  46.7123249
  86.1869013  11.4534561  46.5105824  84.6820106  11.4202104  46.3490954
  90.2123259  14.3302336  51.0635616  90.2660281  14.8993272  51.8313332
  89.3438040  14.5004221  50.6989654  81.7011178   6.0927322  42.7883002
  80.7708766   6.0311778  43.0052964  81.7968649   5.5703275  41.9919643
  97.3410913  10.7723943  52.0635401  97.5346803  11.6769753  52.3094676
  97.2411531  10.3131362  52.8973986  92.4026022  10.9230685  57.6376282
  92.2511528  10.6941237  56.7206366  92.3930701  11.8801287  57.6507627
  89.1711358   8.4962598  52.6222548  90.1003418   8.6473758  52.4491516
  88.7502388   8.5846619  51.7671195  87.9699690  12.5213263  50.3921086
  87.8310776  12.1532047  51.2647024  87.1814286  13.0360902  50.2205044
  88.5647842  17.6222359  41.7346622  88.7399598  17.1510402  42.5492245
  87.8780630  18.2488125  41.9627883  89.5204905  11.8994865  47.7809924
  89.1854738  11.8595635  48.6767574  89.0208851  11.2339581  47.3080334
  83.4949149   7.3062495  53.3062505  83.3568947   6.5742734  53.9074044
  84.4054073   7.2171395  53.0246693  92.4564097   9.2450900  38.0546983
  91.8393267   8.5197728  37.9580036  91.9880585  10.0060260  37.7114058
  86.1231450   7.0182455  52.7946185  86.8331068   6.3775647  52.7532803
  86.0800758   7.2695350  53.7172365  94.1118228  13.9549808  55.7152764
  94.0530775  13.2709028  55.0483347  94.5137747  14.6968798  55.2633390
  83.1308927  20.7711722  48.5086483  83.3705526  21.4030246  49.1865501
  82.2878124  20.4199762  48.7951842  94.1135636  11.9189392  53.9466743
  93.2262415  11.5815314  54.0693142  94.6834187  11.1872423  54.1835509
  75.7664783   8.2513484  47.2709795  76.4535823   7.9375214  46.6830810
  75.6112912   9.1554848  46.9977046  87.6436789  16.5790844  50.9127987
  87.5706961  17.3845816  51.4247291  87.2014182  16.7782810  50.0876008
  87.4326569  15.8162614  44.4230808  86.6494091  16.3584295  44.5169033
  88.1319314  16.3336594  44.8225049  90.1035473  16.4777678  53.0686145
  90.8163445  17.1125143  52.9962047  89.6125501  16.5741544  52.2526147
  91.8253000  10.3828931  44.6403437  90.8909278  10.5030393  44.4708141
  92.0029668   9.4801398  44.3763447  85.1547386  14.2272122  53.8891716
  85.8556846  14.8608605  54.0421110  84.6842501  14.5686853  53.1287355
  93.2801782  12.5690072  42.1739623  93.5561626  12.4546666  43.0833497
  92.4106281  12.1707556  42.1351796  89.9155846  16.8176422  45.8172437
  90.0978241  15.9998078  46.2800189  90.7388832  17.0344115  45.3797327
  90.2498012  15.7444608  43.0787485  90.7785778  15.2337062  42.4657647
  90.5126231  15.4287138  43.9433018  89.0036245   7.5236540  58.2010304
  88.3276882   7.4230670  58.8712679  89.8263879   7.3675754  58.6646301
  80.7515104  13.7608477  50.8222819  81.3368541  13.0152165  50.9550723
  80.5539943  14.0712434  51.7059483  83.6053759  16.7959724  45.8385261
  82.9364135  17.2805852  45.3549301  83.4666629  17.0428945  46.7528640
  75.3432759   6.3314077  49.5427262  75.3816859   5.7977668  50.3364380
  74.8373052   5.8049283  48.9238239  87.7459028  18.8303468  52.4367920
  88.2977336  18.9935089  53.2017005  88.0865222  19.4207906  51.7647944
  92.5969902  13.6564725  58.2916574  93.1409806  14.2694684  57.7971529
  92.0156747  14.2144304  58.8083587  78.9741337   5.0578179  42.6181193
  79.2694778   4.1488858  42.5648247  78.0729372   5.0365919  42.2962196
  90.8827415  16.7785443  49.4231602  90.7578555  15.9775183  48.9142547
  91.5406506  17.2731637  48.9345572  92.9462324  14.5794463  51.0511152
  91.9992659  14.4599815  50.9789478  93.2945097  13.6916961  51.1337413
  89.9508757  14.3747180  47.2515504  89.8033719  13.4463887  47.4323074
  90.7762251  14.3967270  46.7672579  93.5542879  15.1975738  48.3380377
  94.4789426  14.9918600  48.2004828  93.3858182  14.9492139  49.2469718
  84.6869493   5.1870730  48.8218366  84.5414073   5.5011034  49.7142647
  84.2094696   5.8055631  48.2689264  93.3438195  15.7161406  43.6942468
  93.5175073  15.1507828  42.9416321  93.8367086  16.5162301  43.5121958
  79.1615155   7.7276075  51.7606027  78.6168623   8.5035883  51.8926301
  80.0394505   8.0746879  51.6025148  94.3313368  15.0328170  40.7939366
  95.0264272  15.6534863  41.0126681  94.6736518  14.1823521  41.0691744
  79.9481177   6.8545971  54.6536184  79.2062913   7.0028606  55.2400814
  79.6273921   7.1154237  53.7902933  96.2304791  12.4827876  42.3226697
  96.7556115  12.8215148  41.5976017  96.1427143  11.5474891  42.1389832
  87.8924839  16.3961949  54.4516574  88.2011966  16.1511096  55.3239273
  88.6900321  16.6008588  53.9635444  87.9145451  18.5499859  46.6821950
  87.4750442  18.0576238  47.3754807  88.6653568  18.0072827  46.4414026
  80.3937790  14.7411400  46.6846578  81.2195810  14.4415172  46.3045222
  80.0431842  13.9719022  47.1336367  85.3619324  14.0937868  48.7544252
  84.7399333  13.4308573  48.4546480  86.0324191  14.1199000  48.0717900
  78.5946395  12.6597726  47.6435512  77.7578304  12.2319901  47.4619513
  78.5670041  12.8530170  48.5806303  95.9198697  13.1160779  57.6277895
  95.1294240  13.0984918  57.0882395  95.6832051  13.6549073  58.3826932
  96.0396572   9.9653246  54.9410624  96.0894577   9.8003253  55.8826147
  95.9310495   9.0980505  54.5508505  84.9232831  12.6441791  42.2302713
  85.0720951  13.3277256  41.5769385  85.7299274  12.6246881  42.7452168
  97.5414769  12.3850187  55.1852645  97.2499577  12.7480168  56.0216106
  96.9286900  11.6717196  55.0065977  82.6785463   8.6706969  43.2363782
  82.4331505   7.7669299  43.4343992  82.8481378   8.6724119  42.2943260
  88.4228236  15.1389922  39.7014460  87.8502203  15.7580109  39.2484932
  88.9961030  15.6889284  40.2354382  91.6425496  15.4227072  40.8323042
  92.5756169  15.3572634  41.0355918  91.5548709  16.2583339  40.3737575
  94.2713512  14.7392942  37.7926990  94.1927144  14.4052806  38.6862748
  95.0923179  15.2314710  37.7918462  88.6913727  10.5268481  58.5031170
  89.6116737  10.7047080  58.6971216  88.6563310   9.5824526  58.3510869
  77.9095892   5.7207074  47.4284444  77.5898676   4.8672383  47.1358818
  77.3629320   5.9355653  48.1842411  81.6875800   8.4369515  51.1453951
  81.9061809   9.3686623  51.1641984  82.1001573   8.0777490  51.9308755
  77.7784152   9.3409986  49.3977566  77.0847624   8.9263939  48.8847520
  78.5257143   9.3830522  48.8010985  86.4234935   7.4399860  59.3521761
  85.9402017   8.2400220  59.5585650  86.5095874   7.4507805  58.3989205
  79.6920895   9.2728240  47.2743581  79.6691583   9.3715927  46.3225464
  80.0021531  10.1193390  47.5960747  82.3508272  11.3304395  51.3890195
  83.3051526  11.2988337  51.3220127  82.1520796  10.8695018  52.2040421
  82.9407655   9.9005511  53.9560993  83.7600544  10.3949589  53.9795830
  83.2144462   8.9837479  53.9278560  80.7058501  16.8724014  48.4060393
  80.5712969  16.1124415  47.8398391  80.2890564  17.5964914  47.9389182
  91.8417464  12.0560938  37.4136968  92.5453314  12.2610940  38.0294624
  91.1180113  12.6237700  37.6786052  83.8627627  17.7693331  48.6178836
  83.7460011  18.7138764  48.5157526  83.0420073  17.4666893  49.0064635
  93.7504162  12.4943467  39.4635428  94.5849766  12.0624665  39.2812903
  93.5888505  12.3225481  40.3912323  93.4050054   8.9975580  40.8291768
  93.3498858   8.8319852  39.8880212  92.7796109   9.7051613  40.9853957
  78.1942569   4.2343645  54.6553190  78.8401432   3.7242599  55.1440415
  77.9859720   4.9712326  55.2296615  90.7195961  11.3024492  60.1545330
  91.5887121  11.4765144  59.7931965  90.2402713  12.1218909  60.0321060
  84.8882141  18.4221593  51.8334764  85.7909388  18.4545203  52.1501259
  84.6619511  17.4922044  51.8481100  86.6435743  17.1752580  48.4944843
  85.6931374  17.1754441  48.3809215  86.9468229  16.4285314  47.9780877
 102.3788437  23.0113118  49.5590605 103.0166847  22.8919865  48.8553945
 102.2609280  23.9593962  49.6178557  99.1878143  22.9640546  49.4952130
  98.8496655  22.8481611  48.6072665 100.0567911  22.5631711  49.4753136
  95.0464959  24.8176023  45.4849021  94.4829824  24.7265959  44.7165308
  94.9317354  23.9975927  45.9651513  99.6697926  24.1175398  55.4538335
  99.6586567  23.7228196  54.5818839  99.8318566  23.3841470  56.0472107
  92.5929391  26.3127214  48.3233241  93.3850683  25.9718039  47.9079540
  92.8326041  26.4222189  49.2435394 100.6264517  28.4846990  40.7963486
  99.9752497  29.0701071  40.4097499 101.4208880  29.0153185  40.8558523
  94.5520145  25.5736127  41.1950620  95.3251021  25.0265114  41.0563496
  94.9045543  26.4380377  41.4065081  96.3905187  26.9012510  54.4017519
  96.0995053  27.8058141  54.2864186  97.0262172  26.9429037  55.1161589
  97.3161394  24.2789358  50.9918879  97.9124966  24.0545381  50.2775842
  97.3736366  23.5374104  51.5944327  96.8886422  21.7328794  38.8269070
  97.1411943  21.2110315  38.0652533  95.9510982  21.5694939  38.9295753
 101.9329705  20.7364572  46.6343813 102.7192794  20.3183995  46.2834230
 102.1968410  21.6410664  46.8025461 102.1039783  26.1737422  41.3332470
 101.4685616  26.2472049  42.0453375 101.7737189  26.7631021  40.6551549
 107.3338132  20.6739805  47.5376792 108.0663304  20.1039022  47.7714621
 106.5777488  20.2861406  47.9783297  96.6082711  23.6356899  41.0293445
  96.4918969  22.9601803  41.6974529  96.7184971  23.1489273  40.2125598
  98.9514252  23.0967047  44.7340134  98.5872459  22.5697668  45.4453055
  99.8081368  22.7065516  44.5606619 104.8563553  14.3861379  51.9971400
 104.5246878  15.2556790  51.7732615 104.2609166  14.0697663  52.6765431
  98.5919739  18.1256946  39.7301483  98.7594141  18.9937183  40.0971954
  98.4016908  18.2884228  38.8062772 101.3495072  26.5873925  51.3967313
 101.0495795  27.4898964  51.2883120 101.0046132  26.3206108  52.2488466
  94.8007554  23.0387722  47.4304017  93.8758050  22.9063936  47.6381709
  95.0491967  23.8181941  47.9273960 104.7492216  19.1056465  49.0764750
 103.8409093  19.0371874  48.7823511 104.6979812  19.5828410  49.9046576
  98.5708960  20.5814604  40.7148149  98.4508585  21.0271655  41.5533630
  97.8761548  20.9299921  40.1561688  92.1616365  22.6820996  48.2647806
  92.2908746  22.9355474  49.1787218  91.4813816  23.2748704  47.9452461
  96.3315852  33.3518246  44.3638281  96.2539882  34.3026071  44.4426761
  95.7277496  33.0064118  45.0213207  98.8233082  20.5246111  57.0199648
  98.0466416  21.0840031  57.0102512  99.4623645  21.0102894  57.5414518
 106.6153862  17.3072904  50.8542624 105.9728243  17.6005437  50.2082419
 106.1108791  17.1925824  51.6595821 104.2694026  21.0536077  41.5428483
 105.1811882  21.2863464  41.3676181 103.7603673  21.6373121  40.9803562
  97.0779454  23.3331564  56.5817615  97.8194139  23.8716608  56.3052438
  96.3716440  23.9597853  56.7389166 102.5534794  25.4760705  55.1789776
 102.9618150  25.0343115  54.4344408 101.8312055  24.9013332  55.4323969
  98.9065864  20.4133312  52.5523333  99.7527059  20.8372725  52.6957982
  98.8464502  19.7566936  53.2461896 102.8763608  26.0361895  48.9342065
 102.2472471  26.2007610  48.2318133 102.4889271  26.4503505  49.7053029
 106.7552840  26.9716333  46.2886429 106.0703878  27.3515235  45.7383462
 106.8396690  27.5811660  47.0218376 102.0565309  18.0737680  54.2104507
 101.8126241  18.8279740  53.6738782 102.3325240  18.4523028  55.0451754
 104.0103772  24.6176292  52.8881772 104.2220667  25.2608052  52.2116153
 103.9633520  23.7838609  52.4203702 101.6130001  17.2294113  49.7918344
 100.7514480  17.5275366  50.0835082 101.6392436  17.4464512  48.8599377
  98.4291570  25.7736303  46.1992150  98.8929916  26.0524006  45.4096772
  98.1648368  24.8719748  46.0165241  95.3215651  25.3207785  49.1371913
  95.8917008  25.7495053  48.4989398  95.9123763  25.0390370  49.8356099
  97.3660456  21.8959456  43.0081715  98.0684500  22.3480500  43.4755641
  97.0341085  21.2543275  43.6361608  95.8140818  20.4871212  57.3832924
  95.1839478  21.1687493  57.6168321  95.7076906  20.3754294  56.4386063
  91.1085790  20.1543009  48.3098849  90.3184844  20.4100537  47.8338959
  91.5997038  20.9691346  48.4150889 105.1249600  27.4948248  51.0604130
 105.9467044  27.0928435  50.7786811 105.1212003  27.3916482  52.0120245
  93.0600536  20.5187588  45.2682325  92.2631699  20.6306282  45.7865821
  92.8326128  20.8574240  44.4023216  98.8906203  27.0432291  53.2164840
  98.9550636  27.5052698  54.0523012  98.1817127  26.4129656  53.3447150
  89.3923493  20.4073499  50.7413839  89.6431532  21.2920509  51.0071415
  89.9283042  20.2278100  49.9688931 113.2155593  23.8386996  47.4089101
 112.4619301  23.2694394  47.2533105 113.3503134  23.8049661  48.3559736
  98.6054221  28.7100398  43.0843820  98.4699896  29.5551934  43.5128668
  99.1464033  28.9119676  42.3209754  95.0921561  14.7891978  59.7458176
  94.6988506  14.2358177  60.4205820  95.9087701  15.1002557  60.1364693
  92.0583618  26.2275837  43.6571745  92.5708139  27.0219087  43.8077310
  92.7106331  25.5302127  43.5905347  93.8678503  29.3441593  45.7394499
  94.0445131  30.2659557  45.5515482  94.6635337  29.0300012  46.1688878
  98.0089522  16.2049857  57.3378432  98.7499235  16.8057011  57.2582895
  98.2407444  15.4627495  56.7796475  93.1530860  21.3906225  55.6156662
  93.0384375  20.4891482  55.9163761  92.2975377  21.6369921  55.2641478
 100.2322697  29.3323965  57.2144162  99.7886552  28.5460344  56.8965067
 100.8939911  29.5203115  56.5488053  94.9909819  30.8619767  51.7404841
  95.5417244  30.7336830  50.9681835  94.1521294  31.1614656  51.3899734
 102.3303935  29.6126765  55.2425564 102.3122411  30.4335646  54.7505833
 103.2523855  29.4880840  55.4675705  98.7876990  27.1270894  56.0849072
  99.3205326  26.3659183  55.8548380  98.2591071  26.8344546  56.8273227
 101.9546685  12.2330960  51.6142714 101.6110954  13.1232602  51.5381824
 102.3225647  12.0432618  50.7512299  90.0232535  24.5564491  44.4331316
  90.8607757  24.9661499  44.2165024  90.2010803  23.6163933  44.4031510
 101.9196967  22.2239571  40.1215149 101.4043591  22.9944176  40.3603536
 101.6474276  21.5504708  40.7448210  99.5044078  17.0689272  45.1800387
  98.6485675  16.6796123  45.0006026  99.9171030  17.1481233  44.3200173
 101.0343225  14.6035616  49.5791947 100.5308021  14.5665751  48.7659752
 101.3273832  15.5128358  49.6388604  97.2786111  14.6874345  48.5858129
  98.1439108  14.4917154  48.2264018  97.3463620  14.4584697  49.5127486
 106.8931241  24.9771926  42.0568322 106.1160684  24.6383086  41.6123484
 107.5722722  24.9824549  41.3823287 101.7083270  20.0966664  41.9474930
 101.4033406  20.4112813  42.7985073 102.6613713  20.1748083  41.9902263
 100.1529702  26.2556887  43.5967884  99.6251064  25.5209646  43.2841122
  99.6517205  27.0331563  43.3507852 105.1322548  24.4505907  48.7134930
 104.4746223  25.1405169  48.8015059 105.9362948  24.8402339  49.0568917
  94.8848430  16.9176553  45.9574496  95.4592182  16.6951735  45.2247689
  95.4719412  16.9865248  46.7103097 103.9428007  22.8050280  46.7638872
 104.4559889  23.4380272  47.2660582 104.5929231  22.2051476  46.3982232
  95.2118017  18.9481014  39.9770381  94.3755329  19.2855701  40.2979656
  95.0722787  18.8129994  39.0397518  97.1871098  13.7917802  44.6849565
  96.5335510  13.4766819  44.0606180  97.1451572  13.1693543  45.4109388
  98.2982302  24.0737097  36.6002857  97.3909364  23.8426351  36.7994006
  98.7953334  23.2774716  36.7876839 101.2050381  32.7834604  39.5199543
 100.5312080  33.0866301  40.1284501 101.5916203  33.5863685  39.1705000
 100.4208838  20.2799736  49.0097213  99.5031399  20.5014683  48.8518901
 100.8368982  20.3546046  48.1508920 101.2043886  21.6791151  44.1399893
 101.9515705  22.1912549  43.8307015 101.4735475  21.3575204  45.0004286
  99.4770536  24.1749692  41.1226847  98.5681755  23.8908725  41.2199317
  99.5065620  24.5948771  40.2630154 104.7089803  27.7856282  44.8918015
 104.2552130  26.9447191  44.9483205 104.0783770  28.4217680  45.2292795
 103.6522723  18.7148268  46.1218682 102.9145480  18.2025654  46.4528925
 103.9049496  18.2748649  45.3101959 103.1522743  29.6232778  45.8267833
 103.4445717  30.1837835  45.1080199 103.6621363  29.9161339  46.5820992
  90.0458706  21.8955206  45.1042049  89.8483106  21.3024567  44.3793116
  89.4905370  21.5907416  45.8217988  98.0255430  21.7878313  47.2236643
  98.0804040  20.8352149  47.1479119  97.2146632  21.9437752  47.7077941
  99.1746624  25.7158436  38.4614926  98.7366054  24.9994295  38.0020563
  99.9157065  25.9434551  37.9000017  95.9647790  20.4055372  44.9827021
  95.1515655  20.7049543  45.3892214  96.4606784  20.0111061  45.7001504
  98.1156368  30.4013129  46.9161286  98.0732547  30.6273976  45.9869818
  99.0319067  30.1676504  47.0647087 101.5622002  20.8697197  53.8141915
 101.9171389  21.0968670  54.6736381 102.2094133  21.2015574  53.1919171
 107.2919738  23.9915633  44.5191244 107.1537637  24.1817229  43.5912434
 106.9355957  24.7535016  44.9759295  95.4561865  17.9773728  50.5988256
  96.0961244  17.8362487  49.9011220  94.6239395  17.6908241  50.2226858
 107.3189118  26.0592160  49.5302516 107.7525625  25.9667449  50.3785570
 108.0320699  26.0349660  48.8922532  96.2322169  27.2776158  46.7123249
  97.0262767  26.7826478  46.5105824  95.5213861  26.7494021  46.3490954
 101.0517013  29.6594254  51.0635616 101.1054035  30.2285190  51.8313332
 100.1831794  29.8296139  50.6989654  92.5404932  21.4219240  42.7883002
  91.6102520  21.3603696  43.0052964  92.6362404  20.8995193  41.9919643
  92.4590481  17.9474053  45.3761243  92.7197298  18.8619386  45.2670404
  93.2807653  17.4798495  45.5257856  93.9315406  19.3611810  52.5460068
  94.6038460  19.1529172  51.8972717  93.1045193  19.1633896  52.1065300
 108.1804668  26.1015860  52.0635401 108.3740558  27.0061671  52.3094676
 108.0805286  25.6423279  52.8973986  99.8340978  15.9873751  54.5625729
  99.1868893  16.6863701  54.4690205 100.6041994  16.4209895  54.9301977
 103.2419776  26.2522603  57.6376282 103.0905283  26.0233155  56.7206366
 103.2324456  27.2093205  57.6507627 100.0105113  23.8254516  52.6222548
 100.9397173  23.9765675  52.4491516  99.5896143  23.9138537  51.7671195
  98.8093445  27.8505180  50.3921086  98.6704530  27.4823965  51.2647024
  98.0208041  28.3652820  50.2205044  99.4041596  32.9514277  41.7346622
  99.5793352  32.4802320  42.5492245  98.7174385  33.5780043  41.9627883
 100.3598660  27.2286783  47.7809924 100.0248492  27.1887553  48.6767574
  99.8602605  26.5631499  47.3080334  94.3342904  22.6354413  53.3062505
  94.1962702  21.9034652  53.9074044  95.2447827  22.5463313  53.0246693
 103.2957851  24.5742817  38.0546983 102.6787022  23.8489645  37.9580036
 102.8274340  25.3352178  37.7114058  96.9625204  22.3474372  52.7946185
  97.6724823  21.7067565  52.7532803  96.9194512  22.5987267  53.7172365
 104.9511983  29.2841726  55.7152764 104.8924529  28.6000946  55.0483347
 105.3531501  30.0260716  55.2633390  95.6754138  19.3339590  54.6141824
  95.1391495  18.8830329  55.2663420  95.0870847  19.4685499  53.8712288
  95.0856397  18.7928242  37.1768288  94.2085864  18.6717042  36.8130534
  95.5614150  18.0014320  36.9247176 104.9529390  27.2481310  53.9466743
 104.0656169  26.9107231  54.0693142 105.5227941  26.5164341  54.1835509
  86.6058537  23.5805401  47.2709795  87.2929577  23.2667131  46.6830810
  86.4506666  24.4846766  46.9977046  91.4093260  18.4695598  51.6994818
  91.3251448  17.8621267  50.9645228  90.5875966  18.9604616  51.7004315
  98.4830544  31.9082762  50.9127987  98.4100715  32.7137733  51.4247291
  98.0407937  32.1074728  50.0876008  98.2720323  31.1454532  44.4230808
  97.4887845  31.6876212  44.5169033  98.9713068  31.6628512  44.8225049
 101.5816973  16.9549161  47.0665014 102.0785673  16.2019124  46.7466084
 100.8103955  16.9913478  46.5008223 109.4346731  22.6589527  48.7083305
 109.4236607  23.5414242  48.3377238 108.5664110  22.3061078  48.5137842
 100.9429227  31.8069596  53.0686145 101.6557199  32.4417061  52.9962047
 100.4519256  31.9033462  52.2526147 102.6646754  25.7120849  44.6403437
 101.7303033  25.8322311  44.4708141 102.8423423  24.8093315  44.3763447
  98.1651942  19.0966544  46.7936698  97.7949730  18.5437585  47.4817604
  98.6611035  18.4924678  46.2411698 106.0519305  21.5538168  45.1753471
 106.5179758  22.3866160  45.1013774 106.5026806  21.0883150  45.8798730
  95.9941141  29.5564039  53.8891716  96.6950600  30.1900522  54.0421110
  95.5236256  29.8978771  53.1287355 104.1195537  27.8981989  42.1739623
 104.3955380  27.7838584  43.0833497 103.2500035  27.4999474  42.1351796
 104.0235968  13.9218755  49.2144372 103.1099048  14.1522982  49.3826579
 104.4529070  14.0057199  50.0658405 103.7942427  22.1108647  51.7144266
 103.1413877  22.3584554  51.0596719 104.1722807  21.2972785  51.3806744
 100.7549601  32.1468340  45.8172437 100.9371995  31.3289996  46.2800189
 101.5782587  32.3636032  45.3797327 101.0891766  31.0736525  43.0787485
 101.6179532  30.5628980  42.4657647 101.3519986  30.7579055  43.9433018
  99.8430000  22.8528458  58.2010304  99.1670637  22.7522587  58.8712679
 100.6657634  22.6967672  58.6646301  91.5908859  29.0900395  50.8222819
  92.1762296  28.3444082  50.9550723  91.3933697  29.4004351  51.7059483
  86.1826514  21.6605995  49.5427262  86.2210613  21.1269585  50.3364380
  85.6766806  21.1341200  48.9238239  98.5852783  34.1595385  52.4367920
  99.1371091  34.3227007  53.2017005  98.9258976  34.7499823  51.7647944
  93.5617276  16.5070535  53.0389804  93.6258602  17.3685366  52.6267202
  93.4984396  15.8944537  52.3062163  93.0369548  18.5793668  56.6862838
  93.6641587  18.1970745  57.3000363  92.1797467  18.3607870  57.0518531
 103.4363657  28.9856643  58.2916574 103.9803561  29.5986601  57.7971529
 102.8550502  29.5436221  58.8083587  89.8135091  20.3870097  42.6181193
  90.1088532  19.4780775  42.5648247  88.9123127  20.3657836  42.2962196
 101.7221170  32.1077361  49.4231602 101.5972309  31.3067101  48.9142547
 102.3800261  32.6023554  48.9345572  93.3429338  18.4626093  48.6008742
  92.6215924  19.0762061  48.4616215  94.1322594  18.9983858  48.5225388
 103.7856078  29.9086381  51.0511152 102.8386414  29.7891732  50.9789478
 104.1338851  29.0208879  51.1337413  96.1455652  15.7980520  54.8749394
  96.6690053  16.0442816  55.6375703  95.9267985  16.6300555  54.4552531
  91.5422933  18.0684195  42.7420518  91.2135639  17.1881573  42.5595624
  91.8962303  18.0131863  43.6296908 100.7902512  29.7039097  47.2515504
 100.6427474  28.7755805  47.4323074 101.6156005  29.7259188  46.7672579
  94.6564756  18.3557164  43.1095996  94.9960828  18.8843086  42.3874604
  95.1036876  18.6937570  43.8854563 104.3936633  30.5267656  48.3380377
 105.3183181  30.3210517  48.2004828 104.2251937  30.2784057  49.2469718
  97.3508197  16.7394215  52.5599064  97.0105017  15.9402028  52.9619744
  96.6447203  17.0395926  51.9875897  98.0024668  13.8243527  51.0126387
  98.8250738  13.3504006  50.8905278  98.2462732  14.6034011  51.5125073
  96.6432903  16.8531786  41.3089289  97.3641265  17.2313039  40.8053006
  96.0198207  17.5720663  41.4124267 100.7864026  17.5576935  42.2447621
 101.0027640  18.4401573  41.9436449 100.3058093  17.1663148  41.5153263
  95.5263247  20.5162648  48.8218366  95.3807828  20.8302951  49.7142647
  95.0488451  21.1347548  48.2689264  97.3859630  17.5065196  48.8699255
  97.3721199  16.6106289  48.5331553  98.1032058  17.5135860  49.5037541
  99.2385761  17.9402536  50.9152383  98.9803539  18.8619607  50.9136713
  98.7070801  17.5432971  51.6052847 104.1831950  31.0453323  43.6942468
 104.3568827  30.4799746  42.9416321 104.6760841  31.8454218  43.5121958
  90.0008909  23.0567993  51.7606027  89.4562377  23.8327800  51.8926301
  90.8788259  23.4038797  51.6025148  96.7896526  16.3879576  44.1386826
  96.9112437  15.4596223  44.3377713  96.4998568  16.4018262  43.2265141
  99.6587716  14.0734487  47.2753545  99.6809413  14.1373820  46.3205525
 100.0755775  13.2338995  47.4694052 110.0371341  23.8089746  45.3132768
 110.4802487  23.0597072  44.9151891 109.1597851  23.7999883  44.9306500
 105.1707122  30.3620088  40.7939366 105.8658027  30.9826781  41.0126681
 105.5130272  29.5115439  41.0691744  90.7874931  22.1837889  54.6536184
  90.0456667  22.3320524  55.2400814  90.4667676  22.4446154  53.7902933
 107.0698545  27.8119793  42.3226697 107.5949869  28.1507066  41.5976017
 106.9820898  26.8766809  42.1389832  98.7318594  31.7253867  54.4516574
  99.0405720  31.4803014  55.3239273  99.5294076  31.9300505  53.9635444
  98.7539206  33.8791777  46.6821950  98.3144196  33.3868155  47.3754807
  99.5047323  33.3364744  46.4414026  96.2013078  29.4229786  48.7544252
  95.5793087  28.7600491  48.4546480  96.8717945  29.4490918  48.0717900
  89.4340150  27.9889644  47.6435512  88.5972058  27.5611818  47.4619513
  89.4063795  28.1822087  48.5806303  96.2737606  17.9011574  58.3476758
  96.3225761  18.7773697  57.9654528  96.8160120  17.3588967  57.7748401
 106.7592451  28.4452697  57.6277895 105.9687995  28.4276836  57.0882395
 106.5225806  28.9840991  58.3826932 106.8790326  25.2945163  54.9410624
 106.9288331  25.1295171  55.8826147 106.7704250  24.4272422  54.5508505
  95.7626585  27.9733709  42.2302713  95.9114705  28.6569173  41.5769385
  96.5693028  27.9538799  42.7452168 104.1694089  21.2776091  56.2569930
 105.0703951  21.1382556  55.9653928 104.2442063  21.4430546  57.1968108
  98.5036894  18.6542946  55.1023117  97.6340203  18.9476512  54.8305705
  98.7396374  19.2383391  55.8230380 108.3808523  27.7142105  55.1852645
 108.0893331  28.0772085  56.0216106 107.7680654  27.0009113  55.0065977
 109.5804205  25.2794985  47.7055215 110.4151097  25.7184789  47.8692776
 109.7163334  24.8033638  46.8863461 106.6295711  22.8374720  53.6532703
 107.1049833  23.0302366  52.8451555 105.7061277  22.8933905  53.4076087
  93.5179218  23.9998887  43.2363782  93.2725260  23.0961217  43.4343992
  93.6875133  24.0016037  42.2943260 101.2075928  14.8722563  52.6188537
 101.7257872  15.6083590  52.2935026 100.8531061  15.1786556  53.4535296
  92.7874866  19.7327244  40.7349943  92.0944110  19.8071599  40.0789979
  92.5426617  18.9687588  41.2571460  99.2621991  30.4681840  39.7014460
  98.6895958  31.0872027  39.2484932  99.8354784  31.0181201  40.2354382
 105.3297380  19.7140480  51.8861009 106.2814803  19.8138577  51.9073233
 105.1600831  18.9218748  52.3959093 103.3511760  16.7996063  52.0720410
 102.7561692  17.0801076  51.3766898 103.0661457  17.2889964  52.8437151
 102.4819250  30.7518990  40.8323042 103.4149923  30.6864551  41.0355918
 102.3942463  31.5875256  40.3737575 105.1107267  30.0684860  37.7926990
 105.0320899  29.7344724  38.6862748 105.9316934  30.5606628  37.7918462
 107.8085458  22.9346599  51.0003308 107.7761778  21.9962600  51.1862992
 108.4186082  23.0130636  50.2669133  99.6468789  21.8042652  37.0430513
 100.5927894  21.6748860  37.1118931  99.2683034  21.0657314  37.5199941
 107.9579947  19.7257643  51.0461592 107.4418995  18.9416099  50.8591521
 108.8419895  19.3976359  51.2108111 105.6190674  13.4698658  47.0057404
 105.4215495  13.1613746  47.8900736 106.2290379  14.1960297  47.1355334
 113.6262008  23.9962606  50.1409345 114.3565396  23.7347894  50.7017049
 113.0168953  23.2591328  50.1811413 111.7077305  22.1370469  50.7383796
 110.9810469  22.0026434  50.1300288 111.2924592  22.4447297  51.5440515
  99.5307482  25.8560398  58.5031170 100.4510491  26.0338997  58.6971216
  99.4957065  24.9116444  58.3510869  97.8311706  19.7292629  36.9785398
  96.9243162  19.4325741  37.0548111  98.1087687  19.4322447  36.1119684
  88.7489647  21.0498992  47.4284444  88.4292431  20.1964300  47.1358818
  88.2023075  21.2647570  48.1842411  92.5269554  23.7661433  51.1453951
  92.7455564  24.6978541  51.1641984  92.9395328  23.4069407  51.9308755
  99.4473772  14.2729518  43.1329639  98.6374500  13.9276603  43.5084885
 100.1358189  13.9637062  43.7217251 101.3764320  13.3507565  44.7553936
 101.9295359  13.7703019  45.4143959 101.6134407  12.4243313  44.7976892
  97.3997419  19.3394639  60.5356700  97.2994146  20.2888996  60.4668791
  97.1818961  19.0112878  59.6632770  96.6010491  16.5879564  37.1197377
  97.4629655  16.9134462  37.3793194  96.7860835  15.8011060  36.6070443
  88.6177907  24.6701904  49.3977566  87.9241378  24.2555856  48.8847520
  89.3650898  24.7122440  48.8010985 104.7543127  15.4608090  44.2632600
 104.1741796  16.1192894  43.8810652 104.4879060  14.6385435  43.8520017
 103.2046694  14.8613148  46.4653920 103.7046472  14.9729683  45.6568239
 103.8482302  14.5574201  47.1054729  97.2628689  22.7691778  59.3521761
  96.7795771  23.5692138  59.5585650  97.3489629  22.7799723  58.3989205
  90.5314649  24.6020157  47.2743581  90.5085337  24.7007845  46.3225464
  90.8415286  25.4485308  47.5960747  93.1902027  26.6596312  51.3890195
  94.1445281  26.6280255  51.3220127  92.9914551  26.1986936  52.2040421
  93.7801409  25.2297428  53.9560993  94.5994298  25.7241507  53.9795830
  94.0538217  24.3129397  53.9278560 103.5368005  17.6208181  43.3188948
 102.6493860  17.9057831  43.1009143 103.9521994  17.4601944  42.4716225
 106.8882541  17.6454702  47.0343287 107.6642932  18.1351154  47.3067904
 106.1630676  18.0712756  47.4915157 109.3255100  18.3582321  48.0917228
 109.9199591  18.1178057  47.3810536 109.3981684  17.6389451  48.7190764
 102.6811219  27.3852855  37.4136968 103.3847069  27.5902858  38.0294624
 101.9573868  27.9529617  37.6786052 103.5109029  23.1362717  43.5339238
 103.4544230  23.5931268  42.6946871 104.0637372  22.3753401  43.3562081
 107.3213835  18.9252449  44.3589358 107.0650769  18.5249084  45.1897566
 106.6966703  19.6396242  44.2339497 111.6326173  21.6648522  46.8660649
 111.0725731  21.7341711  47.6392211 111.0269676  21.4889506  46.1460146
 104.5897916  27.8235385  39.4635428 105.4243520  27.3916583  39.2812903
 104.4282259  27.6517398  40.3912323 104.2443808  24.3267498  40.8291768
 104.1892612  24.1611769  39.8880212 103.6189864  25.0343531  40.9853957
  89.0336323  19.5635562  54.6553190  89.6795187  19.0534516  55.1440415
  88.8253474  20.3004244  55.2296615 101.5589716  26.6316410  60.1545330
 102.4280875  26.8057062  59.7931965 101.0796467  27.4510827  60.0321060
  97.5539934  13.8275607  40.4077086  97.5418604  14.7717447  40.5645357
  98.4463356  13.6445752  40.1136547  97.4829498  32.5044497  48.4944843
  96.5325129  32.5046359  48.3809215  97.7861984  31.7577232  47.9780877
  93.3733814  16.7103179  58.7528204  94.2365276  16.3539984  58.9631529
  92.7999225  16.3717074  59.4403608 113.2182191  38.3405036  49.5590605
 113.8560601  38.2211783  48.8553945 113.1003034  39.2885880  49.6178557
 110.0271898  38.2932464  49.4952130 109.6890409  38.1773529  48.6072665
 110.8961666  37.8923629  49.4753136 105.8858713  40.1467940  45.4849021
 105.3223578  40.0557877  44.7165308 105.7711108  39.3267845  45.9651513
 110.5091681  39.4467316  55.4538335 110.4980321  39.0520114  54.5818839
 110.6712320  38.7133388  56.0472107 103.4323145  41.6419132  48.3233241
 104.2244437  41.3009956  47.9079540 103.6719795  41.7514107  49.2435394
 111.4658272  43.8138908  40.7963486 110.8146252  44.3992988  40.4097499
 112.2602635  44.3445103  40.8558523 105.3913899  40.9028045  41.1950620
 106.1644775  40.3557032  41.0563496 105.7439298  41.7672294  41.4065081
 107.2298942  42.2304427  54.4017519 106.9388808  43.1350058  54.2864186
 107.8655926  42.2720955  55.1161589 108.1555149  39.6081276  50.9918879
 108.7518721  39.3837298  50.2775842 108.2130120  38.8666021  51.5944327
 107.7280177  37.0620711  38.8269070 107.9805698  36.5402232  38.0652533
 106.7904736  36.8986857  38.9295753 112.7723460  36.0656490  46.6343813
 113.5586549  35.6475913  46.2834230 113.0362164  36.9702582  46.8025461
 112.9433537  41.5029340  41.3332470 112.3079370  41.5763966  42.0453375
 112.6130944  42.0922939  40.6551549 118.1731887  36.0031723  47.5376792
 118.9057059  35.4330940  47.7714621 117.4171243  35.6153323  47.9783297
 107.4476466  38.9648817  41.0293445 107.3312724  38.2893721  41.6974529
 107.5578726  38.4781191  40.2125598 109.7908007  38.4258964  44.7340134
 109.4266214  37.8989585  45.4453055 110.6475123  38.0357433  44.5606619
 115.6957307  29.7153297  51.9971400 115.3640632  30.5848708  51.7732615
 115.1002921  29.3989581  52.6765431 109.4313494  33.4548864  39.7301483
 109.5987896  34.3229100  40.0971954 109.2410663  33.6176146  38.8062772
 112.1888827  41.9165843  51.3967313 111.8889550  42.8190882  51.2883120
 111.8439886  41.6498026  52.2488466 105.6401308  38.3679640  47.4304017
 104.7151805  38.2355854  47.6381709 105.8885721  39.1473859  47.9273960
 115.5885971  34.4348383  49.0764750 114.6802848  34.3663791  48.7823511
 115.5373566  34.9120328  49.9046576 109.4102714  35.9106521  40.7148149
 109.2902340  36.3563572  41.5533630 108.7155303  36.2591839  40.1561688
 103.0010119  38.0112913  48.2647806 103.1302500  38.2647392  49.1787218
 102.3207571  38.6040621  47.9452461 107.1709607  48.6810163  44.3638281
 107.0933636  49.6317988  44.4426761 106.5671250  48.3356036  45.0213207
 109.6626836  35.8538029  57.0199648 108.8860170  36.4131949  57.0102512
 110.3017399  36.3394812  57.5414518 117.4547617  32.6364821  50.8542624
 116.8121997  32.9297355  50.2082419 116.9502545  32.5217742  51.6595821
 115.1087781  36.3827995  41.5428483 116.0205637  36.6155381  41.3676181
 114.5997428  36.9665039  40.9803562 107.9173209  38.6623482  56.5817615
 108.6587893  39.2008526  56.3052438 107.2110194  39.2889771  56.7389166
 113.3928548  40.8052622  55.1789776 113.8011904  40.3635033  54.4344408
 112.6705810  40.2305250  55.4323969 109.7459618  35.7425229  52.5523333
 110.5920814  36.1664643  52.6957982 109.6858256  35.0858854  53.2461896
 113.7157363  41.3653813  48.9342065 113.0866225  41.5299527  48.2318133
 113.3283025  41.7795423  49.7053029 117.5946595  42.3008251  46.2886429
 116.9097633  42.6807152  45.7383462 117.6790444  42.9103578  47.0218376
 112.8959064  33.4029598  54.2104507 112.6519996  34.1571658  53.6738782
 113.1718994  33.7814945  55.0451754 114.8497526  39.9468210  52.8881772
 115.0614422  40.5899970  52.2116153 114.8027275  39.1130527  52.4203702
 112.4523755  32.5586031  49.7918344 111.5908234  32.8567284  50.0835082
 112.4786190  32.7756429  48.8599377 109.2685325  41.1028221  46.1992150
 109.7323670  41.3815924  45.4096772 109.0042123  40.2011666  46.0165241
 106.1609406  40.6499703  49.1371913 106.7310763  41.0786971  48.4989398
 106.7517518  40.3682287  49.8356099 108.2054211  37.2251374  43.0081715
 108.9078254  37.6772417  43.4755641 107.8734839  36.5835192  43.6361608
 106.6534572  35.8163130  57.3832924 106.0233233  36.4979411  57.6168321
 106.5470660  35.7046212  56.4386063 101.9479545  35.4834926  48.3098849
 101.1578599  35.7392455  47.8338959 102.4390792  36.2983264  48.4150889
 115.9643354  42.8240165  51.0604130 116.7860798  42.4220353  50.7786811
 115.9605757  42.7208400  52.0120245 103.8994290  35.8479505  45.2682325
 103.1025453  35.9598200  45.7865821 103.6719882  36.1866158  44.4023216
 109.7299958  42.3724209  53.2164840 109.7944390  42.8344616  54.0523012
 109.0210882  41.7421574  53.3447150 100.2317248  35.7365417  50.7413839
 100.4825286  36.6212427  51.0071415 100.7676796  35.5570018  49.9688931
 109.4447975  44.0392316  43.0843820 109.3093650  44.8843852  43.5128668
 109.9857788  44.2411594  42.3209754 105.9315315  30.1183896  59.7458176
 105.5382261  29.5650095  60.4205820 106.7481455  30.4294474  60.1364693
 102.8977373  41.5567754  43.6571745 103.4101893  42.3511004  43.8077310
 103.5500086  40.8594045  43.5905347 104.7072258  44.6733510  45.7394499
 104.8838886  45.5951475  45.5515482 105.5029091  44.3591930  46.1688878
 108.8483276  31.5341775  57.3378432 109.5892989  32.1348928  57.2582895
 109.0801199  30.7919413  56.7796475 103.9924614  36.7198142  55.6156662
 103.8778129  35.8183400  55.9163761 103.1369132  36.9661839  55.2641478
 111.0716452  44.6615883  57.2144162 110.6280306  43.8752261  56.8965067
 111.7333665  44.8495033  56.5488053 105.8303573  46.1911684  51.7404841
 106.3810998  46.0628748  50.9681835 104.9915049  46.4906573  51.3899734
 113.1697690  44.9418683  55.2425564 113.1516165  45.7627564  54.7505833
 114.0917610  44.8172758  55.4675705 109.6270744  42.4562812  56.0849072
 110.1599081  41.6951100  55.8548380 109.0984825  42.1636464  56.8273227
 112.7940439  27.5622878  51.6142714 112.4504708  28.4524520  51.5381824
 113.1619402  27.3724536  50.7512299 100.8626290  39.8856408  44.4331316
 101.7001512  40.2953417  44.2165024 101.0404557  38.9455851  44.4031510
 112.7590722  37.5531489  40.1215149 112.2437345  38.3236094  40.3603536
 112.4868030  36.8796625  40.7448210 110.3437833  32.3981190  45.1800387
 109.4879429  32.0088040  45.0006026 110.7564785  32.4773151  44.3200173
 111.8736979  29.9327533  49.5791947 111.3701775  29.8957668  48.7659752
 112.1667586  30.8420276  49.6388604 108.1179865  30.0166263  48.5858129
 108.9832862  29.8209072  48.2264018 108.1857374  29.7876615  49.5127486
 117.7324996  40.3063844  42.0568322 116.9554439  39.9675003  41.6123484
 118.4116477  40.3116467  41.3823287 112.5477025  35.4258581  41.9474930
 112.2427161  35.7404730  42.7985073 113.5007467  35.5040001  41.9902263
 110.9923457  41.5848805  43.5967884 110.4644818  40.8501564  43.2841122
 110.4910960  42.3623481  43.3507852 115.9716303  39.7797825  48.7134930
 115.3139977  40.4697086  48.8015059 116.7756702  40.1694257  49.0568917
 105.7242184  32.2468471  45.9574496 106.2985936  32.0243652  45.2247689
 106.3113167  32.3157165  46.7103097 114.7821762  38.1342198  46.7638872
 115.2953643  38.7672190  47.2660582 115.4322985  37.5343393  46.3982232
 106.0511771  34.2772932  39.9770381 105.2149084  34.6147618  40.2979656
 105.9116541  34.1421912  39.0397518 108.0264852  29.1209720  44.6849565
 107.3729264  28.8058737  44.0606180 107.9845326  28.4985460  45.4109388
 109.1376057  39.4029015  36.6002857 108.2303119  39.1718268  36.7994006
 109.6347089  38.6066634  36.7876839 112.0444136  48.1126522  39.5199543
 111.3705835  48.4158219  40.1284501 112.4309958  48.9155602  39.1705000
 111.2602592  35.6091653  49.0097213 110.3425154  35.8306600  48.8518901
 111.6762736  35.6837964  48.1508920 112.0437640  37.0083069  44.1399893
 112.7909459  37.5204466  43.8307015 112.3129230  36.6867122  45.0004286
 110.3164290  39.5041610  41.1226847 109.4075510  39.2200643  41.2199317
 110.3459374  39.9240688  40.2630154 115.5483558  43.1148199  44.8918015
 115.0945885  42.2739109  44.9483205 114.9177525  43.7509598  45.2292795
 114.4916477  34.0440185  46.1218682 113.7539234  33.5317571  46.4528925
 114.7443251  33.6040567  45.3101959 113.9916497  44.9524696  45.8267833
 114.2839471  45.5129753  45.1080199 114.5015118  45.2453257  46.5820992
 114.5928105  26.8216437  46.7160451 114.8986982  25.9613801  46.4286367
 115.3180710  27.4134057  46.5159445 100.8852461  37.2247124  45.1042049
 100.6876861  36.6316485  44.3793116 100.3299125  36.9199334  45.8217988
 108.8649184  37.1170230  47.2236643 108.9197794  36.1644067  47.1479119
 108.0540386  37.2729669  47.7077941 110.0140378  41.0450353  38.4614926
 109.5759808  40.3286212  38.0020563 110.7550819  41.2726468  37.9000017
 106.8041544  35.7347290  44.9827021 105.9909410  36.0341461  45.3892214
 107.3000539  35.3402979  45.7001504 108.9550122  45.7305047  46.9161286
 108.9126301  45.9565893  45.9869818 109.8712821  45.4968422  47.0647087
 112.4015756  36.1989115  53.8141915 112.7565144  36.4260588  54.6736381
 113.0487887  36.5307491  53.1919171 118.1313493  39.3207550  44.5191244
 117.9931392  39.5109146  43.5912434 117.7749712  40.0826933  44.9759295
 106.2955619  33.3065646  50.5988256 106.9354998  33.1654405  49.9011220
 105.4633150  33.0200159  50.2226858 118.1582873  41.3884077  49.5302516
 118.5919379  41.2959367  50.3785570 118.8714453  41.3641578  48.8922532
 107.0715923  42.6068076  46.7123249 107.8656522  42.1118396  46.5105824
 106.3607615  42.0785939  46.3490954 111.8910767  44.9886172  51.0635616
 111.9447790  45.5577108  51.8313332 111.0225549  45.1588057  50.6989654
 103.3798686  36.7511158  42.7883002 102.4496275  36.6895613  43.0052964
 103.4756158  36.2287110  41.9919643 103.2984236  33.2765971  45.3761243
 103.5591053  34.1911304  45.2670404 104.1201408  32.8090413  45.5257856
 104.7709161  34.6903728  52.5460068 105.4432214  34.4821090  51.8972717
 103.9438947  34.4925814  52.1065300 119.0198422  41.4307778  52.0635401
 119.2134312  42.3353589  52.3094676 118.9199040  40.9715197  52.8973986
 110.6734733  31.3165669  54.5625729 110.0262648  32.0155618  54.4690205
 111.4435748  31.7501813  54.9301977 114.0813531  41.5814521  57.6376282
 113.9299037  41.3525072  56.7206366 114.0718210  42.5385122  57.6507627
 110.8498867  39.1546434  52.6222548 111.7790927  39.3057593  52.4491516
 110.4289897  39.2430454  51.7671195 109.6487199  43.1797098  50.3921086
 109.5098285  42.8115882  51.2647024 108.8601795  43.6944737  50.2205044
 110.2435351  48.2806194  41.7346622 110.4187107  47.8094238  42.5492245
 109.5568139  48.9071961  41.9627883 111.1992414  42.5578701  47.7809924
 110.8642247  42.5179471  48.6767574 110.6996360  41.8923417  47.3080334
 105.1736658  37.9646331  53.3062505 105.0356456  37.2326570  53.9074044
 106.0841582  37.8755231  53.0246693 114.1351606  39.9034735  38.0546983
 113.5180776  39.1781563  37.9580036 113.6668094  40.6644095  37.7114058
 107.8018959  37.6766290  52.7946185 108.5118577  37.0359482  52.7532803
 107.7588267  37.9279185  53.7172365 115.7905737  44.6133643  55.7152764
 115.7318284  43.9292863  55.0483347 116.1925256  45.3552633  55.2633390
 106.5147893  34.6631508  54.6141824 105.9785250  34.2122246  55.2663420
 105.9264601  34.7977417  53.8712288 104.8096436  51.4295557  48.5086483
 105.0493035  52.0614081  49.1865501 103.9665633  51.0783597  48.7951842
 105.9250152  34.1220159  37.1768288 105.0479618  34.0008960  36.8130534
 106.4007905  33.3306238  36.9247176 115.7923145  42.5773227  53.9466743
 114.9049924  42.2399149  54.0693142 116.3621696  41.8456259  54.1835509
  97.4452292  38.9097319  47.2709795  98.1323332  38.5959049  46.6830810
  97.2900421  39.8138684  46.9977046 102.2487014  33.7987516  51.6994818
 102.1645203  33.1913185  50.9645228 101.4269720  34.2896534  51.7004315
 109.3224298  47.2374680  50.9127987 109.2494470  48.0429651  51.4247291
 108.8801691  47.4366645  50.0876008 109.1114078  46.4746450  44.4230808
 108.3281600  47.0168130  44.5169033 109.8106823  46.9920429  44.8225049
 112.4210728  32.2841079  47.0665014 112.9179427  31.5311041  46.7466084
 111.6497709  32.3205396  46.5008223 120.2740485  37.9881445  48.7083305
 120.2630362  38.8706160  48.3377238 119.4057865  37.6352995  48.5137842
 111.7822982  47.1361514  53.0686145 112.4950954  47.7708978  52.9962047
 111.2913010  47.2325380  52.2526147 113.5040509  41.0412766  44.6403437
 112.5696787  41.1614229  44.4708141 113.6817177  40.1385233  44.3763447
 109.0045697  34.4258462  46.7936698 108.6343484  33.8729503  47.4817604
 109.5004789  33.8216596  46.2411698 116.8913060  36.8830086  45.1753471
 117.3573512  37.7158077  45.1013774 117.3420560  36.4175067  45.8798730
 106.8334895  44.8855957  53.8891716 107.5344355  45.5192440  54.0421110
 106.3630010  45.2270689  53.1287355 114.9589291  43.2273907  42.1739623
 115.2349135  43.1130502  43.0833497 114.0893790  42.8291392  42.1351796
 114.8629723  29.2510673  49.2144372 113.9492802  29.4814899  49.3826579
 115.2922824  29.3349117  50.0658405 114.6336181  37.4400565  51.7144266
 113.9807631  37.6876472  51.0596719 115.0116561  36.6264703  51.3806744
 111.5943355  47.4760258  45.8172437 111.7765750  46.6581914  46.2800189
 112.4176341  47.6927950  45.3797327 111.9285521  46.4028443  43.0787485
 112.4573287  45.8920897  42.4657647 112.1913740  46.0870973  43.9433018
 110.6823754  38.1820376  58.2010304 110.0064391  38.0814505  58.8712679
 111.5051388  38.0259589  58.6646301 102.4302613  44.4192312  50.8222819
 103.0156050  43.6736000  50.9550723 102.2327452  44.7296269  51.7059483
 105.2841268  47.4543560  45.8385261 104.6151644  47.9389687  45.3549301
 105.1454138  47.7012780  46.7528640 109.4246537  49.4887303  52.4367920
 109.9764845  49.6518925  53.2017005 109.7652731  50.0791741  51.7647944
 104.4011030  31.8362453  53.0389804 104.4652357  32.6977284  52.6267202
 104.3378151  31.2236455  52.3062163 103.8763303  33.9085585  56.6862838
 104.5035342  33.5262663  57.3000363 103.0191222  33.6899787  57.0518531
 114.2757411  44.3148561  58.2916574 114.8197315  44.9278519  57.7971529
 113.6944256  44.8728139  58.8083587 100.6528846  35.7162015  42.6181193
 100.9482287  34.8072693  42.5648247  99.7516881  35.6949754  42.2962196
 112.5614924  47.4369279  49.4231602 112.4366064  46.6359018  48.9142547
 113.2194015  47.9315472  48.9345572 104.1823093  33.7918011  48.6008742
 103.4609678  34.4053979  48.4616215 104.9716348  34.3275776  48.5225388
 114.6249833  45.2378299  51.0511152 113.6780168  45.1183650  50.9789478
 114.9732606  44.3500797  51.1337413 106.9849406  31.1272438  54.8749394
 107.5083808  31.3734734  55.6375703 106.7661739  31.9592472  54.4552531
 102.3816687  33.3976112  42.7420518 102.0529393  32.5173491  42.5595624
 102.7356058  33.3423781  43.6296908 111.6296266  45.0331015  47.2515504
 111.4821228  44.1047722  47.4323074 112.4549760  45.0551106  46.7672579
 105.4958510  33.6849082  43.1095996 105.8354583  34.2135003  42.3874604
 105.9430631  34.0229488  43.8854563 115.2330388  45.8559574  48.3380377
 116.1576935  45.6502435  48.2004828 115.0645691  45.6075975  49.2469718
 108.1901951  32.0686133  52.5599064 107.8498771  31.2693946  52.9619744
 107.4840957  32.3687844  51.9875897 108.8418423  29.1535445  51.0126387
 109.6644492  28.6795923  50.8905278 109.0856486  29.9325929  51.5125073
 107.4826657  32.1823704  41.3089289 108.2035020  32.5604956  40.8053006
 106.8591962  32.9012580  41.4124267 111.6257780  32.8868853  42.2447621
 111.8421395  33.7693490  41.9436449 111.1451847  32.4955066  41.5153263
 106.3657002  35.8454566  48.8218366 106.2201582  36.1594869  49.7142647
 105.8882205  36.4639466  48.2689264 108.2253385  32.8357114  48.8699255
 108.2114953  31.9398207  48.5331553 108.9425813  32.8427778  49.5037541
 110.0779515  33.2694454  50.9152383 109.8197293  34.1911525  50.9136713
 109.5464556  32.8724889  51.6052847 115.0225704  46.3745241  43.6942468
 115.1962582  45.8091664  42.9416321 115.5154595  47.1746136  43.5121958
 100.8402664  38.3859910  51.7606027 100.2956132  39.1619718  51.8926301
 101.7182014  38.7330715  51.6025148 107.6290281  31.7171494  44.1386826
 107.7506192  30.7888140  44.3377713 107.3392323  31.7310180  43.2265141
 110.4981471  29.4026404  47.2753545 110.5203168  29.4665738  46.3205525
 110.9149530  28.5630913  47.4694052 120.8765095  39.1381664  45.3132768
 121.3196241  38.3888989  44.9151891 119.9991606  39.1291800  44.9306500
 116.0100877  45.6912006  40.7939366 116.7051781  46.3118698  41.0126681
 116.3524027  44.8407357  41.0691744 101.6268686  37.5129806  54.6536184
 100.8850422  37.6612442  55.2400814 101.3061430  37.7738072  53.7902933
 117.9092300  43.1411711  42.3226697 118.4343624  43.4798984  41.5976017
 117.8214652  42.2058726  42.1389832 109.5712348  47.0545785  54.4516574
 109.8799475  46.8094931  55.3239273 110.3687830  47.2592423  53.9635444
 109.5932960  49.2083694  46.6821950 109.1537951  48.7160073  47.3754807
 110.3441077  48.6656662  46.4414026 102.0725299  45.3995235  46.6846578
 102.8983319  45.0999007  46.3045222 101.7219351  44.6302858  47.1336367
 107.0406833  44.7521703  48.7544252 106.4186842  44.0892408  48.4546480
 107.7111699  44.7782835  48.0717900 100.2733904  43.3181562  47.6435512
  99.4365813  42.8903736  47.4619513 100.2457550  43.5114005  48.5806303
 107.1131360  33.2303491  58.3476758 107.1619516  34.1065614  57.9654528
 107.6553874  32.6880884  57.7748401 117.5986206  43.7744615  57.6277895
 116.8081749  43.7568754  57.0882395 117.3619560  44.3132908  58.3826932
 117.7184081  40.6237081  54.9410624 117.7682086  40.4587088  55.8826147
 117.6098004  39.7564340  54.5508505 106.6020339  43.3025627  42.2302713
 106.7508460  43.9861091  41.5769385 107.4086783  43.2830717  42.7452168
 115.0087843  36.6068009  56.2569930 115.9097706  36.4674474  55.9653928
 115.0835818  36.7722464  57.1968108 109.3430649  33.9834864  55.1023117
 108.4733958  34.2768430  54.8305705 109.5790129  34.5675309  55.8230380
 119.2202278  43.0434023  55.1852645 118.9287086  43.4064003  56.0216106
 118.6074409  42.3301031  55.0065977 120.4197960  40.6086902  47.7055215
 121.2544851  41.0476706  47.8692776 120.5557089  40.1325556  46.8863461
 117.4689466  38.1666637  53.6532703 117.9443587  38.3594284  52.8451555
 116.5455031  38.2225823  53.4076087 104.3572972  39.3290804  43.2363782
 104.1119014  38.4253134  43.4343992 104.5268887  39.3307955  42.2943260
 112.0469682  30.2014481  52.6188537 112.5651626  30.9375508  52.2935026
 111.6924815  30.5078474  53.4535296 103.6268620  35.0619162  40.7349943
 102.9337865  35.1363517  40.0789979 103.3820372  34.2979506  41.2571460
 112.2982277  26.6214763  48.1389434 112.5784030  25.9537952  48.7649860
 113.0832883  26.8143859  47.6264098 110.1015745  45.7973757  39.7014460
 109.5289712  46.4163944  39.2484932 110.6748539  46.3473119  40.2354382
 116.1691135  35.0432397  51.8861009 117.1208558  35.1430495  51.9073233
 115.9994585  34.2510666  52.3959093 114.1905514  32.1287980  52.0720410
 113.5955446  32.4092993  51.3766898 113.9055211  32.6181881  52.8437151
 113.3213005  46.0810907  40.8323042 114.2543678  46.0156469  41.0355918
 113.2336218  46.9167174  40.3737575 115.9501021  45.3976778  37.7926990
 115.8714653  45.0636641  38.6862748 116.7710688  45.8898546  37.7918462
 118.6479213  38.2638517  51.0003308 118.6155533  37.3254518  51.1862992
 119.2579836  38.3422554  50.2669133 110.4862544  37.1334570  37.0430513
 111.4321648  37.0040778  37.1118931 110.1076788  36.3949232  37.5199941
 118.7973701  35.0549560  51.0461592 118.2812750  34.2708017  50.8591521
 119.6813650  34.7268277  51.2108111 116.4584428  28.7990576  47.0057404
 116.2609249  28.4905664  47.8900736 117.0684134  29.5252215  47.1355334
 110.3701236  41.1852316  58.5031170 111.2904246  41.3630915  58.6971216
 110.3350819  40.2408361  58.3510869 108.6705461  35.0584546  36.9785398
 107.7636916  34.7617659  37.0548111 108.9481442  34.7614364  36.1119684
  99.5883401  36.3790910  47.4284444  99.2686185  35.5256218  47.1358818
  99.0416829  36.5939488  48.1842411 103.3663309  39.0953351  51.1453951
 103.5849318  40.0270459  51.1641984 103.7789082  38.7361325  51.9308755
 110.2867526  29.6021436  43.1329639 109.4768255  29.2568521  43.5084885
 110.9751943  29.2928980  43.7217251 112.2158075  28.6799483  44.7553936
 112.7689113  29.0994936  45.4143959 112.4528161  27.7535231  44.7976892
 108.2391174  34.6686556  60.5356700 108.1387901  35.6180913  60.4668791
 108.0212716  34.3404795  59.6632770 107.4404245  31.9171482  37.1197377
 108.3023409  32.2426380  37.3793194 107.6254589  31.1302977  36.6070443
  99.4571661  39.9993821  49.3977566  98.7635132  39.5847774  48.8847520
 100.2044652  40.0414358  48.8010985 115.5936882  30.7900008  44.2632600
 115.0135551  31.4484812  43.8810652 115.3272814  29.9677353  43.8520017
 114.0440448  30.1905066  46.4653920 114.5440226  30.3021600  45.6568239
 114.6876056  29.8866119  47.1054729 108.1022444  38.0983695  59.3521761
 107.6189526  38.8984055  59.5585650 108.1883383  38.1091640  58.3989205
 101.3708404  39.9312075  47.2743581 101.3479092  40.0299762  46.3225464
 101.6809040  40.7777226  47.5960747 104.0295781  41.9888230  51.3890195
 104.9839035  41.9572172  51.3220127 103.8308305  41.5278854  52.2040421
 104.6195164  40.5589346  53.9560993 105.4388053  41.0533425  53.9795830
 104.8931971  39.6421314  53.9278560 114.3761760  32.9500098  43.3188948
 113.4887615  33.2349749  43.1009143 114.7915749  32.7893862  42.4716225
 117.7276296  32.9746619  47.0343287 118.5036686  33.4643072  47.3067904
 117.0024430  33.4004674  47.4915157 120.1648855  33.6874239  48.0917228
 120.7593345  33.4469975  47.3810536 120.2375438  32.9681369  48.7190764
 102.3846010  47.5307850  48.4060393 102.2500478  46.7708250  47.8398391
 101.9678073  48.2548749  47.9389182 113.5204973  42.7144773  37.4136968
 114.2240823  42.9194776  38.0294624 112.7967622  43.2821535  37.6786052
 114.3502784  38.4654634  43.5339238 114.2937985  38.9223186  42.6946871
 114.9031126  37.7045319  43.3562081 118.1607589  34.2544366  44.3589358
 117.9044524  33.8541002  45.1897566 117.5360457  34.9688160  44.2339497
 122.4719927  36.9940439  46.8660649 121.9119485  37.0633629  47.6392211
 121.8663431  36.8181424  46.1460146 105.5415136  48.4277167  48.6178836
 105.4247520  49.3722599  48.5157526 104.7207582  48.1250728  49.0064635
 115.4291671  43.1527302  39.4635428 116.2637275  42.7208501  39.2812903
 115.2676014  42.9809316  40.3912323 115.0837563  39.6559416  40.8291768
 115.0286367  39.4903687  39.8880212 114.4583618  40.3635448  40.9853957
  99.8730078  34.8927480  54.6553190 100.5188941  34.3826434  55.1440415
  99.6647229  35.6296162  55.2296615 112.3983470  41.9608327  60.1545330
 113.2674630  42.1348980  59.7931965 111.9190221  42.7802744  60.0321060
 108.3933688  29.1567525  40.4077086 108.3812358  30.1009364  40.5645357
 109.2857110  28.9737670  40.1136547 106.5669650  49.0805428  51.8334764
 107.4696897  49.1129039  52.1501259 106.3407020  48.1505879  51.8481100
 108.3223252  47.8336415  48.4944843 107.3718883  47.8338277  48.3809215
 108.6255738  47.0869150  47.9780877 112.2085808  25.7510301  44.6623023
 111.4418204  25.1968788  44.8079705 112.6196513  25.8232170  45.5237174
 104.2127569  32.0395097  58.7528204 105.0759030  31.6831902  58.9631529
 103.6392979  31.7008992  59.4403608 120.8665652  53.6224381  49.4952130
 120.5284164  53.5065446  48.6072665 121.7355420  53.2215547  49.4753136
 116.7252468  55.4759858  45.4849021 116.1617333  55.3849795  44.7165308
 116.6104863  54.6559762  45.9651513 121.3485435  54.7759233  55.4538335
 121.3374076  54.3812031  54.5818839 121.5106075  54.0425306  56.0472107
 114.2716900  56.9711049  48.3233241 115.0638192  56.6301874  47.9079540
 114.5113550  57.0806025  49.2435394 116.2307654  56.2319963  41.1950620
 117.0038530  55.6848950  41.0563496 116.5833052  57.0964212  41.4065081
 118.0692696  57.5596345  54.4017519 117.7782562  58.4641976  54.2864186
 118.7049681  57.6012873  55.1161589 118.9948903  54.9373194  50.9918879
 119.5912475  54.7129216  50.2775842 119.0523875  54.1957939  51.5944327
 118.5673931  52.3912629  38.8269070 118.8199452  51.8694150  38.0652533
 117.6298491  52.2278774  38.9295753 118.2870220  54.2940735  41.0293445
 118.1706478  53.6185638  41.6974529 118.3972480  53.8073109  40.2125598
 120.6301761  53.7550882  44.7340134 120.2659968  53.2281503  45.4453055
 121.4868877  53.3649351  44.5606619 120.2707248  48.7840782  39.7301483
 120.4381650  49.6521018  40.0971954 120.0804417  48.9468063  38.8062772
 116.4795063  53.6971557  47.4304017 115.5545559  53.5647771  47.6381709
 116.7279476  54.4765777  47.9273960 120.2496469  51.2398439  40.7148149
 120.1296094  51.6855490  41.5533630 119.5549057  51.5883757  40.1561688
 113.8403874  53.3404831  48.2647806 113.9696255  53.5939310  49.1787218
 113.1601325  53.9332539  47.9452461 118.0103361  64.0102081  44.3638281
 117.9327391  64.9609906  44.4426761 117.4065005  63.6647953  45.0213207
 120.5020591  51.1829946  57.0199648 119.7253925  51.7423866  57.0102512
 121.1411154  51.6686729  57.5414518 118.7566963  53.9915400  56.5817615
 119.4981648  54.5300444  56.3052438 118.0503949  54.6181688  56.7389166
 120.5853373  51.0717147  52.5523333 121.4314568  51.4956560  52.6957982
 120.5252010  50.4150771  53.2461896 120.1079079  56.4320139  46.1992150
 120.5717425  56.7107842  45.4096772 119.8435877  55.5303583  46.0165241
 117.0003160  55.9791620  49.1371913 117.5704517  56.4078889  48.4989398
 117.5911272  55.6974205  49.8356099 119.0447965  52.5543291  43.0081715
 119.7472009  53.0064335  43.4755641 118.7128594  51.9127110  43.6361608
 117.4928327  51.1455048  57.3832924 116.8626987  51.8271329  57.6168321
 117.3864415  51.0338129  56.4386063 112.7873299  50.8126844  48.3098849
 111.9972353  51.0684372  47.8338959 113.2784547  51.6275182  48.4150889
 114.7388045  51.1771423  45.2682325 113.9419208  51.2890117  45.7865821
 114.5113637  51.5158075  44.4023216 120.5693712  57.7016126  53.2164840
 120.6338145  58.1636534  54.0523012 119.8604636  57.0713491  53.3447150
 111.0711002  51.0657334  50.7413839 111.3219041  51.9504344  51.0071415
 111.6070551  50.8861936  49.9688931 120.2841730  59.3684234  43.0843820
 120.1487405  60.2135770  43.5128668 120.8251542  59.5703511  42.3209754
 116.7709070  45.4475814  59.7458176 116.3776015  44.8942012  60.4205820
 117.5875210  45.7586392  60.1364693 113.7371127  56.8859672  43.6571745
 114.2495648  57.6802922  43.8077310 114.3893840  56.1885962  43.5905347
 115.5466012  60.0025428  45.7394499 115.7232640  60.9243393  45.5515482
 116.3422846  59.6883847  46.1688878 119.6877031  46.8633693  57.3378432
 120.4286744  47.4640846  57.2582895 119.9194953  46.1211331  56.7796475
 114.8318369  52.0490060  55.6156662 114.7171884  51.1475317  55.9163761
 113.9762886  52.2953757  55.2641478 116.6697328  61.5203602  51.7404841
 117.2204753  61.3920665  50.9681835 115.8308803  61.8198491  51.3899734
 120.4664499  57.7854730  56.0849072 120.9992835  57.0243018  55.8548380
 119.9378580  57.4928382  56.8273227 111.7020044  55.2148326  44.4331316
 112.5395266  55.6245335  44.2165024 111.8798312  54.2747768  44.4031510
 121.1831587  47.7273108  45.1800387 120.3273184  47.3379958  45.0006026
 121.5958539  47.8065068  44.3200173 118.9573620  45.3458181  48.5858129
 119.8226617  45.1500989  48.2264018 119.0251129  45.1168532  49.5127486
 121.8317211  56.9140722  43.5967884 121.3038573  56.1793482  43.2841122
 121.3304714  57.6915399  43.3507852 116.5635939  47.5760389  45.9574496
 117.1379691  47.3535570  45.2247689 117.1506921  47.6449083  46.7103097
 116.8905526  49.6064850  39.9770381 116.0542838  49.9439536  40.2979656
 116.7510296  49.4713829  39.0397518 118.8658607  44.4501637  44.6849565
 118.2123019  44.1350655  44.0606180 118.8239081  43.8277378  45.4109388
 119.9769811  54.7320932  36.6002857 119.0696873  54.5010186  36.7994006
 120.4740843  53.9358552  36.7876839 121.1558045  54.8333527  41.1226847
 120.2469264  54.5492560  41.2199317 121.1853129  55.2532606  40.2630154
 111.7246215  52.5539041  45.1042049 111.5270615  51.9608402  44.3793116
 111.1692879  52.2491252  45.8217988 119.7042939  52.4462148  47.2236643
 119.7591549  51.4935984  47.1479119 118.8934141  52.6021587  47.7077941
 120.8534133  56.3742271  38.4614926 120.4153563  55.6578130  38.0020563
 121.5944574  56.6018386  37.9000017 117.6435299  51.0639208  44.9827021
 116.8303164  51.3633378  45.3892214 118.1394293  50.6694896  45.7001504
 119.7943877  61.0596965  46.9161286 119.7520056  61.2857811  45.9869818
 120.7106576  60.8260339  47.0647087 117.1349374  48.6357563  50.5988256
 117.7748753  48.4946322  49.9011220 116.3026904  48.3492077  50.2226858
 117.9109678  57.9359994  46.7123249 118.7050276  57.4410314  46.5105824
 117.2001370  57.4077857  46.3490954 114.2192441  52.0803075  42.7883002
 113.2890029  52.0187531  43.0052964 114.3149913  51.5579028  41.9919643
 114.1377990  48.6057888  45.3761243 114.3984807  49.5203221  45.2670404
 114.9595162  48.1382331  45.5257856 115.6102915  50.0195645  52.5460068
 116.2825969  49.8113008  51.8972717 114.7832702  49.8217731  52.1065300
 121.5128487  46.6457586  54.5625729 120.8656402  47.3447536  54.4690205
 122.2829503  47.0793730  54.9301977 120.4880954  58.5089016  50.3921086
 120.3492039  58.1407800  51.2647024 119.6995550  59.0236655  50.2205044
 121.0829105  63.6098112  41.7346622 121.2580861  63.1386155  42.5492245
 120.3961894  64.2363878  41.9627883 122.0386169  57.8870618  47.7809924
 121.7036001  57.8471388  48.6767574 121.5390114  57.2215334  47.3080334
 116.0130413  53.2938248  53.3062505 115.8750211  52.5618487  53.9074044
 116.9235336  53.2047148  53.0246693 118.6412713  53.0058208  52.7946185
 119.3512332  52.3651400  52.7532803 118.5982021  53.2571103  53.7172365
 117.3541647  49.9923426  54.6141824 116.8179004  49.5414164  55.2663420
 116.7658356  50.1269334  53.8712288 115.6490191  66.7587475  48.5086483
 115.8886789  67.3905999  49.1865501 114.8059387  66.4075515  48.7951842
 116.7643906  49.4512077  37.1768288 115.8873373  49.3300878  36.8130534
 117.2401659  48.6598155  36.9247176 108.2846046  54.2389237  47.2709795
 108.9717086  53.9250967  46.6830810 108.1294175  55.1430601  46.9977046
 113.0880768  49.1279433  51.6994818 113.0038957  48.5205103  50.9645228
 112.2663475  49.6188452  51.7004315 120.1618053  62.5666597  50.9127987
 120.0888224  63.3721569  51.4247291 119.7195446  62.7658563  50.0876008
 119.9507832  61.8038367  44.4230808 119.1675354  62.3460048  44.5169033
 120.6500577  62.3212347  44.8225049 119.8439451  49.7550380  46.7936698
 119.4737239  49.2021420  47.4817604 120.3398544  49.1508513  46.2411698
 117.6728650  60.2147875  53.8891716 118.3738109  60.8484358  54.0421110
 117.2023765  60.5562606  53.1287355 121.5217509  53.5112293  58.2010304
 120.8458146  53.4106423  58.8712679 122.3445143  53.3551507  58.6646301
 113.2696368  59.7484230  50.8222819 113.8549805  59.0027918  50.9550723
 113.0721206  60.0588187  51.7059483 116.1235023  62.7835477  45.8385261
 115.4545398  63.2681605  45.3549301 115.9847893  63.0304698  46.7528640
 107.8614022  52.3189830  49.5427262 107.8998122  51.7853421  50.3364380
 107.3554315  51.7925036  48.9238239 120.2640292  64.8179221  52.4367920
 120.8158600  64.9810842  53.2017005 120.6046485  65.4083659  51.7647944
 115.2404785  47.1654371  53.0389804 115.3046111  48.0269201  52.6267202
 115.1771905  46.5528372  52.3062163 114.7157057  49.2377503  56.6862838
 115.3429096  48.8554580  57.3000363 113.8584976  49.0191705  57.0518531
 111.4922600  51.0453932  42.6181193 111.7876041  50.1364611  42.5648247
 110.5910636  51.0241672  42.2962196 115.0216847  49.1209929  48.6008742
 114.3003433  49.7345897  48.4616215 115.8110103  49.6567694  48.5225388
 117.8243161  46.4564355  54.8749394 118.3477562  46.7026652  55.6375703
 117.6055494  47.2884390  54.4552531 113.2210442  48.7268030  42.7420518
 112.8923148  47.8465409  42.5595624 113.5749812  48.6715699  43.6296908
 116.3352265  49.0141000  43.1095996 116.6748337  49.5426921  42.3874604
 116.7824385  49.3521406  43.8854563 119.0295706  47.3978050  52.5599064
 118.6892526  46.5985863  52.9619744 118.3234712  47.6979761  51.9875897
 119.6812177  44.4827363  51.0126387 120.5038247  44.0087841  50.8905278
 119.9250241  45.2617847  51.5125073 118.3220412  47.5115621  41.3089289
 119.0428774  47.8896874  40.8053006 117.6985716  48.2304498  41.4124267
 117.2050756  51.1746483  48.8218366 117.0595337  51.4886787  49.7142647
 116.7275960  51.7931384  48.2689264 119.0647139  48.1649031  48.8699255
 119.0508708  47.2690125  48.5331553 119.7819567  48.1719695  49.5037541
 120.9173270  48.5986372  50.9152383 120.6591048  49.5203442  50.9136713
 120.3858310  48.2016806  51.6052847 111.6796418  53.7151828  51.7606027
 111.1349886  54.4911636  51.8926301 112.5575768  54.0622632  51.6025148
 118.4684035  47.0463412  44.1386826 118.5899946  46.1180058  44.3377713
 118.1786077  47.0602098  43.2265141 121.3375225  44.7318322  47.2753545
 121.3596922  44.7957655  46.3205525 121.7543284  43.8922831  47.4694052
 112.4662440  52.8421724  54.6536184 111.7244176  52.9904359  55.2400814
 112.1455185  53.1029990  53.7902933 120.4106103  62.3837702  54.4516574
 120.7193229  62.1386849  55.3239273 121.2081585  62.5884341  53.9635444
 120.4326715  64.5375612  46.6821950 119.9931705  64.0451991  47.3754807
 121.1834832  63.9948580  46.4414026 112.9119054  60.7287153  46.6846578
 113.7377074  60.4290925  46.3045222 112.5613106  59.9594775  47.1336367
 117.8800587  60.0813621  48.7544252 117.2580596  59.4184326  48.4546480
 118.5505454  60.1074753  48.0717900 111.1127659  58.6473479  47.6435512
 110.2759567  58.2195654  47.4619513 111.0851304  58.8405923  48.5806303
 117.9525115  48.5595409  58.3476758 118.0013270  49.4357532  57.9654528
 118.4947629  48.0172802  57.7748401 117.4414094  58.6317544  42.2302713
 117.5902214  59.3153009  41.5769385 118.2480537  58.6122634  42.7452168
 120.1824403  49.3126782  55.1023117 119.3127712  49.6060348  54.8305705
 120.4183883  49.8967227  55.8230380 115.1966727  54.6582722  43.2363782
 114.9512769  53.7545052  43.4343992 115.3662642  54.6599873  42.2943260
 114.4662374  50.3911080  40.7349943 113.7731619  50.4655435  40.0789979
 114.2214126  49.6271423  41.2571460 120.9409500  61.1265675  39.7014460
 120.3683467  61.7455862  39.2484932 121.5142293  61.6765037  40.2354382
 121.3256298  52.4626488  37.0430513 122.2715403  52.3332696  37.1118931
 120.9470543  51.7241150  37.5199941 121.2094991  56.5144234  58.5031170
 122.1298000  56.6922833  58.6971216 121.1744574  55.5700279  58.3510869
 119.5099215  50.3876464  36.9785398 118.6030671  50.0909577  37.0548111
 119.7875196  50.0906282  36.1119684 110.4277156  51.7082827  47.4284444
 110.1079940  50.8548136  47.1358818 109.8810584  51.9231406  48.1842411
 114.2057063  54.4245268  51.1453951 114.4243073  55.3562376  51.1641984
 114.6182837  54.0653243  51.9308755 121.1261281  44.9313354  43.1329639
 120.3162009  44.5860439  43.5084885 121.8145698  44.6220897  43.7217251
 119.0784928  49.9978474  60.5356700 118.9781655  50.9472831  60.4668791
 118.8606470  49.6696713  59.6632770 118.2798000  47.2463399  37.1197377
 119.1417164  47.5718298  37.3793194 118.4648344  46.4594895  36.6070443
 110.2965416  55.3285739  49.3977566 109.6028887  54.9139692  48.8847520
 111.0438407  55.3706275  48.8010985 118.9416198  53.4275613  59.3521761
 118.4583280  54.2275973  59.5585650 119.0277138  53.4383558  58.3989205
 112.2102158  55.2603993  47.2743581 112.1872846  55.3591680  46.3225464
 112.5202795  56.1069143  47.5960747 114.8689536  57.3180148  51.3890195
 115.8232789  57.2864090  51.3220127 114.6702060  56.8570771  52.2040421
 115.4588918  55.8881264  53.9560993 116.2781807  56.3825342  53.9795830
 115.7325726  54.9713232  53.9278560 113.2239765  62.8599767  48.4060393
 113.0894233  62.1000168  47.8398391 112.8071827  63.5840667  47.9389182
 116.3808891  63.7569084  48.6178836 116.2641275  64.7014517  48.5157526
 115.5601337  63.4542646  49.0064635 110.7123832  50.2219398  54.6553190
 111.3582696  49.7118352  55.1440415 110.5040983  50.9588079  55.2296615
 119.2327443  44.4859442  40.4077086 119.2206113  45.4301282  40.5645357
 120.1250865  44.3029588  40.1136547 117.4063405  64.4097346  51.8334764
 118.3090651  64.4420956  52.1501259 117.1800775  63.4797797  51.8481100
 119.1617007  63.1628333  48.4944843 118.2112638  63.1630194  48.3809215
 119.4649493  62.4161067  47.9780877 115.0521323  47.3687015  58.7528204
 115.9152785  47.0123820  58.9631529 114.4786734  47.0300910  59.4403608
 121.9104757  66.3949252  50.7413839 122.1612795  67.2796262  51.0071415
 122.4464305  66.2153854  49.9688931 119.1239801  69.5681154  47.2709795
 119.8110841  69.2542884  46.6830810 118.9687930  70.4722519  46.9977046
 118.7007777  67.6481748  49.5427262 118.7391876  67.1145338  50.3364380
 118.1948070  67.1216953  48.9238239 121.9521413  73.9765397  47.6435512
 121.1153322  73.5487571  47.4619513 121.9245059  74.1697840  48.5806303
 121.2670910  67.0374745  47.4284444 120.9473694  66.1840053  47.1358818
 120.7204338  67.2523323  48.1842411 121.1359170  70.6577657  49.3977566
 120.4422641  70.2431609  48.8847520 121.8832161  70.6998193  48.8010985
 121.5517587  65.5511315  54.6553190 122.1976450  65.0410269  55.1440415
 121.3434738  66.2879997  55.2296615  96.3315853  10.3580368  31.0883587
  96.2539883  11.3088193  31.1672068  95.7277497  10.0126241  31.7458514
  93.9702683  13.1065762  35.2331789  94.2099281  13.7384286  35.9110808
  93.1271880  12.7553802  35.5197149  94.4447515   9.1313764  32.5630568
  93.7757891   9.6159892  32.0794608  94.3060385   9.3782985  33.4773946
  98.5852784  11.1657508  39.1613226  99.1371092  11.3289130  39.9262311
  98.9258977  11.7561946  38.4893251  98.7539207  10.8853899  33.4067257
  98.3144197  10.3930278  34.1000114  99.5047324  10.3426867  33.1659332
  91.5452257   9.2078054  35.1305700  91.4106725   8.4478455  34.5643698
  91.1284319   9.9318954  34.6634488  94.7021383  10.1047371  35.3424142
  94.5853767  11.0492804  35.2402832  93.8813829   9.8020933  35.7309941
  95.7275897  10.7575633  38.5580071  96.6303144  10.7899244  38.8746566
  95.5013267   9.8276084  38.5726406 110.0271899  15.2994586  36.2197436
 109.6890410  15.1835651  35.3317971 110.8961667  14.8985751  36.1998442
 105.8858714  17.1530063  32.2094327 105.3223580  17.0620000  31.4410615
 105.7711110  16.3329967  32.6896820 110.5091682  16.4529438  42.1783642
 110.4980323  16.0582236  41.3064146 110.6712321  15.7195511  42.7717413
 103.4323146  18.6481254  35.0478548 104.2244438  18.3072079  34.6324847
 103.6719797  18.7576229  35.9680701 111.4658273  20.8201031  27.5208792
 110.8146253  21.4055111  27.1342806 112.2602636  21.3507225  27.5803830
 105.3913900  17.9090168  27.9195927 106.1644776  17.3619155  27.7808802
 105.7439299  18.7734417  28.1310388 107.2298943  19.2366550  41.1262826
 106.9388809  20.1412181  41.0109492 107.8655927  19.2783078  41.8406895
 108.1555150  16.6143398  37.7164186 108.7518722  16.3899421  37.0021148
 108.2130121  15.8728144  38.3189633 107.4476467  15.9710940  27.7538751
 107.3312725  15.2955843  28.4219836 107.5578727  15.4843314  26.9370904
 109.7908008  15.4321087  31.4585441 109.4266215  14.9051708  32.1698362
 110.6475124  15.0419556  31.2851926 112.1888828  18.9227965  38.1212620
 111.8889551  19.8253004  38.0128427 111.8439888  18.6560149  38.9733772
 105.6401309  15.3741762  34.1549324 104.7151806  15.2417976  34.3627016
 105.8885723  16.1535982  34.6519266 103.0010121  15.0175036  34.9893113
 103.1302502  15.2709515  35.9032525 102.3207572  15.6102744  34.6697768
 107.1709608  25.6872286  31.0883587 107.0933638  26.6380111  31.1672068
 106.5671251  25.3418158  31.7458514 107.9173210  15.6685605  43.3062921
 108.6587894  16.2070649  43.0297745 107.2110195  16.2951893  43.4634473
 113.3928550  17.8114745  41.9035083 113.8011906  17.3697156  41.1589715
 112.6705811  17.2367373  42.1569276 113.7157364  18.3715936  35.6587372
 113.0866227  18.5361650  34.9563439 113.3283026  18.7857545  36.4298336
 117.5946596  19.3070374  33.0131735 116.9097634  19.6869275  32.4628769
 117.6790445  19.9165700  33.7463683 114.8497528  16.9530333  39.6127079
 115.0614423  17.5962092  38.9361460 114.8027276  16.1192649  39.1449009
 109.2685326  18.1090344  32.9237457 109.7323672  18.3878047  32.1342079
 109.0042124  17.2073788  32.7410547 106.1609407  17.6561825  35.8617220
 106.7310764  18.0849094  35.2234704 106.7517519  17.3744410  36.5601406
 108.2054212  14.2313496  29.7327022 108.9078255  14.6834540  30.2000948
 107.8734841  13.5897315  30.3606915 106.6534574  12.8225253  44.1078231
 106.0233234  13.5041534  44.3413628 106.5470662  12.7108334  43.1631369
 101.9479546  12.4897049  35.0344155 101.1578600  12.7454577  34.5584266
 102.4390793  13.3045387  35.1396196 115.9643356  19.8302288  37.7849436
 116.7860799  19.4282475  37.5032118 115.9605758  19.7270522  38.7365552
 103.8994291  12.8541628  31.9927632 103.1025455  12.9660322  32.5111128
 103.6719884  13.1928280  31.1268523 109.7299959  19.3786331  39.9410147
 109.7944392  19.8406738  40.7768318 109.0210883  18.7483696  40.0692456
 100.2317249  12.7427539  37.4659146 100.4825287  13.6274549  37.7316722
 100.7676797  12.5632141  36.6934238 109.4447977  21.0454439  29.8089127
 109.3093652  21.8905974  30.2373975 109.9857789  21.2473716  29.0455061
 102.8977374  18.5629877  30.3817052 103.4101895  19.3573127  30.5322617
 103.5500087  17.8656167  30.3150654 104.7072259  21.6795633  32.4639805
 104.8838887  22.6013598  32.2760789 105.5029092  21.3654052  32.8934185
 103.9924615  13.7260265  42.3401968 103.8778131  12.8245522  42.6409067
 103.1369133  13.9723962  41.9886785 111.0716453  21.6678005  43.9389469
 110.6280307  20.8814384  43.6210374 111.7333667  21.8557156  43.2733360
 105.8303574  23.1973807  38.4650148 106.3810999  23.0690870  37.6927141
 104.9915050  23.4968696  38.1145040 113.1697691  21.9480805  41.9670870
 113.1516167  22.7689686  41.4751139 114.0917611  21.8234880  42.1921011
 109.6270745  19.4624935  42.8094379 110.1599082  18.7013223  42.5793687
 109.0984826  19.1698586  43.5518533 100.8626291  16.8918531  31.1576623
 101.7001513  17.3015539  30.9410330 101.0404559  15.9517973  31.1276816
 110.9923458  18.5910927  30.3213191 110.4644820  17.8563687  30.0086428
 110.4910961  19.3685603  30.0753159 115.9716304  16.7859948  35.4380237
 115.3139978  17.4759209  35.5260366 116.7756703  17.1756380  35.7814223
 112.0444137  25.1188645  26.2444850 111.3705836  25.4220341  26.8529808
 112.4309959  25.9217725  25.8950307 115.5483559  20.1210322  31.6163321
 115.0945886  19.2801232  31.6728512 114.9177526  20.7571720  31.9538102
 113.9916498  21.9586818  32.5513140 114.2839473  22.5191876  31.8325505
 114.5015119  22.2515379  33.3066299 100.8852462  14.2309246  31.8287356
 100.6876862  13.6378607  31.1038423 100.3299126  13.9261457  32.5463295
 108.9550124  22.7367170  33.6406593 108.9126302  22.9628016  32.7115125
 109.8712822  22.5030544  33.7892394 118.1582874  18.3946200  36.2547822
 118.5919381  18.3021489  37.1030877 118.8714455  18.3703700  35.6167838
 107.0715924  19.6130199  33.4368555 107.8656523  19.1180519  33.2351130
 106.3607617  19.0848062  33.0736261 111.8910769  21.9948294  37.7880923
 111.9447791  22.5639230  38.5558639 111.0225550  22.1650179  37.4234960
 103.3798688  13.7573280  29.5128308 102.4496276  13.6957736  29.7298270
 103.4756160  13.2349233  28.7164949 119.0198423  18.4369901  38.7880708
 119.2134313  19.3415711  39.0339983 118.9199042  17.9777320  39.6219293
 114.0813532  18.5876643  44.3621588 113.9299038  18.3587195  43.4451672
 114.0718212  19.5447245  44.3752933 110.8498868  16.1608556  39.3467855
 111.7790928  16.3119716  39.1736822 110.4289899  16.2492577  38.4916501
 109.6487200  20.1859221  37.1166393 109.5098286  19.8178005  37.9892331
 108.8601797  20.7006860  36.9450350 110.2435352  25.2868317  28.4591929
 110.4187108  24.8156360  29.2737552 109.5568140  25.9134083  28.6873190
 111.1992415  19.5640823  34.5055230 110.8642248  19.5241593  35.4012880
 110.6996361  18.8985539  34.0325641 105.1736659  14.9708453  40.0307811
 105.0356457  14.2388692  40.6319351 106.0841583  14.8817353  39.7491999
 107.8018960  14.6828413  39.5191491 108.5118579  14.0421605  39.4778110
 107.7588268  14.9341307  40.4417672 115.7905739  21.6195766  42.4398070
 115.7318285  20.9354986  41.7728653 116.1925257  22.3614756  41.9878696
 104.8096438  28.4357680  35.2331789 105.0493036  29.0676204  35.9110808
 103.9665634  28.0845720  35.5197149 115.7923146  19.5835350  40.6712050
 114.9049925  19.2461272  40.7938449 116.3621697  18.8518381  40.9080815
  97.4452293  15.9159442  33.9955101  98.1323333  15.6021172  33.4076117
  97.2900422  16.8200806  33.7222353 109.3224299  24.2436802  37.6373293
 109.2494471  25.0491774  38.1492598 108.8801693  24.4428768  36.8121315
 109.1114079  23.4808572  31.1476115 108.3281601  24.0230252  31.2414339
 109.8106824  23.9982552  31.5470356 111.7822983  24.1423636  39.7931452
 112.4950955  24.7771101  39.7207353 111.2913012  24.2387502  38.9771454
 113.5040510  18.0474889  31.3648744 112.5696789  18.1676351  31.1953448
 113.6817178  17.1447356  31.1008753 106.8334896  21.8918080  40.6137023
 107.5344356  22.5254563  40.7666417 106.3630011  22.2332811  39.8532662
 111.5943356  24.4822380  32.5417743 111.7765751  23.6644036  33.0045496
 112.4176342  24.6990073  32.1042633 111.9285522  23.4090565  29.8032792
 112.4573288  22.8983020  29.1902954 112.1913741  23.0933096  30.6678325
 110.6823755  15.1882498  44.9255610 110.0064392  15.0876628  45.5957985
 111.5051389  15.0321712  45.3891607 102.4302615  21.4254435  37.5468125
 103.0156051  20.6798123  37.6796030 102.2327453  21.7358391  38.4304789
 105.2841270  24.4605682  32.5630568 104.6151645  24.9451810  32.0794608
 105.1454139  24.7074903  33.4773946  97.0220269  13.9960035  36.2672569
  97.0604369  13.4623626  37.0609687  96.5160562  13.4695241  35.6483546
 109.4246538  26.4949426  39.1613226 109.9764846  26.6581047  39.9262311
 109.7652732  27.0853864  38.4893251 114.2757413  21.3210683  45.0161881
 114.8197317  21.9340641  44.5216835 113.6944257  21.8790262  45.5328894
 100.6528847  12.7224137  29.3426500 100.9482288  11.8134816  29.2893554
  99.7516883  12.7011877  29.0207502 112.5614926  24.4431401  36.1476908
 112.4366065  23.6421141  35.6387854 113.2194017  24.9377595  35.6590878
 114.6249834  22.2440421  37.7756458 113.6780170  22.1245772  37.7034785
 114.9732607  21.3562919  37.8582720 111.6296267  22.0393138  33.9760811
 111.4821230  21.1109845  34.1568381 112.4549761  22.0613228  33.4917886
 115.2330389  22.8621696  35.0625683 116.1576937  22.6564558  34.9250135
 115.0645692  22.6138097  35.9715025 106.3657003  12.8516688  35.5463672
 106.2201584  13.1656991  36.4387954 105.8882207  13.4701589  34.9934571
 115.0225705  23.3807364  30.4187775 115.1962583  22.8153786  29.6661627
 115.5154597  24.1808259  30.2367265 100.8402665  15.3922033  38.4851334
 100.2956133  16.1681841  38.6171608 101.7182015  15.7392837  38.3270455
 101.6268687  14.5191929  41.3781490 100.8850423  14.6674564  41.9646121
 101.3061431  14.7800195  40.5148240 109.5712350  24.0607907  41.1761880
 109.8799476  23.8157054  42.0484580 110.3687832  24.2654546  40.6880751
 109.5932962  26.2145817  33.4067257 109.1537952  25.7222196  34.1000114
 110.3441079  25.6718785  33.1659332 102.0725301  22.4057358  33.4091885
 102.8983321  22.1061130  33.0290529 101.7219353  21.6364980  33.8581674
 107.0406834  21.7583826  35.4789559 106.4186843  21.0954531  35.1791787
 107.7111701  21.7844958  34.7963206 100.2733906  20.3243684  34.3680819
  99.4365814  19.8965859  34.1864820 100.2457551  20.5176128  35.3051610
 117.5986207  20.7806737  44.3523202 116.8081751  20.7630876  43.8127701
 117.3619562  21.3195031  45.1072238 117.7184082  17.6299204  41.6655930
 117.7682087  17.4649211  42.6071453 117.6098005  16.7626463  41.2753811
 106.6020341  20.3087749  28.9548019 106.7508461  20.9923214  28.3014692
 107.4086784  20.2892839  29.4697475 119.2202279  20.0496145  41.9097952
 118.9287087  20.4126126  42.7461413 118.6074410  19.3363153  41.7311284
 104.3572974  16.3352927  29.9609088 104.1119016  15.4315257  30.1589298
 104.5268888  16.3370077  29.0188566 110.1015746  22.8035880  26.4259767
 109.5289713  23.4226067  25.9730239 110.6748540  23.3535241  26.9599689
 113.3213006  23.0873030  27.5568349 114.2543679  23.0218592  27.7601224
 113.2336219  23.9229297  27.0982882 110.3701237  18.1914439  45.2276476
 111.2904247  18.3693038  45.4216523 110.3350820  17.2470484  45.0756175
  99.5883402  13.3853032  34.1529751  99.2686187  12.5318341  33.8604125
  99.0416830  13.6001610  34.9087718 103.3663310  16.1015473  37.8699257
 103.5849320  17.0332581  37.8887291 103.7789084  15.7423448  38.6554061
  99.4571662  17.0055944  36.1222872  98.7635134  16.5909897  35.6092827
 100.2044653  17.0476480  35.5256291 108.1022445  15.1045818  46.0767068
 107.6189527  15.9046178  46.2830957 108.1883384  15.1153763  45.1234512
 101.3708405  16.9374198  33.9988887 101.3479093  17.0361885  33.0470770
 101.6809041  17.7839348  34.3206053 104.0295783  18.9950353  38.1135502
 104.9839036  18.9634295  38.0465433 103.8308306  18.5340976  38.9285728
 104.6195165  17.5651469  40.6806299 105.4388054  18.0595547  40.7041137
 104.8931973  16.6483437  40.6523867 102.3846012  24.5369972  35.1305700
 102.2500479  23.7770373  34.5643698 101.9678074  25.2610872  34.6634488
 105.5415137  25.4339289  35.3424142 105.4247522  26.3784722  35.2402832
 104.7207584  25.1312851  35.7309941  99.8730079  11.8989603  41.3798496
 100.5188943  11.3888557  41.8685722  99.6647230  12.6358284  41.9541922
 112.3983471  18.9670450  46.8790637 113.2674631  19.1411102  46.5177272
 111.9190223  19.7864867  46.7566366 106.5669652  26.0867551  38.5580071
 107.4696898  26.1191161  38.8746566 106.3407022  25.1568002  38.5726406
 108.3223254  24.8398538  35.2190149 107.3718885  24.8400399  35.1054522
 108.6255740  24.0931272  34.7026184 120.8665653  30.6286504  36.2197436
 120.5284165  30.5127569  35.3317971 121.7355421  30.2277669  36.1998442
 116.7252469  32.4821980  32.2094327 116.1617334  32.3911917  31.4410615
 116.6104864  31.6621885  32.6896820 121.3485436  31.7821356  42.1783642
 121.3374077  31.3874154  41.3064146 121.5106076  31.0487428  42.7717413
 114.2716901  33.9773172  35.0478548 115.0638193  33.6363997  34.6324847
 114.5113551  34.0868147  35.9680701 116.2307655  33.2382085  27.9195927
 117.0038531  32.6911072  27.7808802 116.5833054  34.1026335  28.1310388
 118.0692697  34.5658468  41.1262826 117.7782563  35.4704098  41.0109492
 118.7049682  34.6074995  41.8406895 118.9948904  31.9435316  37.7164186
 119.5912477  31.7191339  37.0021148 119.0523876  31.2020062  38.3189633
 118.2870221  31.3002857  27.7538751 118.1706480  30.6247761  28.4219836
 118.3972481  30.8135231  26.9370904 120.6301762  30.7613005  31.4585441
 120.2659970  30.2343625  32.1698362 121.4868878  30.3711474  31.2851926
 116.4795064  30.7033680  34.1549324 115.5545560  30.5709894  34.3627016
 116.7279477  31.4827899  34.6519266 113.8403875  30.3466954  34.9893113
 113.9696256  30.6001432  35.9032525 113.1601326  30.9394662  34.6697768
 118.0103362  41.0164203  31.0883587 117.9327392  41.9672029  31.1672068
 117.4065006  40.6710076  31.7458514 120.5020592  28.1892069  43.7444954
 119.7253926  28.7485989  43.7347819 121.1411155  28.6748852  44.2659824
 118.7566964  30.9977522  43.3062921 119.4981649  31.5362566  43.0297745
 118.0503950  31.6243811  43.4634473 120.5853374  28.0779269  39.2768640
 121.4314569  28.5018683  39.4203289 120.5252012  27.4212894  39.9707203
 120.1079081  33.4382261  32.9237457 120.5717426  33.7169964  32.1342079
 119.8435879  32.5365706  32.7410547 117.0003162  32.9853743  35.8617220
 117.5704519  33.4141011  35.2234704 117.5911273  32.7036328  36.5601406
 119.0447967  29.5605414  29.7327022 119.7472010  30.0126457  30.2000948
 118.7128595  28.9189233  30.3606915 117.4928328  28.1517170  44.1078231
 116.8626989  28.8333451  44.3413628 117.3864416  28.0400252  43.1631369
 112.7873301  27.8188966  35.0344155 111.9972355  28.0746495  34.5584266
 113.2784548  28.6337304  35.1396196 114.7388046  28.1833546  31.9927632
 113.9419209  28.2952240  32.5111128 114.5113638  28.5220198  31.1268523
 120.5693714  34.7078249  39.9410147 120.6338146  35.1698656  40.7768318
 119.8604637  34.0775614  40.0692456 111.0711004  28.0719457  37.4659146
 111.3219042  28.9566467  37.7316722 111.6070552  27.8924058  36.6934238
 120.2841731  36.3746356  29.8089127 120.1487406  37.2197892  30.2373975
 120.8251544  36.5765634  29.0455061 116.7709071  22.4537936  46.4703482
 116.3776016  21.9004135  47.1451126 117.5875211  22.7648515  46.8610000
 113.7371129  33.8921794  30.3817052 114.2495649  34.6865045  30.5322617
 114.3893841  33.1948085  30.3150654 115.5466013  37.0087551  32.4639805
 115.7232642  37.9305515  32.2760789 116.3422847  36.6945970  32.8934185
 119.6877032  23.8695815  44.0623739 120.4286745  24.4702969  43.9828201
 119.9194955  23.1273453  43.5041781 114.8318370  29.0552183  42.3401968
 114.7171885  28.1537440  42.6409067 113.9762888  29.3015879  41.9886785
 116.6697329  38.5265725  38.4650148 117.2204754  38.3982788  37.6927141
 115.8308805  38.8260614  38.1145040 120.4664500  34.7916852  42.8094379
 120.9992837  34.0305141  42.5793687 119.9378581  34.4990504  43.5518533
 111.7020045  32.2210449  31.1576623 112.5395267  32.6307457  30.9410330
 111.8798313  31.2809891  31.1276816 118.9573621  22.3520303  35.3103435
 119.8226618  22.1563112  34.9509325 119.0251130  22.1230655  36.2372792
 121.8317213  33.9202845  30.3213191 121.3038574  33.1855604  30.0086428
 121.3304715  34.6977521  30.0753159 116.5635940  24.5822511  32.6819802
 117.1379692  24.3597693  31.9492995 117.1506923  24.6511206  33.4348404
 111.7246217  29.5601164  31.8287356 111.5270616  28.9670525  31.1038423
 111.1692881  29.2553374  32.5463295 119.7042940  29.4524271  33.9481949
 119.7591550  28.4998107  33.8724426 118.8934142  29.6083710  34.4323248
 117.6435300  28.0701330  31.7072328 116.8303166  28.3695501  32.1137520
 118.1394294  27.6757019  32.4246810 119.7943878  38.0659087  33.6406593
 119.7520057  38.2919934  32.7115125 120.7106577  37.8322462  33.7892394
 117.1349375  25.6419686  37.3233563 117.7748754  25.5008445  36.6256526
 116.3026905  25.3554199  36.9472165 117.9109679  34.9422116  33.4368555
 118.7050277  34.4472436  33.2351130 117.2001371  34.4139979  33.0736261
 114.2192442  29.0865198  29.5128308 113.2890030  29.0249653  29.7298270
 114.3149914  28.5641151  28.7164949 114.1377991  25.6120011  32.1006550
 114.3984809  26.5265344  31.9915710 114.9595164  25.1444453  32.2503163
 115.6102917  27.0257768  39.2705374 116.2825970  26.8175130  38.6218023
 114.7832703  26.8279854  38.8310607 121.5128489  23.6519709  41.2871035
 120.8656404  24.3509659  41.1935512 122.2829504  24.0855853  41.6547283
 120.4880955  35.5151138  37.1166393 120.3492040  35.1469923  37.9892331
 119.6995551  36.0298778  36.9450350 121.0829107  40.6160235  28.4591929
 121.2580862  40.1448278  29.2737552 120.3961895  41.2426001  28.6873190
 122.0386170  34.8932741  34.5055230 121.7036003  34.8533511  35.4012880
 121.5390116  34.2277457  34.0325641 116.0130414  30.3000371  40.0307811
 115.8750212  29.5680610  40.6319351 116.9235337  30.2109271  39.7491999
 118.6412715  30.0120330  39.5191491 119.3512333  29.3713522  39.4778110
 118.5982023  30.2633225  40.4417672 117.3541649  26.9985548  41.3387131
 116.8179006  26.5476287  41.9908727 116.7658357  27.1331457  40.5957595
 115.6490192  43.7649597  35.2331789 115.8886790  44.3968122  35.9110808
 114.8059389  43.4137637  35.5197149 108.2846048  31.2451359  33.9955101
 108.9717087  30.9313089  33.4076117 108.1294176  32.1492724  33.7222353
 113.0880770  26.1341556  38.4240125 113.0038958  25.5267225  37.6890535
 112.2663476  26.6250574  38.4249621 120.1618054  39.5728720  37.6373293
 120.0888225  40.3783691  38.1492598 119.7195447  39.7720686  36.8121315
 119.9507834  38.8100490  31.1476115 119.1675355  39.3522170  31.2414339
 120.6500579  39.3274470  31.5470356 119.8439452  26.7612502  33.5182005
 119.4737240  26.2083543  34.2062910 120.3398545  26.1570636  32.9657005
 117.6728651  37.2209997  40.6137023 118.3738110  37.8546480  40.7666417
 117.2023766  37.5624729  39.8532662 121.5217510  30.5174416  44.9255610
 120.8458147  30.4168545  45.5957985 122.3445144  30.3613630  45.3891607
 113.2696369  36.7546352  37.5468125 113.8549806  36.0090040  37.6796030
 113.0721207  37.0650309  38.4304789 116.1235024  39.7897600  32.5630568
 115.4545399  40.2743727  32.0794608 115.9847894  40.0366820  33.4773946
 107.8614024  29.3251953  36.2672569 107.8998123  28.7915543  37.0609687
 107.3554317  28.7987158  35.6483546 120.2640293  41.8241343  39.1613226
 120.8158601  41.9872965  39.9262311 120.6046486  42.4145781  38.4893251
 115.2404786  24.1716493  39.7635111 115.3046113  25.0331324  39.3512509
 115.1771906  23.5590495  39.0307469 114.7157059  26.2439626  43.4108145
 115.3429097  25.8616703  44.0245669 113.8584977  26.0253828  43.7763838
 111.4922601  28.0516055  29.3426500 111.7876042  27.1426733  29.2893554
 110.5910637  28.0303794  29.0207502 115.0216848  26.1272051  35.3254049
 114.3003434  26.7408019  35.1861522 115.8110104  26.6629816  35.2470694
 117.8243162  23.4626478  41.5994700 118.3477564  23.7088774  42.3621010
 117.6055495  24.2946513  41.1797838 113.2210443  25.7330152  29.4665825
 112.8923149  24.8527531  29.2840931 113.5749814  25.6777821  30.3542214
 116.3352266  26.0203122  29.8341303 116.6748339  26.5489044  29.1119911
 116.7824387  26.3583528  30.6099869 119.0295707  24.4040173  39.2844371
 118.6892527  23.6047986  39.6865051 118.3234713  24.7041884  38.7121204
 119.6812179  21.4889485  37.7371694 120.5038248  21.0149964  37.6150584
 119.9250242  22.2679969  38.2370380 117.2050757  28.1808606  35.5463672
 117.0595338  28.4948909  36.4387954 116.7275961  28.7993506  34.9934571
 119.0647140  25.1711154  35.5944562 119.0508709  24.2752247  35.2576860
 119.7819568  25.1781818  36.2282848 120.9173271  25.6048494  37.6397689
 120.6591049  26.5265565  37.6382020 120.3858311  25.2078929  38.3298154
 111.6796420  30.7213950  38.4851334 111.1349888  31.4973758  38.6171608
 112.5575769  31.0684755  38.3270455 118.4684036  24.0525534  30.8632132
 118.5899947  23.1242181  31.0623020 118.1786079  24.0664220  29.9510448
 112.4662441  29.8483847  41.3781490 111.7244178  29.9966482  41.9646121
 112.1455186  30.1092112  40.5148240 120.4106104  39.3899825  41.1761880
 120.7193231  39.1448972  42.0484580 121.2081586  39.5946463  40.6880751
 120.4326716  41.5437735  33.4067257 119.9931706  41.0514113  34.1000114
 121.1834833  41.0010702  33.1659332 112.9119055  37.7349275  33.4091885
 113.7377075  37.4353047  33.0290529 112.5613107  36.9656898  33.8581674
 117.8800588  37.0875744  35.4789559 117.2580598  36.4246449  35.1791787
 118.5505455  37.1136876  34.7963206 111.1127660  35.6535602  34.3680819
 110.2759569  35.2257776  34.1864820 111.0851306  35.8468045  35.3051610
 117.9525116  25.5657532  45.0722065 118.0013271  26.4419655  44.6899834
 118.4947630  25.0234925  44.4993708 117.4414095  35.6379667  28.9548019
 117.5902216  36.3215131  28.3014692 118.2480539  35.6184757  29.4697475
 120.1824404  26.3188904  41.8268423 119.3127714  26.6122470  41.5551012
 120.4183885  26.9029349  42.5475687 115.1966728  31.6644845  29.9609088
 114.9512770  30.7607175  30.1589298 115.3662643  31.6661995  29.0188566
 114.4662376  27.3973202  27.4595250 113.7731621  27.4717557  26.8035286
 114.2214128  26.6333546  27.9816767 120.9409501  38.1327797  26.4259767
 120.3683468  38.7517985  25.9730239 121.5142294  38.6827159  26.9599689
 121.2094992  33.5206356  45.2276476 122.1298001  33.6984955  45.4216523
 121.1744575  32.5762402  45.0756175 110.4277157  28.7144950  34.1529751
 110.1079941  27.8610258  33.8604125 109.8810585  28.9293528  34.9087718
 114.2057064  31.4307391  37.8699257 114.4243074  32.3624499  37.8887291
 114.6182838  31.0715365  38.6554061 119.0784930  27.0040597  47.2602006
 118.9781657  27.9534954  47.1914097 118.8606472  26.6758836  46.3878076
 110.2965417  32.3347861  36.1222872 109.6028888  31.9201814  35.6092827
 111.0438408  32.3768398  35.5256291 118.9416200  30.4337736  46.0767068
 118.4583281  31.2338096  46.2830957 119.0277139  30.4445680  45.1234512
 112.2102159  32.2666115  33.9988887 112.1872847  32.3653803  33.0470770
 112.5202796  33.1131266  34.3206053 114.8689537  34.3242270  38.1135502
 115.8232791  34.2926213  38.0465433 114.6702061  33.8632894  38.9285728
 115.4588919  32.8943386  40.6806299 116.2781808  33.3887465  40.7041137
 115.7325727  31.9775354  40.6523867 113.2239766  39.8661890  35.1305700
 113.0894234  39.1062291  34.5643698 112.8071828  40.5902790  34.6634488
 116.3808892  40.7631207  35.3424142 116.2641276  41.7076639  35.2402832
 115.5601338  40.4604768  35.7309941 110.7123834  27.2281520  41.3798496
 111.3582697  26.7180474  41.8685722 110.5040985  27.9650202  41.9541922
 117.4063406  41.4159469  38.5580071 118.3090653  41.4483079  38.8746566
 117.1800776  40.4859920  38.5726406 119.1617008  40.1690455  35.2190149
 118.2112639  40.1692317  35.1054522 119.4649494  39.4223190  34.7026184
 115.0521325  24.3749137  45.4773511 115.9152786  24.0185942  45.6876835
 114.4786735  24.0363032  46.1648915 121.9104758  43.4011375  37.4659146
 122.1612796  44.2858385  37.7316722 122.4464306  43.2215976  36.6934238
 119.1239802  46.5743277  33.9955101 119.8110842  46.2605007  33.4076117
 118.9687931  47.4784642  33.7222353 118.7007778  44.6543870  36.2672569
 118.7391878  44.1207461  37.0609687 118.1948071  44.1279076  35.6483546
 121.9521415  50.9827520  34.3680819 121.1153323  50.5549694  34.1864820
 121.9245060  51.1759963  35.3051610 121.2670911  44.0436868  34.1529751
 120.9473696  43.1902176  33.8604125 120.7204339  44.2585446  34.9087718
 121.1359171  47.6639779  36.1222872 120.4422643  47.2493732  35.6092827
 121.8832162  47.7060316  35.5256291 121.5517588  42.5573438  41.3798496
 122.1976452  42.0472392  41.8685722 121.3434739  43.2942120  41.9541922
   3.6506585  55.7772485 105.8973007   2.9768283  56.0804182 106.5057965
   4.0372407  56.5801566 105.5478464   5.7414055  47.5680698 104.4320447
   5.1243225  46.8427526 104.3353500   5.2730543  48.3290059 104.0887521
   7.6163325  53.3557969 107.1712830   8.3114230  53.9764661 107.3900145
   7.9586476  52.5053320 107.4465208   1.7078194  53.4619720 106.0787924
   1.1352161  54.0809908 105.6258396   2.2810988  54.0119082 106.6127846
   4.9275454  53.7456871 107.2096506   5.8606127  53.6802432 107.4129382
   4.8398666  54.5813137 106.7511039   7.5563470  53.0622741 104.1700454
   7.4777102  52.7282605 105.0636212   8.3773137  53.5544509 104.1691926
   5.1267422  50.3790736 103.7910432   5.8303272  50.5840739 104.4068088
   4.4030071  50.9467498 104.0559515   7.0354119  50.8173266 105.8408892
   7.8699723  50.3854464 105.6586367   6.8738462  50.6455279 106.7685786
  15.6638395  61.3342917 115.9364069  16.3016805  61.2149664 115.2327409
  15.5459237  62.2823761 115.9952021  12.4728101  61.2870345 115.8725593
  12.1346612  61.1711409 114.9846128  13.3417869  60.8861510 115.8526600
   8.3314917  63.1405821 111.8622484   7.7679782  63.0495758 111.0938772
   8.2167312  62.3205726 112.3424977  13.9114475  66.8076789 107.1736949
  13.2602455  67.3930869 106.7870963  14.7058838  67.3382984 107.2331987
   7.8370102  63.8965926 107.5724084   8.6100978  63.3494913 107.4336959
   8.1895501  64.7610175 107.7838545  10.1736380  60.0558592 105.2042534
  10.4261901  59.5340113 104.4425997   9.2360939  59.8924738 105.3069217
  15.2179663  59.0594371 113.0117277  16.0042752  58.6413794 112.6607694
  15.4818367  59.9640463 113.1798925  15.3889740  64.4967221 107.7105934
  14.7535573  64.5701847 108.4226838  15.0587147  65.0860820 107.0325013
  20.6188090  58.9969604 113.9150255  21.3513262  58.4268821 114.1488085
  19.8627446  58.6091204 114.3556761   9.8932669  61.9586698 107.4066909
   9.7768927  61.2831601 108.0747993  10.0034929  61.4719072 106.5899062
  12.2364210  61.4196845 111.1113598  11.8722417  60.8927466 111.8226519
  13.0931326  61.0295314 110.9380083  11.8769697  56.4486745 106.1074946
  12.0444099  57.3166981 106.4745417  11.6866866  56.6114027 105.1836236
  14.6345030  64.9103724 117.7740777  14.3345753  65.8128763 117.6656584
  14.2896090  64.6435907 118.6261930  18.0342174  57.4286264 115.4538214
  17.1259051  57.3601672 115.1596975  17.9829770  57.9058209 116.2820039
  11.8558918  58.9044402 107.0921613  11.7358543  59.3501453 107.9307093
  11.1611506  59.2529720 106.5335151   9.6165810  71.6748044 110.7411744
   9.5389840  72.6255869 110.8200225   9.0127453  71.3293917 111.3986671
  17.5543984  59.3765876 107.9201947  18.4661840  59.6093262 107.7449645
  17.0453631  59.9602920 107.3577026  16.1613566  64.3591694 115.3115529
  15.5322429  64.5237408 114.6091596  15.7739228  64.7733304 116.0826493
  20.0402798  65.2946132 112.6659892  19.3553836  65.6745033 112.1156926
  20.1246647  65.9041459 113.3991840  11.7141528  64.0966102 112.5765614
  12.1779874  64.3753805 111.7870236  11.4498326  63.1949547 112.3938704
  10.6510414  60.2189254 109.3855179  11.3534457  60.6710298 109.8529105
  10.3191043  59.5773073 110.0135072  18.4099558  65.8178046 117.4377593
  19.2317001  65.4158234 117.1560275  18.4061961  65.7146280 118.3893709
  26.5005551  62.1616795 113.7862565  25.7469259  61.5924193 113.6306569
  26.6353092  62.1279459 114.7333199  11.8904179  67.0330197 109.4617284
  11.7549854  67.8781733 109.8902132  12.4313991  67.2349475 108.6983218
   5.3433576  64.5505635 110.0345209   5.8558097  65.3448885 110.1850774
   5.9956289  63.8531926 109.9678811   7.1528461  67.6671391 112.1167962
   7.3295089  68.5889356 111.9288946   7.9485294  67.3529811 112.5462342
   3.3082493  62.8794289 110.8104780   4.1457715  63.2891298 110.5938487
   3.4860761  61.9393732 110.7804974  15.2046925  60.5469370 106.4988613
  14.6893549  61.3173975 106.7377000  14.9324234  59.8734506 107.1221674
  12.7894036  55.3919071 111.5573851  11.9335632  55.0025921 111.3779490
  13.2020988  55.4711032 110.6973637  20.1781199  63.3001725 108.4341786
  19.4010642  62.9612884 107.9896948  20.8572680  63.3054348 107.7596751
  14.9933228  58.4196462 108.3248394  14.6883364  58.7342611 109.1758537
  15.9463670  58.4977882 108.3675727  13.4379660  64.5786686 109.9741348
  12.9101022  63.8439445 109.6614585  12.9367163  65.3561362 109.7281316
  18.4172506  62.7735706 115.0908394  17.7596181  63.4634967 115.1788523
  19.2212905  63.1632138 115.4342380  17.2277965  61.1280079 113.1412336
  17.7409847  61.7610071 113.6434046  17.8779189  60.5281274 112.7755696
   8.4967975  57.2710813 106.3543845   7.6605287  57.6085499 106.6753119
   8.3572744  57.1359793 105.4170982  11.5832260  62.3966896 102.9776321
  10.6759322  62.1656149 103.1767470  12.0803292  61.6004515 103.1650302
  14.4900339  71.1064403 105.8973007  13.8162038  71.4096100 106.5057965
  14.8766161  71.9093483 105.5478464  14.4893844  60.0020950 110.5173357
  15.2365662  60.5142347 110.2080479  14.7585433  59.6805003 111.3777750
  12.7620494  62.4979491 107.5000311  11.8531713  62.2138523 107.5972781
  12.7915578  62.9178569 106.6403618  17.9939761  66.1086080 111.2691478
  17.5402088  65.2676990 111.3256669  17.3633728  66.7447479 111.6066259
  16.9372681  57.0378066 112.4992146  16.1995437  56.5255452 112.8302389
  17.1899454  56.5978448 111.6875423  16.4372700  67.9462577 112.2041297
  16.7295675  68.5067634 111.4853662  16.9471321  68.2391138 112.9594456
  11.3105388  60.1108111 113.6010106  11.3653998  59.1581948 113.5252583
  10.4996590  60.2667550 114.0851405  12.4596582  64.0388234 104.8388390
  12.0216011  63.3224093 104.3794027  13.2007022  64.2664349 104.2773481
   9.2497748  58.7285171 111.3600485   8.4365613  59.0279342 111.7665677
   9.7456742  58.3340860 112.0774967  11.4006326  68.7242928 113.2934750
  11.3582504  68.9503774 112.3643282  12.3169024  68.4906303 113.4420551
  20.5769696  62.3145431 110.8964708  20.4387595  62.5047027 109.9685897
  20.2205915  63.0764814 111.3532759  20.6039076  64.3821958 115.9075980
  21.0375583  64.2897247 116.7559034  21.3170657  64.3579459 115.2695996
   9.5172126  65.6005957 113.0896713  10.3112725  65.1056277 112.8879288
   8.8063819  65.0723820 112.7264418  14.3366971  67.9824052 117.4409080
  14.3903993  68.5514989 118.2086796  13.4681752  68.1525938 117.0763117
   5.8254890  59.7449039 109.1656465   4.8952478  59.6833494 109.3826427
   5.9212362  59.2224991 108.3693106  21.4654625  64.4245659 118.4408865
  21.6590516  65.3291470 118.6868140  21.3655244  63.9653078 119.2747450
  12.0943402  66.1734979 116.7694550  11.9554488  65.8053763 117.6420488
  11.3057999  66.6882618 116.5978507  12.6891554  71.2744075 108.1120086
  12.8643310  70.8032119 108.9265709  12.0024342  71.9009842 108.3401347
  13.6448617  65.5516582 114.1583387  13.3098450  65.5117352 115.0541037
  13.1452563  64.8861298 113.6853798  16.5807809  62.8972616 104.4320447
  15.9636980  62.1719444 104.3353500  16.1124298  63.6581976 104.0887521
   8.3706355  57.1158040 103.5541751   7.4935821  56.9946841 103.1903998
   8.8464108  56.3244119 103.3020640  11.5570281  69.4684331 110.8004272
  10.7737803  70.0106011 110.8942496  12.2563026  69.9858310 111.1998513
  14.8666931  55.2778960 113.4438477  15.3635631  54.5248922 113.1239547
  14.0953913  55.3143277 112.8781687  22.7196689  60.9819326 115.0856769
  22.7086565  61.8644041 114.7150702  21.8514068  60.6290876 114.8911306
  15.9496712  64.0350647 111.0176901  15.0152991  64.1552110 110.8481605
  16.1273380  63.1323114 110.7536910  19.3369263  59.8767967 111.5526935
  19.8029715  60.7095958 111.4787237  19.7876764  59.4112948 112.2572193
  17.4045494  66.2211788 108.5513087  17.6805338  66.1068382 109.4606961
  16.5349993  65.8229273 108.5125260  14.0399558  70.4698139 112.1945900
  14.2221953  69.6519795 112.6573653  14.8632544  70.6865831 111.7570790
  14.3741724  69.3966324 109.4560949  14.9029490  68.8858778 108.8431111
  14.6369943  69.0808854 110.3206482   3.0985049  58.7099896 108.9954657
   3.3938490  57.8010574 108.9421711   2.1973085  58.6887635 108.6735659
  15.0071128  70.4307160 115.8005065  14.8822267  69.6296899 115.2916011
  15.6650219  70.9253353 115.3119035  17.0706036  68.2316180 117.4284615
  16.1236372  68.1121531 117.3562942  17.4188809  67.3438678 117.5110877
   4.8272890  56.3913993 109.1193982   4.4985597  55.5111372 108.9369088
   5.1812261  56.3361662 110.0070371  14.0752469  68.0268896 113.6288968
  13.9277432  67.0985603 113.8096538  14.9005963  68.0488987 113.1446043
   7.9414714  56.6786963 109.4869460   8.2810786  57.2072884 108.7648068
   8.3886834  57.0167369 110.2628026  17.6786591  68.8497455 114.7153840
  18.6033139  68.6440316 114.5778292  17.5101895  68.6013856 115.6243182
   9.9282861  55.1761585 107.6862753  10.6491223  55.5542837 107.1826469
   9.3048165  55.8950461 107.7897731  14.0713984  55.8806734 108.6221085
  14.2877598  56.7631371 108.3209913  13.5908051  55.4892947 107.8926727
  17.4681907  69.3683122 110.0715932  17.6418785  68.8029545 109.3189784
  17.9610799  70.1684017 109.8895422  10.0746484  54.7109375 110.5160289
  10.1962395  53.7826021 110.7151177   9.7848526  54.7248061 109.6038605
  23.3221299  62.1319545 111.6906232  23.7652445  61.3826870 111.2925355
  22.4447809  62.1229681 111.3079964  18.4557080  68.6849886 107.1712830
  19.1507984  69.3056579 107.3900145  18.7980230  67.8345238 107.4465208
  20.3548503  66.1349592 108.7000161  20.8799827  66.4736865 107.9749481
  20.2670856  65.1996607 108.5163296  12.0389164  72.2021575 113.0595414
  11.5994154  71.7097954 113.7528271  12.7897281  71.6594543 112.8187489
   9.0476543  66.2963508 108.6076176   9.1964663  66.9798972 107.9542849
   9.8542986  66.2768598 109.1225632  21.6658481  66.0371904 121.5626109
  21.3743289  66.4001884 122.3989570  21.0530612  65.3238912 121.3839441
  22.8654163  63.6024783 114.0828679  23.7001055  64.0414587 114.2466240
  23.0013292  63.1263437 113.2636925   6.8029176  62.3228685 109.6137245
   6.5575218  61.4191015 109.8117455   6.9725090  62.3245836 108.6716723
   6.0724823  58.0557043 107.1123407   5.3794068  58.1301398 106.4563443
   5.8276575  57.2917387 107.6344924  12.5471948  68.7911638 106.0787924
  11.9745915  69.4101825 105.6258396  13.1204742  69.3411000 106.6127846
  15.7669208  69.0748788 107.2096506  16.6999881  69.0094350 107.4129382
  15.6792421  69.9105055 106.7511039  18.3957225  68.3914659 104.1700454
  18.3170856  68.0574522 105.0636212  19.2166892  68.8836427 104.1691926
  21.0935416  61.2576398 117.3776772  21.0611736  60.3192399 117.5636456
  21.7036040  61.3360435 116.6442597  12.9318747  60.1272451 103.4203976
  13.8777852  59.9978659 103.4892394  12.5532992  59.3887113 103.8973404
  26.9111966  62.3192405 116.5182809  27.6415354  62.0577693 117.0790512
  26.3018911  61.5821127 116.5584877  24.9927263  60.4600267 117.1157260
  24.2660427  60.3256232 116.5073752  24.5774550  60.7677096 117.9213978
  11.1161664  58.0522427 103.3558862  10.2093119  57.7555540 103.4321575
  11.3937645  57.7552245 102.4893148  12.7323730  52.5959317 109.5103103
  11.9224458  52.2506402 109.8858349  13.4208147  52.2866861 110.0990714
   9.8860449  54.9109363 103.4970841  10.7479613  55.2364261 103.7566658
  10.0710793  54.1240858 102.9843906  18.0393085  53.7837889 110.6406064
  17.4591754  54.4422693 110.2584116  17.7729018  52.9615234 110.2293481
  16.8217963  55.9437979 109.6962412  15.9343818  56.2287630 109.4782607
  17.2371952  55.7831743 108.8489689  20.1732499  55.9684500 113.4116751
  20.9492889  56.4580953 113.6841368  19.4480633  56.3942555 113.8688621
  22.6105058  56.6812120 114.4690692  23.2049549  56.4407856 113.7584000
  22.6831642  55.9619250 115.0964228  15.9661177  65.7082654 103.7910432
  16.6697027  65.9132657 104.4068088  15.2423825  66.2759416 104.0559515
  16.7958987  61.4592515 109.9112702  16.7394188  61.9161067 109.0720335
  17.3487329  60.6983200 109.7335545  20.6063793  57.2482247 110.7362822
  20.3500727  56.8478883 111.5671029  19.9816661  57.9626041 110.6112961
  24.9176131  59.9878320 113.2434113  24.3575689  60.0571510 114.0165675
  24.3119634  59.8119305 112.5233609  17.8747874  66.1465183 105.8408892
  18.7093478  65.7146382 105.6586367  17.7132217  65.9747197 106.7685786
  17.5293766  62.6497297 107.2065231  17.4742570  62.4841568 106.2653675
  16.9039821  63.3573329 107.3627421  10.8389892  52.1505406 106.7850550
  10.8268561  53.0947245 106.9418821  11.7313313  51.9675551 106.4910011
  26.5032149  76.6634834 115.9364069  27.1410559  76.5441582 115.2327409
  26.3852992  77.6115678 115.9952021  23.3121855  76.6162262 115.8725593
  22.9740367  76.5003327 114.9846128  24.1811624  76.2153428 115.8526600
  19.1708671  78.4697739 111.8622484  18.6073536  78.3787676 111.0938772
  19.0561066  77.6497643 112.3424977  24.7508230  82.1368707 107.1736949
  24.0996210  82.7222787 106.7870963  25.5452593  82.6674901 107.2331987
  18.6763857  79.2257844 107.5724084  19.4494733  78.6786831 107.4336959
  19.0289256  80.0902093 107.7838545  21.4405106  77.9311074 117.3692343
  22.0368679  77.7067097 116.6549306  21.4980078  77.1895820 117.9717790
  21.0130135  75.3850510 105.2042534  21.2655655  74.8632031 104.4425997
  20.0754694  75.2216655 105.3069217  26.0573418  74.3886288 113.0117277
  26.8436507  73.9705711 112.6607694  26.3212122  75.2932380 113.1798925
  26.2283495  79.8259138 107.7105934  25.5929328  79.8993765 108.4226838
  25.8980901  80.4152737 107.0325013  31.4581845  74.3261521 113.9150255
  32.1907017  73.7560738 114.1488085  30.7021200  73.9383122 114.3556761
  20.7326423  77.2878616 107.4066909  20.6162682  76.6123519 108.0747993
  20.8428683  76.8010990 106.5899062  23.0757964  76.7488763 111.1113598
  22.7116172  76.2219384 111.8226519  23.9325080  76.3587232 110.9380083
  28.9807265  68.0383095 118.3744864  28.6490590  68.9078506 118.1506079
  28.3852878  67.7219379 119.0538894  22.7163451  71.7778663 106.1074946
  22.8837854  72.6458899 106.4745417  22.5260620  71.9405944 105.1836236
  25.4738785  80.2395641 117.7740777  25.1739508  81.1420680 117.6656584
  25.1289844  79.9727825 118.6261930  18.9251266  76.6909438 113.8077481
  18.0001763  76.5585652 114.0155173  19.1735679  77.4703658 114.3047423
  28.8735928  72.7578182 115.4538214  27.9652806  72.6893590 115.1596975
  28.8223524  73.2350127 116.2820039  22.6952672  74.2336320 107.0921613
  22.5752297  74.6793371 107.9307093  22.0005261  74.5821638 106.5335151
  20.4559564  87.0039962 110.7411744  20.3783594  87.9547787 110.8200225
  19.8521208  86.6585834 111.3986671  30.7397575  70.9594620 117.2316088
  30.0971955  71.2527153 116.5855882  30.2352503  70.8447540 118.0369285
  28.3937738  74.7057793 107.9201947  29.3055595  74.9385180 107.7449645
  27.8847385  75.2894837 107.3577026  26.6778506  79.1282421 121.5563240
  27.0861862  78.6864832 120.8117872  25.9555768  78.5535049 121.8097433
  23.0309576  74.0655028 118.9296797  23.8770771  74.4894441 119.0731446
  22.9708214  73.4088652 119.6235360  27.0007321  79.6883612 115.3115529
  26.3716183  79.8529326 114.6091596  26.6132983  80.1025221 116.0826493
  30.8796553  80.6238050 112.6659892  30.1947591  81.0036951 112.1156926
  30.9640402  81.2333376 113.3991840  26.1809021  71.7259396 120.5877970
  25.9369953  72.4801457 120.0512246  26.4568952  72.1044744 121.4225217
  28.1347484  78.2698009 119.2655236  28.3464379  78.9129768 118.5889617
  28.0877232  77.4360325 118.7977166  25.7373713  70.8815829 116.1691808
  24.8758192  71.1797083 116.4608546  25.7636148  71.0986228 115.2372841
  22.5535283  79.4258020 112.5765614  23.0173628  79.7045723 111.7870236
  22.2892081  78.5241464 112.3938704  19.4459364  78.9729501 115.5145377
  20.0160721  79.4016770 114.8762861  20.0367476  78.6912086 116.2129563
  21.4904169  75.5481172 109.3855179  22.1928212  76.0002216 109.8529105
  21.1584797  74.9064991 110.0135072  15.2329503  73.8064725 114.6872312
  14.4428557  74.0622253 114.2112423  15.7240750  74.6213063 114.7924353
  29.2493312  81.1469964 117.4377593  30.0710756  80.7450151 117.1560275
  29.2455715  81.0438198 118.3893709  17.1844248  74.1709304 111.6455789
  16.3875411  74.2827998 112.1639285  16.9569840  74.5095956 110.7796680
  37.3399305  77.4908712 113.7862565  36.5863014  76.9216111 113.6306569
  37.4746846  77.4571377 114.7333199  22.7297933  82.3622115 109.4617284
  22.5943608  83.2073651 109.8902132  23.2707746  82.5641392 108.6983218
  16.1827331  79.8797553 110.0345209  16.6951851  80.6740803 110.1850774
  16.8350043  79.1823843 109.9678811  17.9922215  82.9963309 112.1167962
  18.1688844  83.9181274 111.9288946  18.7879049  82.6821728 112.5462342
  22.1333234  69.8571574 123.7151896  22.8742947  70.4578727 123.6356358
  22.3651157  69.1149212 123.1569938  26.0790397  65.8852677 117.9916178
  25.7354666  66.7754318 117.9155288  26.4469359  65.6954334 117.1285763
  14.1476247  78.2086207 110.8104780  14.9851469  78.6183215 110.5938487
  14.3254515  77.2685649 110.7804974  26.0440680  75.8761288 106.4988613
  25.5287303  76.6465892 106.7377000  25.7717988  75.2026424 107.1221674
  23.6287791  70.7210989 111.5573851  22.7729387  70.3317839 111.3779490
  24.0414742  70.8002949 110.6973637  25.1586937  68.2557332 115.9565411
  24.6551733  68.2187467 115.1433216  25.4517544  69.1650075 116.0162067
  21.4029823  68.3396062 114.9631593  22.2682820  68.1438870 114.6037482
  21.4707332  68.1106413 115.8900949  31.0174954  78.6293642 108.4341786
  30.2404396  78.2904802 107.9896948  31.6966435  78.6346266 107.7596751
  25.8326983  73.7488380 108.3248394  25.5277118  74.0634529 109.1758537
  26.7857425  73.8269800 108.3675727  24.2773415  79.9078603 109.9741348
  23.7494776  79.1731363 109.6614585  23.7760917  80.6853280 109.7281316
  29.2566261  78.1027624 115.0908394  28.5989935  78.7926885 115.1788523
  30.0606660  78.4924056 115.4342380  19.0092142  70.5698269 112.3347959
  19.5835894  70.3473451 111.6021152  19.5963125  70.6386964 113.0876561
  28.0671719  76.4571996 113.1412336  28.5803601  77.0901988 113.6434046
  28.7172943  75.8573192 112.7755696  19.3361729  72.6002731 106.3543845
  18.4999042  72.9377417 106.6753119  19.1966499  72.4651710 105.4170982
  21.3114810  67.4439518 111.0623029  20.6579222  67.1288536 110.4379644
  21.2695284  66.8215259 111.7882852  22.4226015  77.7258813 102.9776321
  21.5153076  77.4948067 103.1767470  22.9197047  76.9296433 103.1650302
  25.3294094  86.4356321 105.8973007  24.6555792  86.7388017 106.5057965
  25.7159916  87.2385401 105.5478464  24.5452550  73.9321452 115.3870676
  23.6275112  74.1536399 115.2292364  24.9612694  74.0067762 114.5282384
  25.3287598  75.3312868 110.5173357  26.0759417  75.8434265 110.2080479
  25.5979188  75.0096920 111.3777750  23.6014248  77.8271408 107.5000311
  22.6925467  77.5430441 107.5972781  23.6309332  78.2470487 106.6403618
  28.8333516  81.4377998 111.2691478  28.3795843  80.5968908 111.3256669
  28.2027482  82.0739396 111.6066259  27.7766435  72.3669984 112.4992146
  27.0389192  71.8547370 112.8302389  28.0293209  71.9270365 111.6875423
  27.2766455  83.2754495 112.2041297  27.5689429  83.8359552 111.4853662
  27.7865075  83.5683056 112.9594456  27.8778062  65.1446236 113.0933915
  28.1836939  64.2843599 112.8059830  28.6030667  65.7363856 112.8932909
  14.1702419  75.5476922 111.4815513  13.9726818  74.9546283 110.7566580
  13.6149083  75.2429133 112.1991452  22.1499142  75.4400029 113.6010106
  22.2047752  74.4873865 113.5252583  21.3390344  75.5959468 114.0851405
  23.2990336  79.3680152 104.8388390  22.8609766  78.6516011 104.3794027
  24.0400777  79.5956267 104.2773481  20.0891502  74.0577089 111.3600485
  19.2759368  74.3571259 111.7665677  20.5850496  73.6632777 112.0774967
  22.2400080  84.0534846 113.2934750  22.1976259  84.2795692 112.3643282
  23.1562779  83.8198220 113.4420551  25.6865714  74.5218913 120.1915379
  26.0415102  74.7490386 121.0509845  26.3337845  74.8537290 119.5692634
  31.4163451  77.6437349 110.8964708  31.2781349  77.8338945 109.9685897
  31.0599670  78.4056732 111.3532759  19.5805577  71.6295444 116.9761720
  20.2204956  71.4884203 116.2784683  18.7483107  71.3429958 116.6000322
  31.4432830  79.7113876 115.9075980  31.8769337  79.6189165 116.7559034
  32.1564411  79.6871377 115.2695996  20.3565881  80.9297875 113.0896713
  21.1506479  80.4348195 112.8879288  19.6457573  80.4015738 112.7264418
  25.1760725  83.3115970 117.4409080  25.2297748  83.8806906 118.2086796
  24.3075507  83.4817855 117.0763117  16.6648644  75.0740956 109.1656465
  15.7346232  75.0125412 109.3826427  16.7606116  74.5516909 108.3693106
  16.5834193  71.5995769 111.7534707  16.8441011  72.5141102 111.6443867
  17.4051366  71.1320212 111.9031320  32.3048380  79.7537577 118.4408865
  32.4984270  80.6583387 118.6868140  32.2048998  79.2944996 119.2747450
  23.9584691  69.6395467 120.9399192  23.3112606  70.3385417 120.8463669
  24.7285706  70.0731611 121.3075441  24.1348825  77.4776232 118.9996012
  25.0640885  77.6287392 118.8264979  23.7139855  77.5660253 118.1444659
  22.9337157  81.5026897 116.7694550  22.7948243  81.1345681 117.6420488
  22.1451753  82.0174536 116.5978507  23.5285309  86.6035993 108.1120086
  23.7037064  86.1324036 108.9265709  22.8418097  87.2301759 108.3401347
  24.4842372  80.8808499 114.1583387  24.1492205  80.8409269 115.0541037
  23.9846318  80.2153215 113.6853798  27.4201564  78.2264534 104.4320447
  26.8030734  77.5011362 104.3353500  26.9518052  78.9873894 104.0887521
  29.0755695  82.9363442 122.0926227  29.0168241  82.2522662 121.4256810
  29.4775214  83.6782432 121.6406853  19.2100110  72.4449958 103.5541751
  18.3329576  72.3238759 103.1903998  19.6857863  71.6536036 103.3020640
  29.0773103  80.9003026 120.3240207  28.1899881  80.5628948 120.4466606
  29.6471654  80.1686057 120.5608973  22.3964036  84.7976248 110.8004272
  21.6131557  85.3397928 110.8942496  23.0956781  85.3150228 111.1998513
  25.7060686  70.6070878 113.4438477  26.2029385  69.8540840 113.1239547
  24.9347667  70.6435194 112.8781687  33.5590443  76.3111243 115.0856769
  33.5480319  77.1935959 114.7150702  32.6907823  75.9582794 114.8911306
  26.7890466  79.3642565 111.0176901  25.8546745  79.4844027 110.8481605
  26.9667135  78.4615032 110.7536910  22.2895654  72.7488261 113.1710162
  21.9193442  72.1959301 113.8591067  22.7854747  72.1446394 112.6185162
  30.1763018  75.2059884 111.5526935  30.6423470  76.0387876 111.4787237
  30.6270518  74.7404866 112.2572193  28.2439249  81.5503706 108.5513087
  28.5199093  81.4360300 109.4606961  27.3743748  81.1521190 108.5125260
  28.1479680  67.5740471 115.5917836  27.2342760  67.8044698 115.7600043
  28.5772782  67.6578915 116.4431868  27.9186139  75.7630363 118.0917730
  27.2657589  76.0106271 117.4370183  28.2966519  74.9494501 117.7580207
  24.8793313  85.7990056 112.1945900  25.0615707  84.9811712 112.6573653
  25.7026299  86.0157749 111.7570790  25.2135478  84.7258242 109.4560949
  25.7423245  84.2150696 108.8431111  25.4763698  84.4100772 110.3206482
  17.6860988  70.1592252 119.4163268  17.7502315  71.0207082 119.0040666
  17.6228108  69.5466253 118.6835626  13.9378803  74.0391813 108.9954657
  14.2332244  73.1302492 108.9421711  13.0366839  74.0179553 108.6735659
  25.8464882  85.7599077 115.8005065  25.7216022  84.9588817 115.2916011
  26.5043973  86.2545271 115.3119035  17.4673050  72.1147810 114.9782206
  16.7459636  72.7283777 114.8389679  18.2566306  72.6505575 114.8998852
  27.9099791  83.5608097 117.4284615  26.9630126  83.4413449 117.3562942
  28.2582564  82.6730595 117.5110877  20.2699364  69.4502236 121.2522857
  20.7933766  69.6964533 122.0149167  20.0511697  70.2822271 120.8325995
  15.6666645  71.7205911 109.1193982  15.3379351  70.8403290 108.9369088
  16.0206016  71.6653580 110.0070371  24.9146224  83.3560814 113.6288968
  24.7671186  82.4277521 113.8096538  25.7399717  83.3780904 113.1446043
  18.7808468  72.0078881 109.4869460  19.1204541  72.5364802 108.7648068
  19.2280589  72.3459287 110.2628026  28.5180346  84.1789372 114.7153840
  29.4426893  83.9732234 114.5778292  28.3495649  83.9305773 115.6243182
  21.4751909  70.3915931 118.9372528  21.1348729  69.5923744 119.3393208
  20.7690915  70.6917642 118.3649361  22.1268381  67.4765244 117.3899851
  22.9494450  67.0025722 117.2678741  22.3706444  68.2555728 117.8898537
  20.7676615  70.5053502 107.6862753  21.4884978  70.8834755 107.1826469
  20.1441919  71.2242379 107.7897731  24.9107738  71.2098651 108.6221085
  25.1271353  72.0923289 108.3209913  24.4301805  70.8184865 107.8926727
  19.6506960  74.1684364 115.1991830  19.5051540  74.4824667 116.0916111
  19.1732163  74.7869265 114.6462728  21.5103342  71.1586912 115.2472719
  21.4964911  70.2628006 114.9105017  22.2275771  71.1657576 115.8811005
  23.3629473  71.5924253 117.2925847  23.1047251  72.5141323 117.2910177
  22.8314513  71.1954687 117.9826311  28.3075662  84.6975040 110.0715932
  28.4812539  84.1321462 109.3189784  28.8004553  85.4975935 109.8895422
  20.9140238  70.0401293 110.5160289  21.0356150  69.1117939 110.7151177
  20.6242281  70.0539979 109.6038605  23.7831429  67.7256203 113.6527009
  23.8053126  67.7895536 112.6978989  24.1999488  66.8860712 113.8467515
  34.1615053  77.4611463 111.6906232  34.6046199  76.7118788 111.2925355
  33.2841563  77.4521599 111.3079964  29.2950834  84.0141804 107.1712830
  29.9901739  84.6348497 107.3900145  29.6373984  83.1637155 107.4465208
  31.1942257  81.4641510 108.7000161  31.7193582  81.8028782 107.9749481
  31.1064610  80.5288525 108.5163296  22.8782918  87.5313493 113.0595414
  22.4387909  87.0389872 113.7528271  23.6291035  86.9886461 112.8187489
  31.0034039  78.9466880 121.3184087  31.0532044  78.7816887 122.2599610
  30.8947962  78.0794139 120.9281968  19.8870297  81.6255425 108.6076176
  20.0358418  82.3090890 107.9542849  20.6936741  81.6060515 109.1225632
  28.2937801  74.9297808 122.6343394  29.1947664  74.7904273 122.3427392
  28.3685775  75.0952263 123.5741572  22.6280606  72.3064662 121.4796580
  21.7583916  72.5998229 121.2079169  22.8640087  72.8905107 122.2003844
  32.5052235  81.3663821 121.5626109  32.2137044  81.7293802 122.3989570
  31.8924367  80.6530829 121.3839441  33.7047918  78.9316701 114.0828679
  34.5394809  79.3706505 114.2466240  33.8407047  78.4555354 113.2636925
  30.7539424  76.4896436 120.0306167  31.2293545  76.6824082 119.2225018
  29.8304989  76.5455622 119.7849551  17.6422930  77.6520603 109.6137245
  17.3968972  76.7482933 109.8117455  17.8118845  77.6537753 108.6716723
  25.3319640  68.5244279 118.9962001  25.8501584  69.2605306 118.6708489
  24.9774773  68.8308273 119.8308760  16.9118578  73.3848961 107.1123407
  16.2187823  73.4593316 106.4563443  16.6670330  72.6209304 107.6344924
  25.5832234  64.9444562 114.5162897  25.8633988  64.2767751 115.1423324
  26.3682841  65.1373658 114.0037561  23.3865703  84.1203556 106.0787924
  22.8139670  84.7393743 105.6258396  23.9598496  84.6702918 106.6127846
  29.4541093  73.3662196 118.2634473  30.4058516  73.4660294 118.2846697
  29.2844543  72.5740464 118.7732557  27.4755472  70.4517779 118.4493874
  26.8805404  70.7322792 117.7540362  27.1905169  70.9411680 119.2210615
  26.6062963  84.4040706 107.2096506  27.5393636  84.3386268 107.4129382
  26.5186175  85.2396973 106.7511039  29.2350979  83.7206576 104.1700454
  29.1564611  83.3866440 105.0636212  30.0560646  84.2128344 104.1691926
  31.9329170  76.5868316 117.3776772  31.9005491  75.6484316 117.5636456
  32.5429794  76.6652352 116.6442597  23.7712501  75.4564369 103.4203976
  24.7171606  75.3270577 103.4892394  23.3926746  74.7179030 103.8973404
  32.0823659  73.3779359 117.4235055  31.5662708  72.5937816 117.2364984
  32.9663607  73.0498076 117.5881575  29.7434386  67.1220375 113.3830868
  29.5459207  66.8135463 114.2674200  30.3534091  67.8482014 113.5128798
  37.7505720  77.6484322 116.5182809  38.4809109  77.3869611 117.0790512
  37.1412666  76.9113044 116.5584877  35.8321017  75.7892185 117.1157260
  35.1054181  75.6548150 116.5073752  35.4168304  76.0969014 117.9213978
  21.9555418  73.3814345 103.3558862  21.0486874  73.0847458 103.4321575
  22.2331399  73.0844163 102.4893148  23.5717484  67.9251235 109.5103103
  22.7618213  67.5798320 109.8858349  24.2601901  67.6158778 110.0990714
  25.5008032  67.0029281 111.1327399  26.0539071  67.4224735 111.7917423
  25.7378119  66.0765030 111.1750355  20.7254203  70.2401280 103.4970841
  21.5873367  70.5656179 103.7566658  20.9104547  69.4532776 102.9843906
  28.8786840  69.1129807 110.6406064  28.2985509  69.7714611 110.2584116
  28.6122772  68.2907151 110.2293481  27.3290406  68.5134864 112.8427384
  27.8290184  68.6251399 112.0341703  27.9726014  68.2095917 113.4828192
  27.6611718  71.2729897 109.6962412  26.7737573  71.5579548 109.4782607
  28.0765707  71.1123660 108.8489689  31.0126254  71.2976418 113.4116751
  31.7886644  71.7872870 113.6841368  30.2874388  71.7234472 113.8688621
  33.4498812  72.0104037 114.4690692  34.0443303  71.7699773 113.7584000
  33.5225396  71.2911168 115.0964228  26.8054931  81.0374572 103.7910432
  27.5090781  81.2424574 104.4068088  26.0817580  81.6051334 104.0559515
  27.6352741  76.7884433 109.9112702  27.5787943  77.2452984 109.0720335
  28.1881084  76.0275118 109.7335545  31.4457547  72.5774165 110.7362822
  31.1894481  72.1770801 111.5671029  30.8210415  73.2917959 110.6112961
  35.7569885  75.3170238 113.2434113  35.1969443  75.3863427 114.0165675
  35.1513388  75.1411223 112.5233609  28.7141628  81.4757101 105.8408892
  29.5487232  81.0438299 105.6586367  28.5525971  81.3039115 106.7685786
  28.3687521  77.9789214 107.2065231  28.3136324  77.8133486 106.2653675
  27.7433576  78.6865247 107.3627421  21.6783646  67.4797323 106.7850550
  21.6662316  68.4239163 106.9418821  22.5707068  67.2967469 106.4910011
  25.4935766  64.0740100 111.0396486  24.7268161  63.5198587 111.1853169
  25.9046471  64.1461969 111.9010638  37.3425904  91.9926752 115.9364069
  37.9804313  91.8733499 115.2327409  37.2246746  92.9407596 115.9952021
  34.1515610  91.9454180 115.8725593  33.8134121  91.8295245 114.9846128
  35.0205378  91.5445345 115.8526600  30.0102426  93.7989657 111.8622484
  29.4467291  93.7079593 111.0938772  29.8954821  92.9789561 112.3424977
  35.5901984  97.4660624 107.1736949  34.9389964  98.0514705 106.7870963
  36.3846347  97.9966819 107.2331987  29.5157611  94.5549761 107.5724084
  30.2888487  94.0078748 107.4336959  29.8683010  95.4194011 107.7838545
  32.2798861  93.2602992 117.3692343  32.8762433  93.0359015 116.6549306
  32.3373832  92.5187738 117.9717790  31.8523889  90.7142428 105.2042534
  32.1049410  90.1923949 104.4425997  30.9148448  90.5508573 105.3069217
  36.8967172  89.7178206 113.0117277  37.6830261  89.2997629 112.6607694
  37.1605876  90.6224298 113.1798925  37.0677249  95.1551056 107.7105934
  36.4323082  95.2285683 108.4226838  36.7374656  95.7444655 107.0325013
  42.2975599  89.6553439 113.9150255  43.0300771  89.0852656 114.1488085
  41.5414955  89.2675040 114.3556761  31.5720178  92.6170533 107.4066909
  31.4556436  91.9415437 108.0747993  31.6822438  92.1302907 106.5899062
  33.9151719  92.0780681 111.1113598  33.5509926  91.5511302 111.8226519
  34.7718835  91.6879150 110.9380083  39.8201019  83.3675013 118.3744864
  39.4884344  84.2370424 118.1506079  39.2246633  83.0511297 119.0538894
  33.5557206  87.1070580 106.1074946  33.7231608  87.9750817 106.4745417
  33.3654375  87.2697862 105.1836236  36.3132539  95.5687559 117.7740777
  36.0133262  96.4712598 117.6656584  35.9683599  95.3019742 118.6261930
  29.7645021  92.0201356 113.8077481  28.8395517  91.8877570 114.0155173
  30.0129434  92.7995575 114.3047423  39.7129683  88.0870099 115.4538214
  38.8046560  88.0185508 115.1596975  39.6617279  88.5642044 116.2820039
  33.5346427  89.5628238 107.0921613  33.4146052  90.0085289 107.9307093
  32.8399015  89.9113555 106.5335151  31.2953319 102.3331880 110.7411744
  31.2177349 103.2839705 110.8200225  30.6914962 101.9877752 111.3986671
  41.5791329  86.2886538 117.2316088  40.9365709  86.5819071 116.5855882
  41.0746258  86.1739458 118.0369285  39.2331493  90.0349711 107.9201947
  40.1449349  90.2677098 107.7449645  38.7241140  90.6186755 107.3577026
  37.5172261  94.4574339 121.5563240  37.9255617  94.0156749 120.8117872
  36.7949522  93.8826966 121.8097433  33.8703331  89.3946946 118.9296797
  34.7164526  89.8186359 119.0731446  33.8101968  88.7380570 119.6235360
  37.8401075  95.0175529 115.3115529  37.2109938  95.1821244 114.6091596
  37.4526737  95.4317139 116.0826493  41.7190307  95.9529967 112.6659892
  41.0341345  96.3328869 112.1156926  41.8034156  96.5625294 113.3991840
  37.0202776  87.0551314 120.5877970  36.7763708  87.8093374 120.0512246
  37.2962706  87.4336662 121.4225217  38.9741239  93.5989926 119.2655236
  39.1858134  94.2421686 118.5889617  38.9270987  92.7652243 118.7977166
  36.5767468  86.2107747 116.1691808  35.7151947  86.5089000 116.4608546
  36.6029902  86.4278146 115.2372841  33.3929037  94.7549937 112.5765614
  33.8567383  95.0337640 111.7870236  33.1285835  93.8533382 112.3938704
  30.2853118  94.3021419 115.5145377  30.8554475  94.7308687 114.8762861
  30.8761230  94.0204004 116.2129563  32.3297923  90.8773090 109.3855179
  33.0321966  91.3294134 109.8529105  31.9978552  90.2356909 110.0135072
  26.0723257  89.1356643 114.6872312  25.2822311  89.3914171 114.2112423
  26.5634504  89.9504980 114.7924353  40.0887067  96.4761882 117.4377593
  40.9104510  96.0742069 117.1560275  40.0849470  96.3730116 118.3893709
  28.0238002  89.5001222 111.6455789  27.2269166  89.6119916 112.1639285
  27.7963595  89.8387874 110.7796680  48.1793060  92.8200630 113.7862565
  47.4256768  92.2508028 113.6306569  48.3140601  92.7863295 114.7333199
  33.5691688  97.6914032 109.4617284  33.4337363  98.5365568 109.8902132
  34.1101500  97.8933310 108.6983218  27.0221085  95.2089471 110.0345209
  27.5345606  96.0032721 110.1850774  27.6743798  94.5115761 109.9678811
  28.8315970  98.3255227 112.1167962  29.0082598  99.2473191 111.9288946
  29.6272803  98.0113646 112.5462342  32.9726988  85.1863491 123.7151896
  33.7136702  85.7870645 123.6356358  33.2044911  84.4441129 123.1569938
  36.9184151  81.2144594 117.9916178  36.5748421  82.1046236 117.9155288
  37.2863114  81.0246252 117.1285763  24.9870002  93.5378125 110.8104780
  25.8245224  93.9475133 110.5938487  25.1648270  92.5977567 110.7804974
  36.8834434  91.2053205 106.4988613  36.3681057  91.9757810 106.7377000
  36.6111742  90.5318342 107.1221674  34.4681545  86.0502906 111.5573851
  33.6123141  85.6609757 111.3779490  34.8808497  86.1294867 110.6973637
  35.9980692  83.5849250 115.9565411  35.4945487  83.5479385 115.1433216
  36.2911299  84.4941992 116.0162067  32.2423578  83.6687979 114.9631593
  33.1076574  83.4730788 114.6037482  32.3101087  83.4398331 115.8900949
  41.8568708  93.9585560 108.4341786  41.0798151  93.6196720 107.9896948
  42.5360189  93.9638183 107.7596751  36.6720737  89.0780298 108.3248394
  36.3670873  89.3926447 109.1758537  37.6251179  89.1561717 108.3675727
  35.1167169  95.2370521 109.9741348  34.5888531  94.5023280 109.6614585
  34.6154672  96.0145197 109.7281316  40.0960015  93.4319541 115.0908394
  39.4383690  94.1218803 115.1788523  40.9000414  93.8215973 115.4342380
  29.8485897  85.8990187 112.3347959  30.4229649  85.6765369 111.6021152
  30.4356879  85.9678882 113.0876561  38.9065474  91.7863914 113.1412336
  39.4197356  92.4193906 113.6434046  39.5566698  91.1865110 112.7755696
  30.1755484  87.9294648 106.3543845  29.3392796  88.2669335 106.6753119
  30.0360253  87.7943628 105.4170982  32.1508564  82.7731436 111.0623029
  31.4972977  82.4580453 110.4379644  32.1089039  82.1507177 111.7882852
  33.2619769  93.0550731 102.9776321  32.3546831  92.8239985 103.1767470
  33.7590801  92.2588350 103.1650302  36.1687848 101.7648238 105.8973007
  35.4949547 102.0679935 106.5057965  36.5553670 102.5677319 105.5478464
  35.3846305  89.2613370 115.3870676  34.4668866  89.4828317 115.2292364
  35.8006448  89.3359680 114.5282384  36.1681353  90.6604785 110.5173357
  36.9153171  91.1726182 110.2080479  36.4372942  90.3388838 111.3777750
  34.4408003  93.1563326 107.5000311  33.5319222  92.8722359 107.5972781
  34.4703086  93.5762405 106.6403618  39.6727270  96.7669916 111.2691478
  39.2189597  95.9260825 111.3256669  39.0421237  97.4031314 111.6066259
  38.6160190  87.6961902 112.4992146  37.8782946  87.1839288 112.8302389
  38.8686963  87.2562283 111.6875423  38.1160209  98.6046412 112.2041297
  38.4083184  99.1651469 111.4853662  38.6258830  98.8974973 112.9594456
  38.7171817  80.4738154 113.0933915  39.0230694  79.6135517 112.8059830
  39.4424422  81.0655774 112.8932909  25.0096173  90.8768840 111.4815513
  24.8120573  90.2838201 110.7566580  24.4542837  90.5721050 112.1991452
  32.9892897  90.7691947 113.6010106  33.0441507  89.8165783 113.5252583
  32.1784099  90.9251386 114.0851405  34.1384090  94.6972070 104.8388390
  33.7003520  93.9807929 104.3794027  34.8794531  94.9248184 104.2773481
  30.9285257  89.3869006 111.3600485  30.1153122  89.6863177 111.7665677
  31.4244251  88.9924695 112.0774967  33.0793835  99.3826763 113.2934750
  33.0370013  99.6087610 112.3643282  33.9956533  99.1490138 113.4420551
  36.5259468  89.8510831 120.1915379  36.8808856  90.0782304 121.0509845
  37.1731600  90.1829208 119.5692634  42.2557205  92.9729267 110.8964708
  42.1175104  93.1630863 109.9685897  41.8993424  93.7348650 111.3532759
  30.4199331  86.9587362 116.9761720  31.0598711  86.8176121 116.2784683
  29.5876862  86.6721875 116.6000322  42.2826585  95.0405794 115.9075980
  42.7163092  94.9481083 116.7559034  42.9958166  95.0163294 115.2695996
  31.1959635  96.2589792 113.0896713  31.9900234  95.7640112 112.8879288
  30.4851328  95.7307655 112.7264418  36.0154480  98.6407888 117.4409080
  36.0691502  99.2098824 118.2086796  35.1469261  98.8109773 117.0763117
  27.5042399  90.4032874 109.1656465  26.5739987  90.3417330 109.3826427
  27.5999871  89.8808827 108.3693106  27.4227948  86.9287687 111.7534707
  27.6834765  87.8433020 111.6443867  28.2445120  86.4612129 111.9031320
  43.1442134  95.0829494 118.4408865  43.3378025  95.9875305 118.6868140
  43.0442753  94.6236913 119.2747450  34.7978445  84.9687385 120.9399192
  34.1506360  85.6677335 120.8463669  35.5679461  85.4023529 121.3075441
  34.9742580  92.8068150 118.9996012  35.9034640  92.9579309 118.8264979
  34.5533610  92.8952171 118.1444659  33.7730911  96.8318814 116.7694550
  33.6341997  96.4637599 117.6420488  32.9845508  97.3466454 116.5978507
  34.3679063 101.9327911 108.1120086  34.5430819 101.4615954 108.9265709
  33.6811851 102.5593677 108.3401347  35.3236126  96.2100417 114.1583387
  34.9885959  96.1701187 115.0541037  34.8240072  95.5445133 113.6853798
  38.2595318  93.5556451 104.4320447  37.6424489  92.8303279 104.3353500
  37.7911807  94.3165812 104.0887521  39.9149450  98.2655360 122.0926227
  39.8561996  97.5814580 121.4256810  40.3168968  99.0074350 121.6406853
  30.0493864  87.7741876 103.5541751  29.1723330  87.6530676 103.1903998
  30.5251617  86.9827954 103.3020640  39.9166857  96.2294944 120.3240207
  39.0293636  95.8920865 120.4466606  40.4865408  95.4977975 120.5608973
  33.2357790 100.1268166 110.8004272  32.4525312 100.6689846 110.8942496
  33.9350535 100.6442146 111.1998513  36.5454440  85.9362795 113.4438477
  37.0423140  85.1832758 113.1239547  35.7741422  85.9727112 112.8781687
  44.3984198  91.6403161 115.0856769  44.3874074  92.5227876 114.7150702
  43.5301577  91.2874712 114.8911306  37.6284221  94.6934483 111.0176901
  36.6940500  94.8135945 110.8481605  37.8060889  93.7906949 110.7536910
  33.1289409  88.0780178 113.1710162  32.7587196  87.5251219 113.8591067
  33.6248501  87.4738312 112.6185162  41.0156772  90.5351802 111.5526935
  41.4817224  91.3679794 111.4787237  41.4664273  90.0696784 112.2572193
  39.0833003  96.8795623 108.5513087  39.3592847  96.7652218 109.4606961
  38.2137502  96.4813108 108.5125260  38.9873435  82.9032389 115.5917836
  38.0736515  83.1336616 115.7600043  39.4166536  82.9870833 116.4431868
  38.7579893  91.0922281 118.0917730  38.1051344  91.3398188 117.4370183
  39.1360273  90.2786419 117.7580207  35.7187067 101.1281974 112.1945900
  35.9009462 100.3103630 112.6573653  36.5420053 101.3449666 111.7570790
  36.0529233 100.0550159 109.4560949  36.5816999  99.5442614 108.8431111
  36.3157452  99.7392689 110.3206482  28.5254743  85.4884169 119.4163268
  28.5896069  86.3499000 119.0040666  28.4621863  84.8758171 118.6835626
  24.7772558  89.3683731 108.9954657  25.0725999  88.4594409 108.9421711
  23.8760594  89.3471470 108.6735659  36.6858637 101.0890995 115.8005065
  36.5609776 100.2880735 115.2916011  37.3437728 101.5837188 115.3119035
  28.3066805  87.4439727 114.9782206  27.5853391  88.0575695 114.8389679
  29.0960061  87.9797492 114.8998852  38.7493545  98.8900015 117.4284615
  37.8023881  98.7705366 117.3562942  39.0976318  98.0022513 117.5110877
  31.1093118  84.7794154 121.2522857  31.6327520  85.0256450 122.0149167
  30.8905452  85.6114189 120.8325995  26.5060399  87.0497829 109.1193982
  26.1773106  86.1695207 108.9369088  26.8599770  86.9945497 110.0070371
  35.7539978  98.6852731 113.6288968  35.6064941  97.7569439 113.8096538
  36.5793472  98.7072822 113.1446043  29.6202223  87.3370798 109.4869460
  29.9598295  87.8656720 108.7648068  30.0674343  87.6751204 110.2628026
  39.3574100  99.5081290 114.7153840  40.2820648  99.3024151 114.5778292
  39.1889404  99.2597691 115.6243182  32.3145663  85.7207849 118.9372528
  31.9742484  84.9215662 119.3393208  31.6084670  86.0209560 118.3649361
  32.9662135  82.8057161 117.3899851  33.7888205  82.3317640 117.2678741
  33.2100199  83.5847645 117.8898537  31.6070370  85.8345420 107.6862753
  32.3278732  86.2126673 107.1826469  30.9835674  86.5534297 107.7897731
  35.7501493  86.5390569 108.6221085  35.9665107  87.4215207 108.3209913
  35.2695560  86.1476782 107.8926727  30.4900714  89.4976282 115.1991830
  30.3445295  89.8116585 116.0916111  30.0125918  90.1161182 114.6462728
  32.3497097  86.4878830 115.2472719  32.3358666  85.5919923 114.9105017
  33.0669525  86.4949494 115.8811005  34.2023228  86.9216170 117.2925847
  33.9441005  87.8433241 117.2910177  33.6708268  86.5246605 117.9826311
  39.1469416 100.0266957 110.0715932  39.3206294  99.4613380 109.3189784
  39.6398308 100.8267852 109.8895422  31.7533993  85.3693210 110.5160289
  31.8749904  84.4409857 110.7151177  31.4636035  85.3831896 109.6038605
  34.6225183  83.0548121 113.6527009  34.6446880  83.1187454 112.6978989
  35.0393242  82.2152629 113.8467515  45.0008808  92.7903380 111.6906232
  45.4439954  92.0410706 111.2925355  44.1235318  92.7813517 111.3079964
  40.1344589  99.3433722 107.1712830  40.8295493  99.9640414 107.3900145
  40.4767739  98.4929073 107.4465208  42.0336012  96.7933427 108.7000161
  42.5587336  97.1320700 107.9749481  41.9458365  95.8580443 108.5163296
  33.7176673 102.8605411 113.0595414  33.2781663 102.3681789 113.7528271
  34.4684790 102.3178378 112.8187489  41.8427793  94.2758797 121.3184087
  41.8925798  94.1108805 122.2599610  41.7341716  93.4086056 120.9281968
  30.7264052  96.9547343 108.6076176  30.8752172  97.6382807 107.9542849
  31.5330495  96.9352433 109.1225632  39.1331555  90.2589725 122.6343394
  40.0341418  90.1196190 122.3427392  39.2079530  90.4244180 123.5741572
  33.4674361  87.6356580 121.4796580  32.5977670  87.9290146 121.2079169
  33.7033841  88.2197025 122.2003844  43.3445990  96.6955739 121.5626109
  43.0530798  97.0585719 122.3989570  42.7318121  95.9822747 121.3839441
  44.5441672  94.2608619 114.0828679  45.3788564  94.6998423 114.2466240
  44.6800801  93.7847272 113.2636925  41.5933178  91.8188354 120.0306167
  42.0687300  92.0116000 119.2225018  40.6698744  91.8747539 119.7849551
  28.4816685  92.9812521 109.6137245  28.2362727  92.0774851 109.8117455
  28.6512599  92.9829671 108.6716723  36.1713395  83.8536197 118.9962001
  36.6895339  84.5897224 118.6708489  35.8168527  84.1600190 119.8308760
  27.7512332  88.7140878 107.1123407  27.0581577  88.7885233 106.4563443
  27.5064084  87.9501222 107.6344924  36.4225989  80.2736480 114.5162897
  36.7027743  79.6059669 115.1423324  37.2076596  80.4665575 114.0037561
  34.2259457  99.4495473 106.0787924  33.6533424 100.0685661 105.6258396
  34.7992251  99.9994835 106.6127846  40.2934847  88.6954114 118.2634473
  41.2452270  88.7952211 118.2846697  40.1238298  87.9032382 118.7732557
  38.3149227  85.7809697 118.4493874  37.7199159  86.0614710 117.7540362
  38.0298923  86.2703598 119.2210615  37.4456717  99.7332624 107.2096506
  38.3787390  99.6678185 107.4129382  37.3579930 100.5688890 106.7511039
  40.0744734  99.0498494 104.1700454  39.9958365  98.7158358 105.0636212
  40.8954401  99.5420262 104.1691926  42.7722925  91.9160233 117.3776772
  42.7399245  90.9776234 117.5636456  43.3823549  91.9944270 116.6442597
  34.6106256  90.7856286 103.4203976  35.5565361  90.6562494 103.4892394
  34.2320501  90.0470948 103.8973404  42.9217413  88.7071277 117.4235055
  42.4056462  87.9229733 117.2364984  43.8057362  88.3789993 117.5881575
  40.5828140  82.4512292 113.3830868  40.3852961  82.1427380 114.2674200
  41.1927846  83.1773931 113.5128798  48.5899475  92.9776240 116.5182809
  49.3202863  92.7161528 117.0790512  47.9806420  92.2404962 116.5584877
  46.6714772  91.1184103 117.1157260  45.9447935  90.9840068 116.5073752
  46.2562059  91.4260931 117.9213978  32.7949173  88.7106263 103.3558862
  31.8880628  88.4139375 103.4321575  33.0725154  88.4136081 102.4893148
  34.4111239  83.2543152 109.5103103  33.6011967  82.9090237 109.8858349
  35.0995656  82.9450696 110.0990714  36.3401787  82.3321199 111.1327399
  36.8932826  82.7516653 111.7917423  36.5771873  81.4056947 111.1750355
  31.5647958  85.5693198 103.4970841  32.4267122  85.8948096 103.7566658
  31.7498302  84.7824694 102.9843906  39.7180594  84.4421724 110.6406064
  39.1379263  85.1006528 110.2584116  39.4516527  83.6199069 110.2293481
  38.1684160  83.8426782 112.8427384  38.6683939  83.9543317 112.0341703
  38.8119768  83.5387835 113.4828192  38.5005472  86.6021815 109.6962412
  37.6131327  86.8871465 109.4782607  38.9159461  86.4415578 108.8489689
  41.8520008  86.6268336 113.4116751  42.6280398  87.1164788 113.6841368
  41.1268142  87.0526390 113.8688621  44.2892567  87.3395955 114.4690692
  44.8837058  87.0991691 113.7584000  44.3619151  86.6203085 115.0964228
  37.6448686  96.3666489 103.7910432  38.3484536  96.5716492 104.4068088
  36.9211334  96.9343251 104.0559515  38.4746496  92.1176351 109.9112702
  38.4181697  92.5744902 109.0720335  39.0274838  91.3567035 109.7335545
  42.2851302  87.9066083 110.7362822  42.0288236  87.5062718 111.5671029
  41.6604170  88.6209876 110.6112961  46.5963640  90.6462156 113.2434113
  46.0363198  90.7155345 114.0165675  45.9907143  90.4703140 112.5233609
  39.5535383  96.8049019 105.8408892  40.3880987  96.3730217 105.6586367
  39.3919726  96.6331032 106.7685786  39.2081275  93.3081132 107.2065231
  39.1530079  93.1425403 106.2653675  38.5827330  94.0157165 107.3627421
  32.5177401  82.8089241 106.7850550  32.5056070  83.7531081 106.9418821
  33.4100822  82.6259386 106.4910011  36.3329520  79.4032018 111.0396486
  35.5661916  78.8490504 111.1853169  36.7440225  79.4753886 111.9010638
  44.9909364 107.2746098 115.8725593  44.6527876 107.1587162 114.9846128
  45.8599133 106.8737263 115.8526600  40.8496180 109.1281574 111.8622484
  40.2861045 109.0371511 111.0938772  40.7348575 108.3081479 112.3424977
  46.4295739 112.7952542 107.1736949  45.7783718 113.3806622 106.7870963
  47.2240102 113.3258737 107.2331987  40.3551366 109.8841679 107.5724084
  41.1282242 109.3370666 107.4336959  40.7076765 110.7485928 107.7838545
  42.6917644 106.0434345 105.2042534  42.9443164 105.5215866 104.4425997
  41.7542203 105.8800491 105.3069217  47.7360927 105.0470124 113.0117277
  48.5224016 104.6289547 112.6607694  47.9999631 105.9516216 113.1798925
  47.9071004 110.4842974 107.7105934  47.2716837 110.5577600 108.4226838
  47.5768410 111.0736573 107.0325013  53.1369354 104.9845357 113.9150255
  53.8694526 104.4144574 114.1488085  52.3808709 104.5966957 114.3556761
  42.4113932 107.9462451 107.4066909  42.2950191 107.2707355 108.0747993
  42.5216192 107.4594825 106.5899062  44.7545473 107.4072598 111.1113598
  44.3903681 106.8803219 111.8226519  45.6112589 107.0171067 110.9380083
  50.6594774  98.6966931 118.3744864  50.3278099  99.5662342 118.1506079
  50.0640387  98.3803215 119.0538894  44.3950960 102.4362498 106.1074946
  44.5625363 103.3042734 106.4745417  44.2048129 102.5989780 105.1836236
  40.6038775 107.3493274 113.8077481  39.6789271 107.2169488 114.0155173
  40.8523188 108.1287493 114.3047423  44.3740181 104.8920155 107.0921613
  44.2539806 105.3377206 107.9307093  43.6792770 105.2405473 106.5335151
  42.1347073 117.6623797 110.7411744  42.0571103 118.6131622 110.8200225
  41.5308717 117.3169670 111.3986671  50.0725247 105.3641629 107.9201947
  50.9843103 105.5969015 107.7449645  49.5634894 105.9478673 107.3577026
  47.4161222 101.5399665 116.1691808  46.5545701 101.8380918 116.4608546
  47.4423657 101.7570063 115.2372841  44.2322792 110.0841855 112.5765614
  44.6961137 110.3629558 111.7870236  43.9679590 109.1825300 112.3938704
  41.1246873 109.6313337 115.5145377  41.6948230 110.0600605 114.8762861
  41.7154984 109.3495921 116.2129563  43.1691678 106.2065008 109.3855179
  43.8715721 106.6586051 109.8529105  42.8372306 105.5648826 110.0135072
  36.9117012 104.4648560 114.6872312  36.1216066 104.7206089 114.2112423
  37.4028259 105.2796898 114.7924353  38.8631757 104.8293139 111.6455789
  38.0662920 104.9411834 112.1639285  38.6357349 105.1679792 110.7796680
  44.4085442 113.0205950 109.4617284  44.2731117 113.8657486 109.8902132
  44.9495255 113.2225228 108.6983218  37.8614840 110.5381388 110.0345209
  38.3739360 111.3324638 110.1850774  38.5137552 109.8407679 109.9678811
  39.6709724 113.6547144 112.1167962  39.8476353 114.5765109 111.9288946
  40.4666558 113.3405564 112.5462342  47.7577906  96.5436512 117.9916178
  47.4142175  97.4338154 117.9155288  48.1256868  96.3538170 117.1285763
  35.8263756 108.8670042 110.8104780  36.6638978 109.2767051 110.5938487
  36.0042024 107.9269485 110.7804974  47.7228189 106.5345123 106.4988613
  47.2074812 107.3049728 106.7377000  47.4505497 105.8610259 107.1221674
  45.3075300 101.3794824 111.5573851  44.4516896 100.9901674 111.3779490
  45.7202251 101.4586785 110.6973637  46.8374446  98.9141167 115.9565411
  46.3339242  98.8771302 115.1433216  47.1305053  99.8233910 116.0162067
  43.0817332  98.9979897 114.9631593  43.9470329  98.8022706 114.6037482
  43.1494841  98.7690249 115.8900949  52.6962463 109.2877478 108.4341786
  51.9191905 108.9488637 107.9896948  53.3753944 109.2930101 107.7596751
  47.5114492 104.4072215 108.3248394  47.2064627 104.7218364 109.1758537
  48.4644934 104.4853635 108.3675727  45.9560924 110.5662439 109.9741348
  45.4282285 109.8315198 109.6614585  45.4548426 111.3437115 109.7281316
  40.6879651 101.2282105 112.3347959  41.2623403 101.0057286 111.6021152
  41.2750634 101.2970799 113.0876561  49.7459228 107.1155832 113.1412336
  50.2591110 107.7485824 113.6434046  50.3960452 106.5157027 112.7755696
  41.0149238 103.2586566 106.3543845  40.1786551 103.5961252 106.6753119
  40.8754008 103.1235546 105.4170982  42.9902319  98.1023354 111.0623029
  42.3366731  97.7872371 110.4379644  42.9482793  97.4799094 111.7882852
  44.1013524 108.3842649 102.9776321  43.1940585 108.1531902 103.1767470
  44.5984556 107.5880268 103.1650302  47.0081603 117.0940156 105.8973007
  46.3343301 117.3971853 106.5057965  47.3947425 117.8969236 105.5478464
  46.2240059 104.5905287 115.3870676  45.3062621 104.8120234 115.2292364
  46.6400203 104.6651598 114.5282384  47.0075107 105.9896703 110.5173357
  47.7546926 106.5018100 110.2080479  47.2766697 105.6680756 111.3777750
  45.2801757 108.4855244 107.5000311  44.3712976 108.2014276 107.5972781
  45.3096841 108.9054322 106.6403618  49.4553944 103.0253819 112.4992146
  48.7176701 102.5131205 112.8302389  49.7080718 102.5854201 111.6875423
  49.5565571  95.8030071 113.0933915  49.8624448  94.9427435 112.8059830
  50.2818176  96.3947691 112.8932909  35.8489928 106.2060758 111.4815513
  35.6514327 105.6130119 110.7566580  35.2936592 105.9012968 112.1991452
  43.8286651 106.0983864 113.6010106  43.8835261 105.1457701 113.5252583
  43.0177853 106.2543303 114.0851405  44.9777845 110.0263987 104.8388390
  44.5397275 109.3099846 104.3794027  45.7188286 110.2540102 104.2773481
  41.7679011 104.7160924 111.3600485  40.9546877 105.0155095 111.7665677
  42.2638005 104.3216613 112.0774967  53.0950960 108.3021184 110.8964708
  52.9568858 108.4922780 109.9685897  52.7387179 109.0640567 111.3532759
  41.2593086 102.2879280 116.9761720  41.8992465 102.1468039 116.2784683
  40.4270616 102.0013793 116.6000322  42.0353390 111.5881710 113.0896713
  42.8293988 111.0932030 112.8879288  41.3245082 111.0599573 112.7264418
  38.3436153 105.7324792 109.1656465  37.4133741 105.6709247 109.3826427
  38.4393625 105.2100744 108.3693106  38.2621702 102.2579605 111.7534707
  38.5228520 103.1724938 111.6443867  39.0838875 101.7904047 111.9031320
  45.2072818 117.2619828 108.1120086  45.3824573 116.7907872 108.9265709
  44.5205606 117.8885595 108.3401347  49.0989073 108.8848369 104.4320447
  48.4818243 108.1595197 104.3353500  48.6305561 109.6457729 104.0887521
  40.8887619 103.1033793 103.5541751  40.0117085 102.9822594 103.1903998
  41.3645372 102.3119872 103.3020640  44.0751545 115.4560084 110.8004272
  43.2919066 115.9981764 110.8942496  44.7744290 115.9734063 111.1998513
  47.3848195 101.2654713 113.4438477  47.8816894 100.5124675 113.1239547
  46.6135176 101.3019030 112.8781687  48.4677975 110.0226400 111.0176901
  47.5334254 110.1427863 110.8481605  48.6454644 109.1198867 110.7536910
  43.9683163 103.4072096 113.1710162  43.5980951 102.8543136 113.8591067
  44.4642256 102.8030230 112.6185162  51.8550527 105.8643720 111.5526935
  52.3210979 106.6971711 111.4787237  52.3058027 105.3988701 112.2572193
  49.9226758 112.2087541 108.5513087  50.1986602 112.0944135 109.4606961
  49.0531257 111.8105026 108.5125260  49.8267189  98.2324307 115.5917836
  48.9130269  98.4628533 115.7600043  50.2560291  98.3162751 116.4431868
  46.8922987 115.3842077 109.4560949  47.4210754 114.8734531 108.8431111
  47.1551207 115.0684607 110.3206482  39.3648497 100.8176087 119.4163268
  39.4289824 101.6790918 119.0040666  39.3015617 100.2050089 118.6835626
  35.6166312 104.6975649 108.9954657  35.9119753 103.7886327 108.9421711
  34.7154348 104.6763388 108.6735659  39.1460559 102.7731645 114.9782206
  38.4247145 103.3867613 114.8389679  39.9353815 103.3089410 114.8998852
  37.3454154 102.3789746 109.1193982  37.0166860 101.4987125 108.9369088
  37.6993525 102.3237415 110.0070371  40.4595977 102.6662716 109.4869460
  40.7992050 103.1948637 108.7648068  40.9068098 103.0043122 110.2628026
  43.1539418 101.0499767 118.9372528  42.8136238 100.2507580 119.3393208
  42.4478424 101.3501478 118.3649361  43.8055890  98.1349079 117.3899851
  44.6281959  97.6609557 117.2678741  44.0493953  98.9139563 117.8898537
  42.4464124 101.1637338 107.6862753  43.1672487 101.5418590 107.1826469
  41.8229428 101.8826214 107.7897731  46.5895247 101.8682487 108.6221085
  46.8058861 102.7507124 108.3209913  46.1089314 101.4768700 107.8926727
  41.3294468 104.8268200 115.1991830  41.1839049 105.1408503 116.0916111
  40.8519672 105.4453100 114.6462728  43.1890851 101.8170748 115.2472719
  43.1752420 100.9211841 114.9105017  43.9063279 101.8241412 115.8811005
  45.0416982 102.2508088 117.2925847  44.7834760 103.1725159 117.2910177
  44.5102022 101.8538523 117.9826311  42.5927747 100.6985128 110.5160289
  42.7143659  99.7701774 110.7151177  42.3029790 100.7123814 109.6038605
  45.4618938  98.3840038 113.6527009  45.4840635  98.4479372 112.6978989
  45.8786997  97.5444547 113.8467515  50.9738343 114.6725640 107.1712830
  51.6689248 115.2932332 107.3900145  51.3161493 113.8220991 107.4465208
  52.8729766 112.1225345 108.7000161  53.3981091 112.4612618 107.9749481
  52.7852119 111.1872360 108.5163296  41.5657806 112.2839261 108.6076176
  41.7145927 112.9674725 107.9542849  42.3724250 112.2644351 109.1225632
  39.3210439 108.3104438 109.6137245  39.0756481 107.4066768 109.8117455
  39.4906354 108.3121589 108.6716723  47.0107149  99.1828115 118.9962001
  47.5289093  99.9189142 118.6708489  46.6562282  99.4892108 119.8308760
  38.5906087 104.0432796 107.1123407  37.8975332 104.1177151 106.4563443
  38.3457839 103.2793140 107.6344924  47.2619743  95.6028397 114.5162897
  47.5421497  94.9351586 115.1423324  48.0470350  95.7957493 114.0037561
  45.0653212 114.7787391 106.0787924  44.4927179 115.3977578 105.6258396
  45.6386005 115.3286753 106.6127846  48.2850472 115.0624541 107.2096506
  49.2181145 114.9970103 107.4129382  48.1973684 115.8980808 106.7511039
  50.9138488 114.3790412 104.1700454  50.8352120 114.0450275 105.0636212
  51.7348155 114.8712180 104.1691926  45.4500010 106.1148204 103.4203976
  46.3959115 105.9854412 103.4892394  45.0714255 105.3762866 103.8973404
  51.4221895  97.7804210 113.3830868  51.2246716  97.4719298 114.2674200
  52.0321600  98.5065849 113.5128798  43.6342927 104.0398180 103.3558862
  42.7274383 103.7431293 103.4321575  43.9118908 103.7427998 102.4893148
  45.2504993  98.5835070 109.5103103  44.4405721  98.2382155 109.8858349
  45.9389410  98.2742614 110.0990714  47.1795541  97.6613117 111.1327399
  47.7326580  98.0808570 111.7917423  47.4165628  96.7348865 111.1750355
  42.4041712 100.8985116 103.4970841  43.2660876 101.2240014 103.7566658
  42.5892056 100.1116611 102.9843906  50.5574349  99.7713642 110.6406064
  49.9773018 100.4298446 110.2584116  50.2910281  98.9490987 110.2293481
  49.0077915  99.1718700 112.8427384  49.5077693  99.2835234 112.0341703
  49.6513523  98.8679753 113.4828192  49.3399227 101.9313732 109.6962412
  48.4525082 102.2163383 109.4782607  49.7553216 101.7707496 108.8489689
  52.6913763 101.9560253 113.4116751  53.4674153 102.4456706 113.6841368
  51.9661897 102.3818308 113.8688621  55.1286321 102.6687873 114.4690692
  55.7230812 102.4283609 113.7584000  55.2012905 101.9495003 115.0964228
  48.4842440 111.6958407 103.7910432  49.1878290 111.9008410 104.4068088
  47.7605089 112.2635169 104.0559515  49.3140250 107.4468268 109.9112702
  49.2575452 107.9036820 109.0720335  49.8668593 106.6858953 109.7335545
  53.1245056 103.2358000 110.7362822  52.8681990 102.8354636 111.5671029
  52.4997924 103.9501794 110.6112961  50.3929137 112.1340936 105.8408892
  51.2274741 111.7022135 105.6586367  50.2313480 111.9622950 106.7685786
  50.0475030 108.6373050 107.2065231  49.9923833 108.4717321 106.2653675
  49.4221085 109.3449082 107.3627421  43.3571155  98.1381159 106.7850550
  43.3449825  99.0822998 106.9418821  44.2494577  97.9551304 106.4910011
  47.1723275  94.7323935 111.0396486  46.4055670  94.1782422 111.1853169
  47.5833979  94.8045804 111.9010638  51.8542993 118.5878484 106.3543845
  51.0180305 118.9253170 106.6753119  51.7147762 118.4527463 105.4170982
  51.7281373 118.4325711 103.5541751  50.8510839 118.3114512 103.1903998
  52.2039126 117.6411789 103.3020640  49.4299841 119.3724714 107.1123407
  48.7369086 119.4469069 106.4563443  49.1851593 118.6085057 107.6344924
  54.4736682 119.3690098 103.3558862  53.5668137 119.0723211 103.4321575
  54.7512663 119.0719916 102.4893148  53.2435467 116.2277033 103.4970841
  54.1054631 116.5531932 103.7566658  53.4285811 115.4408529 102.9843906
  54.1964910 113.4673076 106.7850550  54.1843579 114.4114916 106.9418821
  55.0888331 113.2843222 106.4910011   3.6506586  32.7834608  92.6218314
   2.9768285  33.0866305  93.2303271   4.0372408  33.5863688  92.2723771
   5.7414056  24.5742821  91.1565754   5.1243227  23.8489649  91.0598806
   5.2730544  25.3352181  90.8132828   7.6163327  30.3620091  93.8958137
   8.3114231  30.9826784  94.1145451   7.9586477  29.5115443  94.1710515
   1.7078195  30.4681843  92.8033230   1.1352162  31.0872030  92.3503702
   2.2810989  31.0181205  93.3373152   4.9275455  30.7518993  93.9341813
   5.8606128  30.6864555  94.1374688   4.8398668  31.5875260  93.4756345
   7.5563472  30.0684864  90.8945760   7.4777103  29.7344727  91.7881518
   8.3773138  30.5606631  90.8937233   5.1267423  27.3852859  90.5155739
   5.8303273  27.5902861  91.1313394   4.4030072  27.9529621  90.7804822
   7.0354121  27.8235388  92.5654199   7.8699725  27.3916587  92.3831673
   6.8738464  27.6517402  93.4931093  15.6638396  38.3405039 102.6609375
  16.3016806  38.2211787 101.9572715  15.5459239  39.2885883 102.7197328
  12.4728102  38.2932467 102.5970900  12.1346614  38.1773532 101.7091435
  13.3417870  37.8923632 102.5771906   8.3314918  40.1467944  98.5867791
   7.7679783  40.0557881  97.8184079   8.2167313  39.3267848  99.0670284
  13.9114477  43.8138911  93.8982256  13.2602456  44.3992992  93.5116270
  14.7058839  44.3445106  93.9577293   7.8370104  40.9028049  94.2969390
   8.6100980  40.3557036  94.1582266   8.1895503  41.7672298  94.5083852
  10.1736382  37.0620715  91.9287840  10.4261902  36.5402236  91.1671303
   9.2360941  36.8986860  92.0314524  15.2179664  36.0656493  99.7362583
  16.0042754  35.6475916  99.3853000  15.4818369  36.9702585  99.9044232
  15.3889742  41.5029343  94.4351240  14.7535575  41.5763970  95.1472145
  15.0587148  42.0922942  93.7570319  20.6188091  36.0031726 100.6395562
  21.3513263  35.4330943 100.8733391  19.8627447  35.6153327 101.0802068
   9.8932670  38.9648821  94.1312215   9.7768928  38.2893724  94.7993299
  10.0034930  38.4781195  93.3144368  12.2364211  38.4258968  97.8358904
  11.8722418  37.8989589  98.5471826  13.0931327  38.0357437  97.6625390
  11.8769698  33.4548867  92.8320253  12.0444100  34.3229104  93.1990724
  11.6866867  33.6176149  91.9081542  14.6345031  41.9165846 104.4986083
  14.3345754  42.8190885 104.3901890  14.2896091  41.6498030 105.3507236
  18.0342175  34.4348387 102.1783521  17.1259052  34.3663795 101.8842282
  17.9829771  34.9120332 103.0065346  11.8558919  35.9106525  93.8166920
  11.7358544  36.3563576  94.6552400  11.1611507  36.2591843  93.2580458
   9.6165811  48.6810167  97.4657051   9.5389841  49.6317992  97.5445532
   9.0127455  48.3356039  98.1231977  17.5543985  36.3827998  94.6447254
  18.4661841  36.6155385  94.4694951  17.0453632  36.9665042  94.0822332
  16.1613567  41.3653817 102.0360835  15.5322430  41.5299531 101.3336903
  15.7739230  41.7795426 102.8071799  20.0402799  42.3008254  99.3905199
  19.3553838  42.6807156  98.8402232  20.1246649  42.9103581 100.1237147
  11.7141529  41.1028225  99.3010920  12.1779875  41.3815928  98.5115543
  11.4498327  40.2011669  99.1184011  10.6510415  37.2251377  96.1100485
  11.3534459  37.6772421  96.5774412  10.3191044  36.5835196  96.7380379
  18.4099559  42.8240169 104.1622900  19.2317003  42.4220356 103.8805581
  18.4061962  42.7208403 105.1139016  26.5005552  39.1678917 100.5107871
  25.7469260  38.5986315 100.3551876  26.6353093  39.1341582 101.4578506
  11.8904180  44.0392320  96.1862591  11.7549855  44.8843855  96.6147439
  12.4313993  44.2411597  95.4228524   5.3433577  41.5567758  96.7590516
   5.8558098  42.3511008  96.9096080   5.9956290  40.8594048  96.6924117
   7.1528462  44.6733514  98.8413269   7.3295090  45.5951479  98.6534253
   7.9485296  44.3591933  99.2707649   8.2759778  46.1911688 104.8423611
   8.8267203  46.0628751 104.0700605   7.4371253  46.4906577 104.4918504
   3.3082494  39.8856412  97.5350086   4.1457716  40.2953420  97.3183794
   3.4860762  38.9455854  97.5050280  15.2046926  37.5531493  93.2233919
  14.6893550  38.3236097  93.4622307  14.9324235  36.8796629  93.8466981
  12.7894037  32.3981193  98.2819158  11.9335634  32.0088044  98.1024796
  13.2020989  32.4773154  97.4218943  20.1781200  40.3063847  95.1587093
  19.4010643  39.9675007  94.7142255  20.8572681  40.3116471  94.4842058
  14.9933229  35.4258585  95.0493700  14.6883365  35.7404734  95.9003844
  15.9463672  35.5040005  95.0921033  13.4379661  41.5848808  96.6986654
  12.9101023  40.8501568  96.3859892  12.9367164  42.3623484  96.4526623
  18.4172507  39.7797829 101.8153701  17.7596182  40.4697090 101.9033829
  19.2212907  40.1694261 102.1587687  17.2277966  38.1342201  99.8657642
  17.7409848  38.7672193 100.3679352  17.8779190  37.5343397  99.5001002
   8.4967976  34.2772935  93.0789151   7.6605288  34.6147622  93.3998426
   8.3572746  34.1421915  92.1416288  11.5832262  39.4029018  89.7021627
  10.6759323  39.1718272  89.9012776  12.0803294  38.6066638  89.8895609
  14.4900340  48.1126526  92.6218314  13.8162039  48.4158222  93.2303271
  14.8766162  48.9155606  92.2723771  14.4893845  37.0083073  97.2418663
  15.2365664  37.5204470  96.9325785  14.7585434  36.6867125  98.1023057
  12.7620495  39.5041613  94.2245618  11.8531714  39.2200646  94.3218087
  12.7915579  39.9240692  93.3648924  17.9939762  43.1148203  97.9936785
  17.5402089  42.2739113  98.0501976  17.3633729  43.7509601  98.3311565
  16.9372682  34.0440189  99.2237453  16.1995439  33.5317575  99.5547695
  17.1899455  33.6040570  98.4120729  16.4372702  44.9524699  98.9286603
  16.7295676  45.5129757  98.2098969  16.9471322  45.2453260  99.6839762
  11.3105389  37.1170234 100.3255413  11.3653999  36.1644070 100.2497889
  10.4996591  37.2729673 100.8096711  12.4596583  41.0450357  91.5633696
  12.0216013  40.3286216  91.1039333  13.2007024  41.2726472  91.0018788
   9.2497749  35.7347294  98.0845792   8.4365614  36.0341464  98.4910984
   9.7456743  35.3402982  98.8020274  11.4006327  45.7305051 100.0180056
  11.3582506  45.9565897  99.0888588  12.3169026  45.4968425 100.1665858
  20.5769698  39.3207554  97.6210015  20.4387596  39.5109150  96.6931204
  20.2205916  40.0826937  98.0778066  20.6039077  41.3884081 102.6321286
  21.0375584  41.2959370 103.4804340  21.3170658  41.3641581 101.9941302
   9.5172128  42.6068080  99.8142019  10.3112726  42.1118400  99.6124594
   8.8063820  42.0785943  99.4509725  14.3366972  44.9886175 104.1654387
  14.3903994  45.5577111 104.9332103  13.4681753  45.1588060 103.8008424
   5.8254891  36.7511161  95.8901772   4.8952479  36.6895617  96.1071734
   5.9212363  36.2287114  95.0938413  21.4654627  41.4307782 105.1654172
  21.6590517  42.3353592 105.4113447  21.3655245  40.9715201 105.9992757
  12.0943404  43.1797102 103.4939856  11.9554489  42.8115886 104.3665794
  11.3058000  43.6944741 103.3223814  12.6891556  48.2806198  94.8365393
  12.8643311  47.8094241  95.6511015  12.0024344  48.9071964  95.0646654
  13.6448619  42.5578704 100.8828694  13.3098451  42.5179474 101.7786344
  13.1452564  41.8923420 100.4099104  16.5807810  39.9034739  91.1565754
  15.9636981  39.1781567  91.0598806  16.1124299  40.6644099  90.8132828
   7.2552641  51.4295561 101.6105253   7.4949239  52.0614085 102.2884272
   6.4121837  51.0783601 101.8970612   8.3706356  34.1220163  90.2787058
   7.4935823  34.0008964  89.9149305   8.8464109  33.3306241  90.0265947
  11.7680503  47.2374683 104.0146757  11.6950674  48.0429655 104.5266062
  11.3257896  47.4366649 103.1894778  11.5570282  46.4746453  97.5249578
  10.7737804  47.0168133  97.6187803  12.2563027  46.9920433  97.9243820
  14.8666932  32.2841083 100.1683784  15.3635632  31.5311045  99.8484854
  14.0953914  32.3205399  99.6026993  22.7196690  37.9881448 101.8102075
  22.7086566  38.8706164 101.4396008  21.8514069  37.6352999 101.6156612
  14.2279186  47.1361517 106.1704916  14.9407158  47.7708982 106.0980817
  13.7369215  47.2325383 105.3544917  15.9496713  41.0412770  97.7422207
  15.0152992  41.1614232  97.5726912  16.1273382  40.1385237  97.4782217
  19.3369264  36.8830089  98.2772241  19.8029717  37.7158081  98.2032544
  19.7876765  36.4175071  98.9817500  17.4045496  43.2273910  95.2758393
  17.6805339  43.1130505  96.1852268  16.5349994  42.8291395  95.2370567
  14.0399560  47.4760261  98.9191207  14.2221954  46.6581917  99.3818959
  14.8632546  47.6927954  98.4816097  14.3741725  46.4028446  96.1806256
  14.9029492  45.8920901  95.5676418  14.6369945  46.0870977  97.0451789
   7.7297473  47.4543563  98.9404031   7.0607848  47.9389691  98.4568072
   7.5910343  47.7012784  99.8547410  11.8702742  49.4887307 105.5386690
  12.4221050  49.6518928 106.3035775  12.2108935  50.0791744 104.8666715
   3.0985050  35.7162018  95.7199964   3.3938491  34.8072697  95.6667017
   2.1973086  35.6949758  95.3980966  15.0071129  47.4369282 102.5250372
  14.8822268  46.6359022 102.0161318  15.6650220  47.9315476 102.0364342
  17.0706037  45.2378302 104.1529922  16.1236373  45.1183653 104.0808249
  17.4188810  44.3500800 104.2356184   4.8272892  33.3976116  95.8439289
   4.4985598  32.5173495  95.6614395   5.1812262  33.3423784  96.7315678
  14.0752471  45.0331018 100.3534274  13.9277433  44.1047726 100.5341844
  14.9005964  45.0551109  99.8691350   7.9414715  33.6849086  96.2114766
   8.2810787  34.2135007  95.4893375   8.3886835  34.0229492  96.9873333
  17.6786592  45.8559577 101.4399147  18.6033140  45.6502439 101.3023598
  17.5101896  45.6075978 102.3488489   9.9282862  32.1823707  94.4108059
  10.6491225  32.5604960  93.9071776   9.3048166  32.9012584  94.5143037
  14.0713985  32.8868856  95.3466392  14.2877599  33.7693494  95.0455220
  13.5908052  32.4955070  94.6172034  17.4681909  46.3745245  96.7961239
  17.6418786  45.8091667  96.0435091  17.9610800  47.1746140  96.6140728
  10.0746485  31.7171498  97.2405596  10.1962396  30.7888144  97.4396483
   9.7848527  31.7310184  96.3283911  23.3221300  39.1381668  98.4151538
  23.7652446  38.3888993  98.0170662  22.4447810  39.1291804  98.0325270
  18.4557081  45.6912009  93.8958137  19.1507986  46.3118702  94.1145451
  18.7980231  44.8407360  94.1710515  20.3548504  43.1411715  95.4245468
  20.8799828  43.4798987  94.6994788  20.2670857  42.2058730  95.2408602
  12.0389165  49.2083698  99.7840721  11.5994155  48.7160077 100.4773577
  12.7897282  48.6656666  99.5432796   4.5181504  45.3995239  99.7865349
   5.3439524  45.0999011  99.4063992   4.1675556  44.6302861 100.2355138
   9.4863037  44.7521707 101.8563022   8.8643046  44.0892412 101.5565250
  10.1567904  44.7782839 101.1736670   2.7190109  43.3181565 100.7454282
   1.8822017  42.8903740 100.5638284   2.6913754  43.5114009 101.6825074
   9.0476544  43.3025630  95.3321483   9.1964664  43.9861095  94.6788156
   9.8542988  43.2830720  95.8470939  21.6658482  43.0434026 108.2871416
  21.3743290  43.4064007 109.1234877  21.0530613  42.3301034 108.1084748
  22.8654165  40.6086906 100.8073986  23.7001056  41.0476710 100.9711546
  23.0013293  40.1325559  99.9882232   6.8029177  39.3290808  96.3382552
   6.5575219  38.4253138  96.5362762   6.9725092  39.3307958  95.3962030
   6.0724825  35.0619166  93.8368713   5.3794070  35.1363520  93.1808749
   5.8276576  34.2979509  94.3590230  12.5471950  45.7973761  92.8033230
  11.9745917  46.4163948  92.3503702  13.1204743  46.3473122  93.3373152
  15.7669209  46.0810911  93.9341813  16.6999883  46.0156473  94.1374688
  15.6792422  46.9167178  93.4756345  18.3957226  45.3976781  90.8945760
  18.3170858  45.0636645  91.7881518  19.2166893  45.8898549  90.8937233
  21.0935417  38.2638521 104.1022079  21.0611737  37.3254521 104.2881763
  21.7036041  38.3422557 103.3687904  12.9318748  37.1334574  90.1449283
  13.8777853  37.0040782  90.2137701  12.5532993  36.3949235  90.6218711
  26.9111967  39.3254527 103.2428116  27.6415356  39.0639816 103.8035819
  26.3018913  38.5883249 103.2830184  24.9927264  37.4662390 103.8402567
  24.2660428  37.3318355 103.2319058  24.5774551  37.7739219 104.6459285
  11.1161665  35.0584550  90.0804168  10.2093121  34.7617663  90.1566882
  11.3937646  34.7614368  89.2138454  12.7323731  29.6021440  96.2348409
  11.9224459  29.2568525  96.6103656  13.4208148  29.2928983  96.8236021
   9.8860450  31.9171485  90.2216147  10.7479614  32.2426383  90.4811965
  10.0710794  31.1302981  89.7089213  18.0393086  30.7900012  97.3651370
  17.4591755  31.4484816  96.9829423  17.7729019  29.9677356  96.9538788
  16.8217964  32.9500102  96.4207719  15.9343819  33.2349753  96.2027913
  17.2371953  32.7893865  95.5734995  20.1732500  32.9746623 100.1362058
  20.9492891  33.4643075 100.4086675  19.4480635  33.4004677 100.5933927
  22.6105059  33.6874242 101.1935998  23.2049550  33.4469978 100.4829307
  22.6831643  32.9681373 101.8209535   4.8302215  47.5307853 101.5079163
   4.6956683  46.7708254 100.9417161   4.4134277  48.2548753 101.0407952
  15.9661178  42.7144777  90.5155739  16.6697028  42.9194779  91.1313394
  15.2423827  43.2821539  90.7804822  16.7958988  38.4654638  96.6358009
  16.7394189  38.9223189  95.7965641  17.3487331  37.7045322  96.4580852
  20.6063794  34.2544370  97.4608128  20.3500728  33.8541005  98.2916336
  19.9816662  34.9688164  97.3358267  24.9176132  36.9940443  99.9679420
  24.3575690  37.0633632 100.7410982  24.3119635  36.8181428  99.2478916
   7.9871341  48.4277170 101.7197606   7.8703725  49.3722603 101.6176296
   7.1663787  48.1250732 102.1083405  17.8747875  43.1527306  92.5654199
  18.7093479  42.7208504  92.3831673  17.7132218  42.9809320  93.4931093
  17.5293767  39.6559419  93.9310538  17.4742571  39.4903691  92.9898982
  16.9039823  40.3635452  94.0872728  10.8389893  29.1567528  93.5095856
  10.8268563  30.1009368  93.6664127  11.7313315  28.9737674  93.2155318
   9.0125855  49.0805432 104.9353534   9.9153102  49.1129042 105.2520029
   8.7863225  48.1505883 104.9499870  10.7679457  47.8336419 101.5963613
   9.8175088  47.8338280 101.4827985  11.0711943  47.0869153 101.0799648
  26.5032150  53.6696957 102.6609375  27.1410560  53.5503704 101.9572715
  26.3852993  54.6177801 102.7197328  23.3121857  53.6224385 102.5970900
  22.9740368  53.5065450 101.7091435  24.1811625  53.2215550 102.5771906
  19.1708672  55.4759861  98.5867791  18.6073537  55.3849798  97.8184079
  19.0561067  54.6559766  99.0670284  23.7941640  54.7759237 108.5557106
  23.7830280  54.3812035 107.6837609  23.9562279  54.0425309 109.1490877
  16.7173104  56.9711053 101.4252011  17.5094396  56.6301878 101.0098311
  16.9569754  57.0806028 102.3454165  24.7508231  59.1430829  93.8982256
  24.0996211  59.7284910  93.5116270  25.5452594  59.6737024  93.9577293
  18.6763858  56.2319966  94.2969390  19.4494734  55.6848953  94.1582266
  19.0289257  57.0964216  94.5083852  20.5148901  57.5596349 107.5036290
  20.2238767  58.4641979 107.3882956  21.1505885  57.6012876 108.2180359
  21.4405108  54.9373197 104.0937649  22.0368680  54.7129219 103.3794612
  21.4980079  54.1957943 104.6963097  21.0130136  52.3912632  91.9287840
  21.2655657  51.8694154  91.1671303  20.0754695  52.2278778  92.0314524
  26.0573419  51.3948411  99.7362583  26.8436508  50.9767834  99.3853000
  26.3212123  52.2994503  99.9044232  31.4581846  51.3323644 100.6395562
  32.1907018  50.7622861 100.8733391  30.7021202  50.9445244 101.0802068
  20.7326425  54.2940738  94.1312215  20.6162683  53.6185642  94.7993299
  20.8428685  53.8073112  93.3144368  23.0757966  53.7550885  97.8358904
  22.7116173  53.2281506  98.5471826  23.9325082  53.3649355  97.6625390
  28.9807266  45.0445218 105.0990171  28.6490591  45.9140629 104.8751386
  28.3852880  44.7281502 105.7784201  22.7163453  48.7840785  92.8320253
  22.8837855  49.6521022  93.1990724  22.5260622  48.9468067  91.9081542
  25.4738786  57.2457764 104.4986083  25.1739509  58.1482803 104.3901890
  25.1289845  56.9789947 105.3507236  18.9251267  53.6971561 100.5322788
  18.0001764  53.5647775 100.7400479  19.1735680  54.4765780 101.0292730
  28.8735930  49.7640304 102.1783521  27.9652807  49.6955713 101.8842282
  28.8223525  50.2412249 103.0065346  22.6952674  51.2398443  93.8166920
  22.5752299  51.6855493  94.6552400  22.0005262  51.5883760  93.2580458
  16.2860078  53.3404834 101.3666577  16.4152459  53.5939313 102.2805988
  15.6057530  53.9332542 101.0471232  20.4559566  64.0102084  97.4657051
  20.3783595  64.9609910  97.5445532  19.8521209  63.6647957  98.1231977
  22.9476795  51.1829950 110.1218418  22.1710129  51.7423870 110.1121283
  23.5867358  51.6686733 110.6433288  30.7397576  47.9656743 103.9561395
  30.0971956  48.2589276 103.3101189  30.2352505  47.8509663 104.7614591
  28.3937740  51.7119916  94.6447254  29.3055596  51.9447303  94.4694951
  27.8847387  52.2956960  94.0822332  21.2023168  53.9915403 109.6836385
  21.9437852  54.5300447 109.4071208  20.4960153  54.6181692 109.8407937
  26.6778507  56.1344544 108.2808546  27.0861863  55.6926954 107.5363179
  25.9555769  55.5597171 108.5342739  23.0309577  51.0717150 105.6542103
  23.8770773  51.4956564 105.7976752  22.9708215  50.4150775 106.3480666
  27.0007322  56.6945734 102.0360835  26.3716184  56.8591448 101.3336903
  26.6132984  57.1087344 102.8071799  26.1809023  48.7321519 107.3123277
  25.9369955  49.4863579 106.7757553  26.4568953  49.1106866 108.1470524
  28.1347485  55.2760131 105.9900543  28.3464381  55.9191891 105.3134924
  28.0877234  54.4422448 105.5222473  25.7373714  47.8877952 102.8937115
  24.8758193  48.1859205 103.1853852  25.7636149  48.1048351 101.9618147
  22.5535284  56.4320142  99.3010920  23.0173629  56.7107845  98.5115543
  22.2892082  55.5303587  99.1184011  19.4459365  55.9791624 102.2390684
  20.0160722  56.4078892 101.6008168  20.0367477  55.6974209 102.9374869
  21.4904170  52.5543295  96.1100485  22.1928213  53.0064338  96.5774412
  21.1584798  51.9127114  96.7380379  19.9384531  51.1455051 110.4851695
  19.3083192  51.8271332 110.7187092  19.8320619  51.0338133 109.5404833
  15.2329504  50.8126847 101.4117619  14.4428558  51.0684376 100.9357730
  15.7240751  51.6275185 101.5169660  29.2493313  58.1532087 104.1622900
  30.0710757  57.7512274 103.8805581  29.2455716  58.0500321 105.1139016
  17.1844249  51.1771427  98.3701096  16.3875413  51.2890121  98.8884591
  16.9569841  51.5158079  97.5041986  23.0149917  57.7016130 106.3183610
  23.0794349  58.1636537 107.1541782  22.3060841  57.0713495 106.4465920
  13.5167207  51.0657338 103.8432610  13.7675245  51.9504348 104.1090186
  14.0526755  50.8861939 103.0707702  22.7297935  59.3684237  96.1862591
  22.5943609  60.2135773  96.6147439  23.2707747  59.5703515  95.4228524
  16.1827332  56.8859675  96.7590516  16.6951852  57.6802926  96.9096080
  16.8350045  56.1885966  96.6924117  17.9922217  60.0025432  98.8413269
  18.1688845  60.9243396  98.6534253  18.7879050  59.6883851  99.2707649
  22.1333235  46.8633696 110.4397202  22.8742949  47.4640849 110.3601665
  22.3651158  46.1211334 109.8815245  17.2774573  52.0490064 108.7175432
  17.1628088  51.1475321 109.0182531  16.4219091  52.2953760 108.3660249
  24.3566411  59.9907804 110.3162933  23.9130265  59.2044182 109.9983837
  25.0183624  60.1786954 109.6506824  19.1153532  61.5203605 104.8423611
  19.6660957  61.3920669 104.0700605  18.2765008  61.8198495 104.4918504
  26.4547649  60.2710604 108.3444334  26.4366124  61.0919485 107.8524603
  27.3767569  60.1464679 108.5694475  22.9120703  57.7854733 109.1867842
  23.4449040  57.0243021 108.9567150  22.3834784  57.4928385 109.9291997
  26.0790398  42.8914799 104.7161484  25.7354667  43.7816441 104.6400595
  26.4469361  42.7016457 103.8531069  14.1476249  55.2148330  97.5350086
  14.9851471  55.6245338  97.3183794  14.3254516  54.2747772  97.5050280
  26.0440681  52.8823410  93.2233919  25.5287304  53.6528015  93.4622307
  25.7717989  52.2088547  93.8466981  23.6287792  47.7273111  98.2819158
  22.7729388  47.3379962  98.1024796  24.0414744  47.8065072  97.4218943
  25.1586938  45.2619454 102.6810717  24.6551734  45.2249590 101.8678523
  25.4517545  46.1712197 102.7407374  21.4029824  45.3458184 101.6876899
  22.2682821  45.1500993 101.3282789  21.4707333  45.1168536 102.6146256
  25.8326984  50.7550502  95.0493700  25.5277120  51.0696652  95.9003844
  26.7857426  50.8331922  95.0921033  24.2773416  56.9140726  96.6986654
  23.7494777  56.1793485  96.3859892  23.7760919  57.6915402  96.4526623
  29.2566262  55.1089746 101.8153701  28.5989936  55.7989008 101.9033829
  30.0606661  55.4986178 102.1587687  19.0092143  47.5760392  99.0593266
  19.5835895  47.3535574  98.3266459  19.5963126  47.6449087  99.8121867
  28.0671721  53.4634119  99.8657642  28.5803602  54.0964111 100.3679352
  28.7172945  52.8635314  99.5001002  19.3361731  49.6064853  93.0789151
  18.4999043  49.9439540  93.3998426  19.1966500  49.4713833  92.1416288
  21.3114811  44.4501641  97.7868335  20.6579223  44.1350658  97.1624950
  21.2695285  43.8277381  98.5128158  22.4226016  54.7320936  89.7021627
  21.5153078  54.5010190  89.9012776  22.9197048  53.9358555  89.8895609
  25.3294095  63.4418443  92.6218314  24.6555794  63.7450140  93.2303271
  25.7159917  64.2447524  92.2723771  24.5452552  50.9383575 102.1115983
  23.6275113  51.1598522 101.9537671  24.9612695  51.0129885 101.2527690
  25.3287599  52.3374990  97.2418663  26.0759418  52.8496387  96.9325785
  25.5979189  52.0159043  98.1023057  23.6014249  54.8333531  94.2245618
  22.6925469  54.5492564  94.3218087  23.6309333  55.2532609  93.3648924
  27.7766436  49.3732106  99.2237453  27.0389193  48.8609493  99.5547695
  28.0293210  48.9332488  98.4120729  27.2766456  60.2816617  98.9286603
  27.5689430  60.8421674  98.2098969  27.7865077  60.5745178  99.6839762
  27.8778064  42.1508358  99.8179222  28.1836941  41.2905722  99.5305137
  28.6030669  42.7425979  99.6178216  14.1702420  52.5539045  98.2060820
  13.9726820  51.9608406  97.4811886  13.6149084  52.2491255  98.9236759
  22.1499143  52.4462152 100.3255413  22.2047753  51.4935988 100.2497889
  21.3390346  52.6021591 100.8096711  23.2990337  56.3742275  91.5633696
  22.8609767  55.6578134  91.1039333  24.0400778  56.6018389  91.0018788
  20.0891503  51.0639211  98.0845792  19.2759369  51.3633382  98.4910984
  20.5850498  50.6694900  98.8020274  22.2400081  61.0596968 100.0180056
  22.1976260  61.2857815  99.0888588  23.1562780  60.8260343 100.1665858
  25.6865715  51.5281036 106.9160686  26.0415103  51.7552509 107.7755151
  26.3337846  51.8599413 106.2937941  19.5805578  48.6357567 103.7007027
  20.2204957  48.4946326 103.0029990  18.7483109  48.3492080 103.3245629
  20.3565882  57.9359997  99.8142019  21.1506481  57.4410317  99.6124594
  19.6457574  57.4077860  99.4509725  25.1760727  60.3178093 104.1654387
  25.2297749  60.8869029 104.9332103  24.3075508  60.4879978 103.8008424
  16.6648646  52.0803079  95.8901772  15.7346234  52.0187534  96.1071734
  16.7606118  51.5579032  95.0938413  16.5834195  48.6057892  98.4780014
  16.8441012  49.5203225  98.3689174  17.4051367  48.1382334  98.6276626
  18.0559120  50.0195649 105.6478838  18.7282173  49.8113011 104.9991487
  17.2288906  49.8217735 105.2084070  32.3048381  56.7599699 105.1654172
  32.4984271  57.6645510 105.4113447  32.2048999  56.3007118 105.9992757
  23.9584692  46.6457590 107.6644499  23.3112607  47.3447540 107.5708975
  24.7285707  47.0793734 108.0320747  27.3663490  56.9106442 110.7395052
  27.2148996  56.6816994 109.8225136  27.3568169  57.8677043 110.7526397
  24.1348826  54.4838355 105.7241319  25.0640886  54.6349514 105.5510286
  23.7139856  54.5722376 104.8689965  22.9337158  58.5089019 103.4939856
  22.7948244  58.1407804 104.3665794  22.1451754  59.0236659 103.3223814
  23.5285310  63.6098116  94.8365393  23.7037066  63.1386159  95.6511015
  22.8418098  64.2363882  95.0646654  24.4842373  57.8870622 100.8828694
  24.1492206  57.8471392 101.7786344  23.9846319  57.2215338 100.4099104
  18.4586617  53.2938252 106.4081275  18.3206415  52.5618491 107.0092814
  19.3691541  53.2047152 106.1265463  27.4201565  55.2326656  91.1565754
  26.8030736  54.5073484  91.0598806  26.9518053  55.9936017  90.8132828
  21.0868918  53.0058211 105.8964955  21.7968536  52.3651403 105.8551573
  21.0438226  53.2571106 106.8191136  29.0755697  59.9425565 108.8171534
  29.0168243  59.2584785 108.1502117  29.4775215  60.6844555 108.3652160
  19.7997852  49.9923429 107.7160594  19.2635209  49.5414168 108.3682191
  19.2114560  50.1269338 106.9731059  18.0946395  66.7587478 101.6105253
  18.3342994  67.3906003 102.2884272  17.2515592  66.4075518 101.8970612
  19.2100111  49.4512081  90.2787058  18.3329577  49.3300881  89.9149305
  19.6857864  48.6598159  90.0265947  29.0773104  57.9065149 107.0485514
  28.1899883  57.5691070 107.1711913  29.6471655  57.1748180 107.2854279
  10.7302251  54.2389240 100.3728565  11.4173291  53.9250970  99.7849580
  10.5750380  55.1430605 100.0995817  15.5336973  49.1279437 104.8013589
  15.4495162  48.5205106 104.0663999  14.7119679  49.6188455 104.8023085
  22.6074257  62.5666601 104.0146757  22.5344429  63.3721572 104.5266062
  22.1651650  62.7658567 103.1894778  22.3964037  61.8038371  97.5249578
  21.6131559  62.3460051  97.6187803  23.0956782  62.3212351  97.9243820
  25.7060687  47.6133000 100.1683784  26.2029386  46.8602963  99.8484854
  24.9347668  47.6497317  99.6026993  25.0672941  62.4653435 106.1704916
  25.7800913  63.1000900 106.0980817  24.5762969  62.5617301 105.3544917
  26.7890468  56.3704688  97.7422207  25.8546746  56.4906150  97.5726912
  26.9667136  55.4677154  97.4782217  22.2895656  49.7550383  99.8955468
  21.9193443  49.2021424 100.5836374  22.7854748  49.1508517  99.3430469
  30.1763019  52.2122007  98.2772241  30.6423471  53.0449998  98.2032544
  30.6270519  51.7466988  98.9817500  20.1184854  60.2147878 106.9910486
  20.8194314  60.8484361 107.1439881  19.6479969  60.5562610 106.2306126
  28.1479682  44.5802594 102.3163143  27.2342762  44.8106821 102.4845350
  28.5772783  44.6641038 103.1677175  27.9186140  52.7692486 104.8163037
  27.2657590  53.0168393 104.1615490  28.2966520  51.9556624 104.4825514
  24.8793314  62.8052179  98.9191207  25.0615709  61.9873835  99.3818959
  25.7026300  63.0219871  98.4816097  25.2135480  61.7320364  96.1806256
  25.7423246  61.2212819  95.5676418  25.4763699  61.4162894  97.0451789
  23.9673713  53.5112297 111.3029074  23.2914350  53.4106426 111.9731449
  24.7901347  53.3551511 111.7665071  15.7152572  59.7484233 103.9241589
  16.3006009  59.0027921 104.0569493  15.5177411  60.0588190 104.8078253
  18.5691228  62.7835481  98.9404031  17.9001603  63.2681608  98.4568072
  18.4304097  63.0304701  99.8547410  10.3070227  52.3189834 102.6446032
  10.3454327  51.7853424 103.4383150   9.8010520  51.7925039 102.0257009
  22.7096496  64.8179224 105.5386690  23.2614804  64.9810846 106.3035775
  23.0502690  65.4083662 104.8666715  17.6860989  47.1654374 106.1408575
  17.7502316  48.0269205 105.7285972  17.6228110  46.5528376 105.4080933
  17.1613262  49.2377507 109.7881609  17.7885301  48.8554584 110.4019133
  16.3041181  49.0191709 110.1537301  27.5607370  59.6440482 111.3935344
  28.1047274  60.2570440 110.8990299  26.9794215  60.2020060 111.9102357
  13.9378805  51.0453936  95.7199964  14.2332246  50.1364614  95.6667017
  13.0366840  51.0241675  95.3980966  25.8464883  62.7661200 102.5250372
  25.7216023  61.9650940 102.0161318  26.5043975  63.2607393 102.0364342
  17.4673052  49.1209932 101.7027512  16.7459637  49.7345900 101.5634986
  18.2566307  49.6567697 101.6244158  27.9099792  60.5670220 104.1529922
  26.9630127  60.4475571 104.0808249  28.2582565  59.6792718 104.2356184
  20.2699365  46.4564359 107.9768164  20.7933767  46.7026655 108.7394473
  20.0511698  47.2884394 107.5571301  15.6666646  48.7268033  95.8439289
  15.3379352  47.8465412  95.6614395  16.0206017  48.6715702  96.7315678
  24.9146225  60.3622936 100.3534274  24.7671188  59.4339644 100.5341844
  25.7399719  60.3843027  99.8691350  18.7808469  49.0141003  96.2114766
  19.1204542  49.5426924  95.4893375  19.2280590  49.3521409  96.9873333
  21.4751910  47.3978054 105.6617835  21.1348731  46.5985867 106.0638514
  20.7690916  47.6979765 105.0894668  22.1268382  44.4827366 104.1145158
  22.9494451  44.0087845 103.9924048  22.3706446  45.2617850 104.6143844
  20.7676617  47.5115625  94.4108059  21.4884979  47.8896878  93.9071776
  20.1441921  48.2304502  94.5143037  24.9107739  48.2160774  95.3466392
  25.1271354  49.0985412  95.0455220  24.4301807  47.8246987  94.6172034
  19.6506961  51.1746487 101.9237136  19.5051541  51.4886790 102.8161418
  19.1732164  51.7931387 101.3708035  21.5103344  48.1649035 101.9718026
  21.4964912  47.2690128 101.6350324  22.2275772  48.1719699 102.6056312
  23.3629474  48.5986375 104.0171153  23.1047252  49.5203446 104.0155484
  22.8314515  48.2016810 104.7071617  14.1252623  53.7151831 104.8624797
  13.5806091  54.4911639 104.9945072  15.0031973  54.0622636 104.7043919
  20.9140240  47.0463415  97.2405596  21.0356151  46.1180061  97.4396483
  20.6242282  47.0602101  96.3283911  23.7831430  44.7318326 100.3772316
  23.8053127  44.7957659  99.4224295  24.1999489  43.8922834 100.5712822
  14.9118645  52.8421728 107.7554954  14.1700381  52.9904363 108.3419585
  14.5911389  53.1029993 106.8921704  22.8562307  62.3837706 107.5535344
  23.1649434  62.1386853 108.4258044  23.6537789  62.5884344 107.0654214
  22.8782919  64.5375616  99.7840721  22.4387910  64.0451994 100.4773577
  23.6291036  63.9948583  99.5432796  15.3575258  60.7287156  99.7865349
  16.1833278  60.4290928  99.4063992  15.0069310  59.9594779 100.2355138
  20.3256792  60.0813625 101.8563022  19.7036801  59.4184330 101.5565250
  20.9961659  60.1074757 101.1736670  13.5583864  58.6473483 100.7454282
  12.7215772  58.2195657 100.5638284  13.5307509  58.8405926 101.6825074
  20.3981319  48.5595413 111.4495528  20.4469475  49.4357535 111.0673298
  20.9403833  48.0172806 110.8767172  30.8836165  59.1036536 110.7296666
  30.0931709  59.0860675 110.1901165  30.6469519  59.6424830 111.4845702
  31.0034040  55.9529002 108.0429394  31.0532045  55.7879010 108.9844917
  30.8947963  55.0856261 107.6527275  19.8870299  58.6317548  95.3321483
  20.0358419  59.3153012  94.6788156  20.6936742  58.6122638  95.8470939
  28.2937802  51.9359930 109.3588701  29.1947665  51.7966395 109.0672699
  28.3685777  52.1014385 110.2986878  22.6280608  49.3126785 108.2041887
  21.7583917  49.6060351 107.9324476  22.8640088  49.8967230 108.9249151
  32.5052237  58.3725944 108.2871416  32.2137045  58.7355924 109.1234877
  31.8924368  57.6592952 108.1084748  30.7539425  53.4958558 106.7551474
  31.2293547  53.6886205 105.9470325  29.8304990  53.5517744 106.5094857
  17.6422932  54.6582726  96.3382552  17.3968973  53.7545056  96.5362762
  17.8118846  54.6599876  95.3962030  25.3319641  45.5306402 105.7207308
  25.8501585  46.2667429 105.3953796  24.9774774  45.8370395 106.5554067
  16.9118579  50.3911083  93.8368713  16.2187824  50.4655438  93.1808749
  16.6670331  49.6271427  94.3590230  25.5832236  41.9506685 101.2408204
  25.8633989  41.2829874 101.8668631  26.3682843  42.1435780 100.7282868
  23.3865704  61.1265678  92.8033230  22.8139671  61.7455866  92.3503702
  23.9598498  61.6765040  93.3373152  29.4541094  50.3724319 104.9879779
  30.4058517  50.4722416 105.0092003  29.2844544  49.5802587 105.4977864
  27.4755473  47.4579902 105.1739180  26.8805406  47.7384914 104.4785669
  27.1905170  47.9473803 105.9455921  29.2350981  60.7268699  90.8945760
  29.1564612  60.3928563  91.7881518  30.0560647  61.2190467  90.8937233
  31.9329172  53.5930438 104.1022079  31.9005492  52.6546439 104.2881763
  32.5429795  53.6714475 103.3687904  23.7712503  52.4626491  90.1449283
  24.7171607  52.3332699  90.2137701  23.3926748  51.7241153  90.6218711
  32.0823660  50.3841482 104.1480362  31.5662709  49.5999938 103.9610291
  32.9663609  50.0560198 104.3126882  29.7434387  44.1282497 100.1076175
  29.5459208  43.8197585 100.9919507  30.3534093  44.8544136 100.2374105
  23.6551195  56.5144237 111.6049940  24.5754205  56.6922836 111.7989986
  23.6200778  55.5700283 111.4529639  21.9555420  50.3876468  90.0804168
  21.0486875  50.0909580  90.1566882  22.2331401  50.0906286  89.2138454
  12.8733360  51.7082831 100.5303215  12.5536144  50.8548139 100.2377589
  12.3266788  51.9231409 101.2861182  16.6513268  54.4245272 104.2472721
  16.8699277  55.3562380 104.2660755  17.0639041  54.0653246 105.0327525
  23.5717485  44.9313357  96.2348409  22.7618214  44.5860442  96.6103656
  24.2601902  44.6220901  96.8236021  25.5008034  44.0091404  97.8572706
  26.0539072  44.4286858  98.5162729  25.7378120  43.0827152  97.8995662
  20.7254204  47.2463403  90.2216147  21.5873368  47.5718301  90.4811965
  20.9104549  46.4594899  89.7089213  12.7421620  55.3285742 102.4996336
  12.0485092  54.9139695 101.9866291  13.4894611  55.3706279 101.9029755
  28.8786841  46.1191929  97.3651370  28.2985510  46.7776733  96.9829423
  28.6122774  45.2969274  96.9538788  27.3290407  45.5196987  99.5672691
  27.8290186  45.6313521  98.7587010  27.9726015  45.2158040 100.2073499
  21.3872403  53.4275617 112.4540532  20.9039485  54.2275977 112.6604421
  21.4733342  53.4383561 111.5007976  14.6558363  55.2603996 100.3762351
  14.6329051  55.3591684  99.4244234  14.9658999  56.1069147 100.6979517
  17.3145741  57.3180151 104.4908965  18.2688994  57.2864094 104.4238897
  17.1158264  56.8570775 105.3059191  17.9045123  55.8881267 107.0579763
  18.7238012  56.3825346 107.0814600  18.1781930  54.9713235 107.0297331
  27.6611719  48.2792020  96.4207719  26.7737574  48.5641670  96.2027913
  28.0765708  48.1185783  95.5734995  31.0126255  48.3038541 100.1362058
  31.7886645  48.7934993 100.4086675  30.2874389  48.7296595 100.5933927
  33.4498814  49.0166160 101.1935998  34.0443304  48.7761896 100.4829307
  33.5225397  48.2973290 101.8209535  15.6695969  62.8599771 101.5079163
  15.5350437  62.1000172 100.9417161  15.2528032  63.5840671 101.0407952
  26.8054932  58.0436694  90.5155739  27.5090782  58.2486697  91.1313394
  26.0817581  58.6113456  90.7804822  27.6352743  53.7946556  96.6358009
  27.5787944  54.2515107  95.7965641  28.1881085  53.0337240  96.4580852
  31.4457549  49.5836287  97.4608128  31.1894483  49.1832923  98.2916336
  30.8210417  50.2980081  97.3358267  18.8265095  63.7569088 101.7197606
  18.7097479  64.7014520 101.6176296  18.0057541  63.4542649 102.1083405
  13.1580037  50.2219401 107.7571960  13.8038900  49.7118355 108.2459185
  12.9497188  50.9588083 108.3315385  25.6833429  57.2900249 113.2564101
  26.5524589  57.4640901 112.8950736  25.2040181  58.1094665 113.1339830
  21.6783647  44.4859446  93.5095856  21.6662317  45.4301286  93.6664127
  22.5707069  44.3029591  93.2155318  19.8519609  64.4097350 104.9353534
  20.7546856  64.4420960 105.2520029  19.6256979  63.4797801 104.9499870
  21.6073211  63.1628336 101.5963613  20.6568842  63.1630198 101.4827985
  21.9105697  62.4161071 101.0799648  25.4935767  41.0802222  97.7641793
  24.7268163  40.5260709  97.9098475  25.9046472  41.1524091  98.6255945
  34.6335394  70.1051154 108.5557106  34.6224035  69.7103953 107.6837609
  34.7956034  69.3717227 109.1490877  27.5566859  72.3002971 101.4252011
  28.3488151  71.9593795 101.0098311  27.7963509  72.4097946 102.3454165
  31.3542655  72.8888266 107.5036290  31.0632521  73.7933897 107.3882956
  31.9899640  72.9304794 108.2180359  32.2798862  70.2665115 104.0937649
  32.8762434  70.0421137 103.3794612  32.3373834  69.5249860 104.6963097
  27.1253833  68.6696752 101.3666577  27.2546214  68.9231231 102.2805988
  26.4451284  69.2624460 101.0471232  31.2953320  79.3394002  97.4657051
  31.2177350  80.2901827  97.5445532  30.6914964  78.9939875  98.1231977
  33.7870550  66.5121868 110.1218418  33.0103884  67.0715788 110.1121283
  34.4261113  66.9978651 110.6433288  32.0416922  69.3207321 109.6836385
  32.7831607  69.8592365 109.4071208  31.3353908  69.9473610 109.8407937
  37.5172262  71.4636461 108.2808546  37.9255618  71.0218872 107.5363179
  36.7949523  70.8889089 108.5342739  33.8703332  66.4009068 105.6542103
  34.7164527  66.8248482 105.7976752  33.8101970  65.7442692 106.3480666
  38.9741240  70.6052049 105.9900543  39.1858135  71.2483809 105.3134924
  38.9270988  69.7714365 105.5222473  30.7778286  66.4746969 110.4851695
  30.1476947  67.1563250 110.7187092  30.6714374  66.3630051 109.5404833
  26.0723258  66.1418765 101.4117619  25.2822312  66.3976294 100.9357730
  26.5634506  66.9567103 101.5169660  28.0238004  66.5063344  98.3701096
  27.2269167  66.6182039  98.8884591  27.7963596  66.8449997  97.5041986
  33.8543671  73.0308048 106.3183610  33.9188104  73.4928455 107.1541782
  33.1454595  72.4005412 106.4465920  24.3560961  66.3949256 103.8432610
  24.6069000  67.2796265 104.1090186  24.8920510  66.2153857 103.0707702
  30.0559029  60.7767735 112.8476946  29.6625974  60.2233933 113.5224590
  30.8725169  61.0878313 113.2383463  27.0221086  72.2151593  96.7590516
  27.5345607  73.0094843  96.9096080  27.6743799  71.5177884  96.6924117
  28.8315971  75.3317349  98.8413269  29.0082599  76.2535314  98.6534253
  29.6272805  75.0175769  99.2707649  32.9726990  62.1925614 110.4397202
  33.7136703  62.7932767 110.3601665  33.2044912  61.4503252 109.8815245
  28.1168328  67.3781981 108.7175432  28.0021843  66.4767239 109.0182531
  27.2612845  67.6245678 108.3660249  35.1960165  75.3199722 110.3162933
  34.7524020  74.5336100 109.9983837  35.8577379  75.5078872 109.6506824
  29.9547287  76.8495523 104.8423611  30.5054712  76.7212587 104.0700605
  29.1158762  77.1490412 104.4918504  37.2941403  75.6002522 108.3444334
  37.2759879  76.4211403 107.8524603  38.2161324  75.4756597 108.5694475
  33.7514458  73.1146651 109.1867842  34.2842794  72.3534939 108.9567150
  33.2228539  72.8220303 109.9291997  24.9870003  70.5440247  97.5350086
  25.8245225  70.9537256  97.3183794  25.1648271  69.6039690  97.5050280
  30.1755485  64.9356771  93.0789151  29.3392797  65.2731457  93.3998426
  30.0360255  64.8005751  92.1416288  25.0096174  67.8830963  98.2060820
  24.8120574  67.2900323  97.4811886  24.4542838  67.5783173  98.9236759
  36.5259470  66.8572953 106.9160686  36.8808857  67.0844427 107.7755151
  37.1731601  67.1891330 106.2937941  30.4199333  63.9649484 103.7007027
  31.0598712  63.8238244 103.0029990  29.5876863  63.6783998 103.3245629
  27.5042400  67.4094997  95.8901772  26.5739988  67.3479452  96.1071734
  27.5999872  66.8870949  95.0938413  28.8952874  65.3487567 105.6478838
  29.5675928  65.1404929 104.9991487  28.0682661  65.1509653 105.2084070
  34.7978446  61.9749508 107.6644499  34.1506361  62.6739457 107.5708975
  35.5679462  62.4085651 108.0320747  38.2057244  72.2398360 110.7395052
  38.0542751  72.0108911 109.8225136  38.1961924  73.1968961 110.7526397
  34.9742581  69.8130272 105.7241319  35.9034641  69.9641432 105.5510286
  34.5533611  69.9014293 104.8689965  34.3679065  78.9390033  94.8365393
  34.5430820  78.4678077  95.6511015  33.6811853  79.5655800  95.0646654
  29.2980372  68.6230170 106.4081275  29.1600170  67.8910408 107.0092814
  30.2085295  68.5339070 106.1265463  31.9262672  68.3350129 105.8964955
  32.6362291  67.6943321 105.8551573  31.8831980  68.5863024 106.8191136
  39.9149451  75.2717482 108.8171534  39.8561997  74.5876702 108.1502117
  40.3168969  76.0136472 108.3652160  30.6391606  65.3215347 107.7160594
  30.1028963  64.8706085 108.3682191  30.0508315  65.4561256 106.9731059
  28.9340150  82.0879396 101.6105253  29.1736748  82.7197920 102.2884272
  28.0909346  81.7367436 101.8970612  30.0493865  64.7803998  90.2787058
  29.1723332  64.6592799  89.9149305  30.5251618  63.9890077  90.0265947
  21.5696005  69.5681158 100.3728565  22.2567045  69.2542888  99.7849580
  21.4144134  70.4722523 100.0995817  26.3730728  64.4571355 104.8013589
  26.2888916  63.8497024 104.0663999  25.5513434  64.9480373 104.8023085
  33.4468012  77.8958519 104.0146757  33.3738183  78.7013490 104.5266062
  33.0045405  78.0950484 103.1894778  35.9066695  77.7945353 106.1704916
  36.6194667  78.4292817 106.0980817  35.4156724  77.8909219 105.3544917
  30.9578609  75.5439796 106.9910486  31.6588068  76.1776279 107.1439881
  30.4873724  75.8854528 106.2306126  38.7579895  68.0984403 104.8163037
  38.1051345  68.3460311 104.1615490  39.1360275  67.2848542 104.4825514
  34.8067468  68.8404215 111.3029074  34.1308105  68.7398344 111.9731449
  35.6295102  68.6843428 111.7665071  26.5546327  75.0776151 103.9241589
  27.1399764  74.3319839 104.0569493  26.3571165  75.3880108 104.8078253
  29.4084982  78.1127398  98.9404031  28.7395357  78.5973526  98.4568072
  29.2697852  78.3596619  99.8547410  21.1463982  67.6481751 102.6446032
  21.1848081  67.1145342 103.4383150  20.6404274  67.1216957 102.0257009
  33.5490251  80.1471142 105.5386690  34.1008559  80.3102764 106.3035775
  33.8896444  80.7375580 104.8666715  28.5254744  62.4946292 106.1408575
  28.5896070  63.3561123 105.7285972  28.4621864  61.8820293 105.4080933
  28.0007016  64.5669424 109.7881609  28.6279055  64.1846502 110.4019133
  27.1434935  64.3483626 110.1537301  38.4001125  74.9732400 111.3935344
  38.9441029  75.5862358 110.8990299  37.8187970  75.5311978 111.9102357
  24.7772559  66.3745853  95.7199964  25.0726000  65.4656532  95.6667017
  23.8760595  66.3533593  95.3980966  28.3066806  64.4501850 101.7027512
  27.5853392  65.0637818 101.5634986  29.0960062  64.9859615 101.6244158
  31.1093120  61.7856277 107.9768164  31.6327521  62.0318573 108.7394473
  30.8905453  62.6176311 107.5571301  26.5060401  64.0559951  95.8439289
  26.1773107  63.1757330  95.6614395  26.8599771  64.0007620  96.7315678
  32.3145665  62.7269972 105.6617835  31.9742485  61.9277785 106.0638514
  31.6084671  63.0271682 105.0894668  32.9662136  59.8119284 104.1145158
  33.7888206  59.3379762 103.9924048  33.2100200  60.5909768 104.6143844
  24.9646377  69.0443749 104.8624797  24.4199845  69.8203557 104.9945072
  25.8425727  69.3914554 104.7043919  25.7512399  68.1713645 107.7554954
  25.0094135  68.3196281 108.3419585  25.4305144  68.4321911 106.8921704
  33.6956062  77.7129624 107.5535344  34.0043188  77.4678770 108.4258044
  34.4931544  77.9176262 107.0654214  33.7176674  79.8667533  99.7840721
  33.2781664  79.3743912 100.4773577  34.4684791  79.3240501  99.5432796
  26.1969013  76.0579074  99.7865349  27.0227033  75.7582846  99.4063992
  25.8463065  75.2886697 100.2355138  31.1650546  75.4105542 101.8563022
  30.5430555  74.7476247 101.5565250  31.8355413  75.4366674 101.1736670
  24.3977618  73.9765401 100.7454282  23.5609526  73.5487575 100.5638284
  24.3701263  74.1697844 101.6825074  31.2375074  63.8887330 111.4495528
  31.2863229  64.7649453 111.0673298  31.7797588  63.3464723 110.8767172
  41.7229919  74.4328454 110.7296666  40.9325463  74.4152592 110.1901165
  41.4863274  74.9716747 111.4845702  41.8427794  71.2820920 108.0429394
  41.8925799  71.1170927 108.9844917  41.7341718  70.4148179 107.6527275
  39.1331557  67.2651848 109.3588701  40.0341419  67.1258313 109.0672699
  39.2079531  67.4306303 110.2986878  33.4674362  64.6418703 108.2041887
  32.5977671  64.9352269 107.9324476  33.7033842  65.2259148 108.9249151
  43.3445991  73.7017861 108.2871416  43.0530799  74.0647842 109.1234877
  42.7318122  72.9884870 108.1084748  41.5933179  68.8250476 106.7551474
  42.0687301  69.0178122 105.9470325  40.6698745  68.8809662 106.5094857
  28.4816686  69.9874643  96.3382552  28.2362728  69.0836973  96.5362762
  28.6512601  69.9891794  95.3962030  27.7512334  65.7203001  93.8368713
  27.0581578  65.7947356  93.1808749  27.5064085  64.9563345  94.3590230
  34.4944950  71.8436155 111.6049940  35.4147959  72.0214754 111.7989986
  34.4594533  70.8992200 111.4529639  23.7127115  67.0374749 100.5303215
  23.3929899  66.1840057 100.2377589  23.1660543  67.2523327 101.2861182
  27.4907022  69.7537190 104.2472721  27.7093032  70.6854297 104.2660755
  27.9032796  69.3945164 105.0327525  32.3634887  65.3270395 113.6375470
  32.2631614  66.2764752 113.5687561  32.1456430  64.9988634 112.7651540
  31.5647959  62.5755320  90.2216147  32.4267123  62.9010219  90.4811965
  31.7498303  61.7886816  89.7089213  23.5815375  70.6577660 102.4996336
  22.8878846  70.2431613 101.9866291  24.3288366  70.6998197 101.9029755
  32.2266158  68.7567534 112.4540532  31.7433239  69.5567894 112.6604421
  32.3127097  68.7675479 111.5007976  25.4952117  70.5895914 100.3762351
  25.4722805  70.6883601  99.4244234  25.8052754  71.4361065 100.6979517
  28.1539495  72.6472069 104.4908965  29.1082749  72.6156011 104.4238897
  27.9552019  72.1862693 105.3059191  28.7438877  71.2173185 107.0579763
  29.5631766  71.7117264 107.0814600  29.0175685  70.3005153 107.0297331
  26.5089724  78.1891688 101.5079163  26.3744192  77.4292089 100.9417161
  26.0921786  78.9132588 101.0407952  29.6658850  79.0861005 101.7197606
  29.5491234  80.0306438 101.6176296  28.8451296  78.7834567 102.1083405
  23.9973791  65.5511319 107.7571960  24.6432655  65.0410273 108.2459185
  23.7890942  66.2880001 108.3315385  36.5227184  72.6192166 113.2564101
  37.3918343  72.7932819 112.8950736  36.0433935  73.4386583 113.1339830
  30.6913364  79.7389267 104.9353534  31.5940610  79.7712878 105.2520029
  30.4650734  78.8089718 104.9499870  32.4466966  78.4920254 101.5963613
  31.4962597  78.4922116 101.4827985  32.7499452  77.7452988 101.0799648
  28.3371282  62.6978936 111.8546974  29.2002744  62.3415741 112.0650299
  27.7636693  62.3592831 112.5422379  45.4729149  85.4343072 108.5557106
  45.4617789  85.0395870 107.6837609  45.6349788  84.7009145 109.1490877
  38.3960613  87.6294888 101.4252011  39.1881905  87.2885713 101.0098311
  38.6357263  87.7389863 102.3454165  42.1936410  88.2180184 107.5036290
  41.9026276  89.1225815 107.3882956  42.8293394  88.2596712 108.2180359
  43.1192617  85.5957032 104.0937649  43.7156189  85.3713055 103.3794612
  43.1767588  84.8541778 104.6963097  50.6594775  75.7029053 105.0990171
  50.3278100  76.5724464 104.8751386  50.0640389  75.3865337 105.7784201
  47.1526295  87.9041599 104.4986083  46.8527018  88.8066638 104.3901890
  46.8077354  87.6373783 105.3507236  42.1347075  94.6685920  97.4657051
  42.0571104  95.6193745  97.5445532  41.5308718  94.3231792  98.1231977
  44.6264304  81.8413785 110.1218418  43.8497638  82.4007705 110.1121283
  45.2654867  82.3270568 110.6433288  42.8810677  84.6499239 109.6836385
  43.6225361  85.1884283 109.4071208  42.1747662  85.2765527 109.8407937
  48.3566016  86.7928379 108.2808546  48.7649372  86.3510790 107.5363179
  47.6343278  86.2181007 108.5342739  48.6794831  87.3529570 102.0360835
  48.0503693  87.5175284 101.3336903  48.2920493  87.7671179 102.8071799
  52.5584063  88.2884008  99.3905199  51.8735101  88.6682909  98.8402232
  52.6427912  88.8979334 100.1237147  47.8596532  79.3905354 107.3123277
  47.6157464  80.1447415 106.7757553  48.1356462  79.7690702 108.1470524
  41.6172040  81.8038887 110.4851695  40.9870701  82.4855168 110.7187092
  41.5108128  81.6921968 109.5404833  50.9280822  88.8115922 104.1622900
  51.7498266  88.4096109 103.8805581  50.9243225  88.7084156 105.1139016
  44.6937426  88.3599965 106.3183610  44.7581858  88.8220372 107.1541782
  43.9848350  87.7297330 106.4465920  35.1954716  81.7241173 103.8432610
  35.4462754  82.6088183 104.1090186  35.7314264  81.5445775 103.0707702
  59.0186815  85.1554670 100.5107871  58.2650524  84.5862069 100.3551876
  59.1534357  85.1217335 101.4578506  40.8952783  76.1059653 112.8476946
  40.5019729  75.5525851 113.5224590  41.7118923  76.4170231 113.2383463
  37.8614841  87.5443511  96.7590516  38.3739361  88.3386761  96.9096080
  38.5137554  86.8469801  96.6924117  39.6709726  90.6609267  98.8413269
  39.8476354  91.5827232  98.6534253  40.4666559  90.3467686  99.2707649
  43.8120744  77.5217532 110.4397202  44.5530458  78.1224685 110.3601665
  44.0438667  76.7795169 109.8815245  38.9562082  82.7073899 108.7175432
  38.8415597  81.8059156 109.0182531  38.1006600  82.9537596 108.3660249
  46.0353920  90.6491639 110.3162933  45.5917774  89.8628018 109.9983837
  46.6971133  90.8370790 109.6506824  40.7941041  92.1787441 104.8423611
  41.3448466  92.0504504 104.0700605  39.9552517  92.4782330 104.4918504
  48.1335158  90.9294439 108.3444334  48.1153633  91.7503320 107.8524603
  49.0555078  90.8048514 108.5694475  44.5908212  88.4438569 109.1867842
  45.1236549  87.6826857 108.9567150  44.0622293  88.1512220 109.9291997
  47.7577907  73.5498635 104.7161484  47.4142176  74.4400276 104.6400595
  48.1256870  73.3600292 103.8531069  35.8263758  85.8732165  97.5350086
  36.6638980  86.2829173  97.3183794  36.0042025  84.9331607  97.5050280
  48.9553965  90.9400452  98.9286603  49.2476939  91.5005510  98.2098969
  49.4652586  91.2329013  99.6839762  35.8489929  83.2122880  98.2060820
  35.6514329  82.6192241  97.4811886  35.2936593  82.9075091  98.9236759
  43.9187590  91.7180804 100.0180056  43.8763769  91.9441650  99.0888588
  44.8350289  91.4844178 100.1665858  53.1220341  87.3759834 102.6321286
  53.5556847  87.2835123 103.4804340  53.8351921  87.3517334 101.9941302
  46.8548236  90.9761928 104.1654387  46.9085258  91.5452864 104.9332103
  45.9863017  91.1463813 103.8008424  53.9835890  87.4183535 105.1654172
  54.1771780  88.3229345 105.4113447  53.8836508  86.9590954 105.9992757
  45.6372201  77.3041425 107.6644499  44.9900116  78.0031375 107.5708975
  46.4073216  77.7377569 108.0320747  49.0450999  87.5690277 110.7395052
  48.8936505  87.3400829 109.8225136  49.0355678  88.5260879 110.7526397
  45.8136335  85.1422190 105.7241319  46.7428395  85.2933350 105.5510286
  45.3927365  85.2306211 104.8689965  44.6124667  89.1672855 103.4939856
  44.4735753  88.7991639 104.3665794  43.8239263  89.6820494 103.3223814
  45.2072819  94.2681951  94.8365393  45.3824575  93.7969994  95.6511015
  44.5205607  94.8947717  95.0646654  40.1374126  83.9522087 106.4081275
  39.9993924  83.2202326 107.0092814  41.0479050  83.8630987 106.1265463
  50.7543206  90.6009400 108.8171534  50.6955752  89.9168620 108.1502117
  51.1562724  91.3428390 108.3652160  41.4785361  80.6507264 107.7160594
  40.9422718  80.1998003 108.3682191  40.8902069  80.7853173 106.9731059
  39.7733904  97.4171314 101.6105253  40.0130503  98.0489838 102.2884272
  38.9303101  97.0659354 101.8970612  50.7560613  88.5648984 107.0485514
  49.8687392  88.2274906 107.1711913  51.3259164  87.8332015 107.2854279
  32.4089760  84.8973076 100.3728565  33.0960800  84.5834806  99.7849580
  32.2537889  85.8014440 100.0995817  37.2124482  79.7863272 104.8013589
  37.1282671  79.1788942 104.0663999  36.3907188  80.2772290 104.8023085
  44.2861766  93.2250436 104.0146757  44.2131938  94.0305408 104.5266062
  43.8439159  93.4242402 103.1894778  44.0751546  92.4622206  97.5249578
  43.2919068  93.0043886  97.6187803  44.7744291  92.9796186  97.9243820
  46.7460450  93.1237270 106.1704916  47.4588422  93.7584735 106.0980817
  46.2550478  93.2201136 105.3544917  41.7972363  90.8731714 106.9910486
  42.4981823  91.5068197 107.1439881  41.3267478  91.2146445 106.2306126
  46.5580823  93.4636014  98.9191207  46.7403218  92.6457670  99.3818959
  47.3813809  93.6803707  98.4816097  46.8922989  92.3904199  96.1806256
  47.4210755  91.8796654  95.5676418  47.1551208  92.0746730  97.0451789
  45.6461222  84.1696132 111.3029074  44.9701859  84.0690262 111.9731449
  46.4688856  84.0135346 111.7665071  37.3940081  90.4068069 103.9241589
  37.9793518  89.6611757 104.0569493  37.1964920  90.7172025 104.8078253
  40.2478737  93.4419316  98.9404031  39.5789112  93.9265444  98.4568072
  40.1091606  93.6888537  99.8547410  31.9857736  82.9773669 102.6446032
  32.0241836  82.4437260 103.4383150  31.4798029  82.4508874 102.0257009
  44.3884005  95.4763060 105.5386690  44.9402313  95.6394681 106.3035775
  44.7290199  96.0667498 104.8666715  39.3648498  77.8238209 106.1408575
  39.4289825  78.6853040 105.7285972  39.3015619  77.2112211 105.4080933
  38.8400771  79.8961342 109.7881609  39.4672810  79.5138419 110.4019133
  37.9828690  79.6775544 110.1537301  49.2394879  90.3024317 111.3935344
  49.7834783  90.9154275 110.8990299  48.6581724  90.8603896 111.9102357
  47.5252392  93.4245035 102.5250372  47.4003532  92.6234775 102.0161318
  48.1831483  93.9191229 102.0364342  49.5887301  91.2254055 104.1529922
  48.6417636  91.1059406 104.0808249  49.9370074  90.3376553 104.2356184
  41.9486874  77.1148194 107.9768164  42.4721276  77.3610491 108.7394473
  41.7299207  77.9468229 107.5571301  46.5933734  91.0206772 100.3534274
  46.4458696  90.0923479 100.5341844  47.4187228  91.0426862  99.8691350
  50.1967856  91.8435330 101.4399147  51.1214403  91.6378192 101.3023598
  50.0283159  91.5951731 102.3488489  35.8040132  84.3735667 104.8624797
  35.2593600  85.1495475 104.9945072  36.6819482  84.7206471 104.7043919
  36.5906154  83.5005563 107.7554954  35.8487890  83.6488198 108.3419585
  36.2698898  83.7613829 106.8921704  44.5349816  93.0421541 107.5535344
  44.8436943  92.7970688 108.4258044  45.3325298  93.2468180 107.0654214
  44.5570428  95.1959451  99.7840721  44.1175419  94.7035830 100.4773577
  45.3078545  94.6532419  99.5432796  37.0362767  91.3870992  99.7865349
  37.8620787  91.0874764  99.4063992  36.6856819  90.6178614 100.2355138
  42.0044301  90.7397460 101.8563022  41.3824310  90.0768165 101.5565250
  42.6749168  90.7658592 101.1736670  35.2371372  89.3057318 100.7454282
  34.4003281  88.8779493 100.5638284  35.2095018  89.4989762 101.6825074
  42.0768828  79.2179248 111.4495528  42.1256984  80.0941371 111.0673298
  42.6191342  78.6756641 110.8767172  52.5623674  89.7620371 110.7296666
  51.7719217  89.7444510 110.1901165  52.3257028  90.3008665 111.4845702
  52.6821549  86.6112838 108.0429394  52.7319554  86.4462845 108.9844917
  52.5735472  85.7440097 107.6527275  44.3068117  79.9710620 108.2041887
  43.4371426  80.2644186 107.9324476  44.5427597  80.5551065 108.9249151
  54.1839746  89.0309779 108.2871416  53.8924554  89.3939760 109.1234877
  53.5711877  88.3176787 108.1084748  47.0107150  76.1890237 105.7207308
  47.5289094  76.9251264 105.3953796  46.6562283  76.4954231 106.5554067
  49.1542982  78.1163737 105.1739180  48.5592914  78.3968750 104.4785669
  48.8692679  78.6057638 105.9455921  59.4293231  85.3130280 103.2428116
  60.1596619  85.0515569 103.8035819  58.8200176  84.5759002 103.2830184
  57.5108528  83.4538143 103.8402567  56.7841691  83.3194108 103.2319058
  57.0955815  83.7614972 104.6459285  45.3338704  87.1728073 111.6049940
  46.2541714  87.3506672 111.7989986  45.2988287  86.2284118 111.4529639
  34.5520869  82.3666666 100.5303215  34.2323653  81.5131975 100.2377589
  34.0054297  82.5815244 101.2861182  38.3300777  85.0829107 104.2472721
  38.5486786  86.0146215 104.2660755  38.7426550  84.7237082 105.0327525
  43.2028642  80.6562313 113.6375470  43.1025369  81.6056670 113.5687561
  42.9850184  80.3280552 112.7651540  34.4209129  85.9869578 102.4996336
  33.7272601  85.5723531 101.9866291  35.1682120  86.0290114 101.9029755
  43.0659912  84.0859452 112.4540532  42.5826994  84.8859812 112.6604421
  43.1520851  84.0967397 111.5007976  36.3345872  85.9187832 100.3762351
  36.3116560  86.0175519  99.4244234  36.6446508  86.7652982 100.6979517
  38.9933249  87.9763987 104.4908965  39.9476503  87.9447929 104.4238897
  38.7945773  87.5154610 105.3059191  39.5832632  86.5465103 107.0579763
  40.4025521  87.0409181 107.0814600  39.8569439  85.6297071 107.0297331
  37.3483478  93.5183606 101.5079163  37.2137946  92.7584007 100.9417161
  36.9315541  94.2424506 101.0407952  40.5052604  94.4152923 101.7197606
  40.3884988  95.3598356 101.6176296  39.6845050  94.1126485 102.1083405
  34.8367546  80.8803237 107.7571960  35.4826409  80.3702191 108.2459185
  34.6284697  81.6171918 108.3315385  47.3620938  87.9484084 113.2564101
  48.2312098  88.1224736 112.8950736  46.8827690  88.7678501 113.1339830
  41.5307118  95.0681185 104.9353534  42.4334365  95.1004795 105.2520029
  41.3044488  94.1381636 104.9499870  43.2860720  93.8212172 101.5963613
  42.3356351  93.8214033 101.4827985  43.5893206  93.0744906 101.0799648
  39.1765037  78.0270854 111.8546974  40.0396498  77.6707658 112.0650299
  38.6030448  77.6884748 112.5422379  59.0213414  99.6572710 102.6609375
  59.6591824  99.5379457 101.9572715  58.9034257 100.6053554 102.7197328
  55.8303120  99.6100138 102.5970900  55.4921632  99.4941203 101.7091435
  56.6992888  99.2091303 102.5771906  51.6889936 101.4635614  98.5867791
  51.1254801 101.3725551  97.8184079  51.5742331 100.6435519  99.0670284
  56.3122903 100.7634990 108.5557106  56.3011544 100.3687788 107.6837609
  56.4743543 100.0301062 109.1490877  49.2354368 102.9586806 101.4252011
  50.0275660 102.6177631 101.0098311  49.4751018 103.0681781 102.3454165
  57.2689494 105.1306582  93.8982256  56.6177474 105.7160663  93.5116270
  58.0633857 105.6612777  93.9577293  51.1945122 102.2195719  94.2969390
  51.9675998 101.6724706  94.1582266  51.5470521 103.0839969  94.5083852
  53.0330164 103.5472102 107.5036290  52.7420030 104.4517732 107.3882956
  53.6687149 103.5888629 108.2180359  53.9586371 100.9248950 104.0937649
  54.5549943 100.7004973 103.3794612  54.0161343 100.1833696 104.6963097
  53.5311399  98.3788385  91.9287840  53.7836920  97.8569907  91.1671303
  52.5935959  98.2154531  92.0314524  58.5754682  97.3824164  99.7362583
  59.3617772  96.9643587  99.3853000  58.8393387  98.2870256  99.9044232
  58.7464760 102.8197014  94.4351240  58.1110593 102.8931641  95.1472145
  58.4162166 103.4090613  93.7570319  63.9763109  97.3199397 100.6395562
  64.7088281  96.7498614 100.8733391  63.2202465  96.9320997 101.0802068
  53.2507688 100.2816491  94.1312215  53.1343946  99.6061395  94.7993299
  53.3609948  99.7948865  93.3144368  55.5939229  99.7426639  97.8358904
  55.2297436  99.2157259  98.5471826  56.4506345  99.3525108  97.6625390
  61.4988530  91.0320971 105.0990171  61.1671855  91.9016382 104.8751386
  60.9034143  90.7157255 105.7784201  55.2344716  94.7716538  92.8320253
  55.4019118  95.6396775  93.1990724  55.0441885  94.9343820  91.9081542
  57.9920049 103.2333517 104.4986083  57.6920772 104.1358556 104.3901890
  57.6471109 102.9665700 105.3507236  51.4432531  99.6847314 100.5322788
  50.5183027  99.5523528 100.7400479  51.6916944 100.4641533 101.0292730
  61.3917193  95.7516057 102.1783521  60.4834070  95.6831466 101.8842282
  61.3404789  96.2288002 103.0065346  55.2133937  97.2274196  93.8166920
  55.0933562  97.6731246  94.6552400  54.5186525  97.5759513  93.2580458
  48.8041342  99.3280588 101.3666577  48.9333723  99.5815066 102.2805988
  48.1238793  99.9208296 101.0471232  52.9740829 109.9977837  97.4657051
  52.8964859 110.9485663  97.5445532  52.3702473 109.6523710  98.1231977
  55.4658059  97.1705703 110.1218418  54.6891393  97.7299623 110.1121283
  56.1048622  97.6562486 110.6433288  63.2578839  93.9532496 103.9561395
  62.6153220  94.2465029 103.3101189  62.7533768  93.8385416 104.7614591
  60.9119003  97.6995669  94.6447254  61.8236859  97.9323056  94.4694951
  60.4028650  98.2832713  94.0822332  53.7204431  99.9791156 109.6836385
  54.4619116 100.5176200 109.4071208  53.0141417 100.6057445 109.8407937
  59.1959771 102.1220297 108.2808546  59.6043127 101.6802707 107.5363179
  58.4737032 101.5472924 108.5342739  55.5490841  97.0592903 105.6542103
  56.3952036  97.4832317 105.7976752  55.4889479  96.4026528 106.3480666
  59.5188585 102.6821487 102.0360835  58.8897448 102.8467201 101.3336903
  59.1314248 103.0963097 102.8071799  63.3977817 103.6175925  99.3905199
  62.7128855 103.9974827  98.8402232  63.4821667 104.2271252 100.1237147
  58.6990286  94.7197272 107.3123277  58.4551218  95.4739332 106.7757553
  58.9750217  95.0982619 108.1470524  60.6528749 101.2635884 105.9900543
  60.8645644 101.9067644 105.3134924  60.6058497 100.4298201 105.5222473
  58.2554978  93.8753705 102.8937115  57.3939457  94.1734958 103.1853852
  58.2817413  94.0924104 101.9618147  55.0716547 102.4195895  99.3010920
  55.5354893 102.6983598  98.5115543  54.8073345 101.5179340  99.1184011
  51.9640628 101.9667377 102.2390684  52.5341985 102.3954645 101.6008168
  52.5548740 101.6849962 102.9374869  54.0085433  98.5419048  96.1100485
  54.7109477  98.9940091  96.5774412  53.6766062  97.9002867  96.7380379
  52.4565795  97.1330804 110.4851695  51.8264455  97.8147085 110.7187092
  52.3501883  97.0213886 109.5404833  47.7510767  96.8002600 101.4117619
  46.9609821  97.0560129 100.9357730  48.2422015  97.6150938 101.5169660
  61.7674577 104.1407840 104.1622900  62.5892021 103.7388027 103.8805581
  61.7636980 104.0376074 105.1139016  49.7025513  97.1647180  98.3701096
  48.9056676  97.2765874  98.8884591  49.4751105  97.5033832  97.5041986
  55.5331180 103.6891883 106.3183610  55.5975613 104.1512290 107.1541782
  54.8242104 103.0589248 106.4465920  46.0348470  97.0533091 103.8432610
  46.2856509  97.9380101 104.1090186  46.5708019  96.8737692 103.0707702
  69.8580570 100.4846588 100.5107871  69.1044278  99.9153986 100.3551876
  69.9928111 100.4509253 101.4578506  55.2479198 105.3559990  96.1862591
  55.1124873 106.2011526  96.6147439  55.7889010 105.5579268  95.4228524
  51.7346538  91.4351570 112.8476946  51.3413483  90.8817769 113.5224590
  52.5512678  91.7462149 113.2383463  48.7008595 102.8735428  96.7590516
  49.2133116 103.6678679  96.9096080  49.3531308 102.1761719  96.6924117
  50.5103480 105.9901185  98.8413269  50.6870108 106.9119149  98.6534253
  51.3060314 105.6759604  99.2707649  54.6514499  92.8509449 110.4397202
  55.3924212  93.4516602 110.3601665  54.8832421  92.1087087 109.8815245
  49.7955837  98.0365817 108.7175432  49.6809352  97.1351074 109.0182531
  48.9400354  98.2829513 108.3660249  56.8747674 105.9783557 110.3162933
  56.4311529 105.1919935 109.9983837  57.5364888 106.1662707 109.6506824
  51.6334796 107.5079359 104.8423611  52.1842221 107.3796422 104.0700605
  50.7946271 107.8074248 104.4918504  58.9728912 106.2586357 108.3444334
  58.9547388 107.0795238 107.8524603  59.8948832 106.1340432 108.5694475
  55.4301967 103.7730486 109.1867842  55.9630303 103.0118775 108.9567150
  54.9016048 103.4804138 109.9291997  58.5971662  88.8790552 104.7161484
  58.2535931  89.7692194 104.6400595  58.9650624  88.6892210 103.8531069
  46.6657512 101.2024083  97.5350086  47.5032734 101.6121091  97.3183794
  46.8435780 100.2623525  97.5050280  58.5621944  98.8699163  93.2233919
  58.0468568  99.6403768  93.4622307  58.2899253  98.1964300  93.8466981
  56.1469055  93.7148864  98.2819158  55.2910652  93.3255715  98.1024796
  56.5596007  93.7940825  97.4218943  57.6768202  91.2495207 102.6810717
  57.1732998  91.2125343 101.8678523  57.9698809  92.1587950 102.7407374
  53.9211088  91.3333937 101.6876899  54.7864085  91.1376746 101.3282789
  53.9888597  91.1044289 102.6146256  63.5356218 101.6231518  95.1587093
  62.7585661 101.2842678  94.7142255  64.2147699 101.6284141  94.4842058
  58.3508247  96.7426256  95.0493700  58.0458383  97.0572405  95.9003844
  59.3038690  96.8207675  95.0921033  56.7954679 102.9016479  96.6986654
  56.2676041 102.1669238  96.3859892  56.2942182 103.6791155  96.4526623
  61.7747525 101.0965499 101.8153701  61.1171200 101.7864761 101.9033829
  62.5787925 101.4861931 102.1587687  51.5273407  93.5636145  99.0593266
  52.1017159  93.3411327  98.3266459  52.1144389  93.6324840  99.8121867
  60.5852984  99.4509872  99.8657642  61.0984866 100.0839864 100.3679352
  61.2354208  98.8511068  99.5001002  51.8542994  95.5940606  93.0789151
  51.0180306  95.9315293  93.3998426  51.7147764  95.4589586  92.1416288
  54.9407279 100.7196689  89.7021627  54.0334341 100.4885943  89.9012776
  55.4378311  99.9234308  89.8895609  57.8475358 109.4294196  92.6218314
  57.1737057 109.7325893  93.2303271  58.2341180 110.2323277  92.2723771
  57.0633815  96.9259328 102.1115983  56.1456376  97.1474275 101.9537671
  57.4793959  97.0005638 101.2527690  57.8468863  98.3250743  97.2418663
  58.5940682  98.8372140  96.9325785  58.1160452  98.0034796  98.1023057
  56.1195513 100.8209284  94.2245618  55.2106732 100.5368317  94.3218087
  56.1490597 101.2408363  93.3648924  61.3514780 104.4315873  97.9936785
  60.8977107 103.5906783  98.0501976  60.7208747 105.0677272  98.3311565
  60.2947700  95.3607859  99.2237453  59.5570457  94.8485246  99.5547695
  60.5474473  94.9208241  98.4120729  59.7947720 106.2692370  98.9286603
  60.0870694 106.8297427  98.2098969  60.3046340 106.5620931  99.6839762
  60.3959327  88.1384111  99.8179222  60.7018204  87.2781475  99.5305137
  61.1211932  88.7301732  99.6178216  46.6883683  98.5414798  98.2060820
  46.4908083  97.9484159  97.4811886  46.1330347  98.2367008  98.9236759
  54.6680407  98.4337905 100.3255413  54.7229017  97.4811741 100.2497889
  53.8571609  98.5897344 100.8096711  55.8171601 102.3618028  91.5633696
  55.3791031 101.6453887  91.1039333  56.5582042 102.5894142  91.0018788
  52.6072767  97.0514964  98.0845792  51.7940632  97.3509135  98.4910984
  53.1031761  96.6570653  98.8020274  54.7581345 107.0472721 100.0180056
  54.7157524 107.2733568  99.0888588  55.6744044 106.8136096 100.1665858
  58.2046979  97.5156789 106.9160686  58.5596366  97.7428262 107.7755151
  58.8519110  97.8475166 106.2937941  63.9344716 100.6375225  97.6210015
  63.7962614 100.8276821  96.6931204  63.5780934 101.3994607  98.0778066
  52.0986842  94.6233320 103.7007027  52.7386221  94.4822079 103.0029990
  51.2664372  94.3367833 103.3245629  63.9614095 102.7051752 102.6321286
  64.3950602 102.6127041 103.4804340  64.6745676 102.6809252 101.9941302
  52.8747146 103.9235750  99.8142019  53.6687744 103.4286070  99.6124594
  52.1638838 103.3953613  99.4509725  57.6941990 106.3053846 104.1654387
  57.7479012 106.8744782 104.9332103  56.8256771 106.4755731 103.8008424
  49.1829909  98.0678832  95.8901772  48.2527497  98.0063287  96.1071734
  49.2787381  97.5454785  95.0938413  49.1015458  94.5933645  98.4780014
  49.3622275  95.5078978  98.3689174  49.9232630  94.1258087  98.6276626
  50.5740383  96.0071402 105.6478838  51.2463437  95.7988764 104.9991487
  49.7470170  95.8093488 105.2084070  64.8229645 102.7475452 105.1654172
  65.0165535 103.6521263 105.4113447  64.7230263 102.2882871 105.9992757
  56.4765955  92.6333343 107.6644499  55.8293870  93.3323293 107.5708975
  57.2466971  93.0669487 108.0320747  59.8844753 102.8982195 110.7395052
  59.7330260 102.6692747 109.8225136  59.8749433 103.8552796 110.7526397
  56.6530090 100.4714108 105.7241319  57.5822150 100.6225267 105.5510286
  56.2321120 100.5598129 104.8689965  55.4518422 104.4964772 103.4939856
  55.3129507 104.1283557 104.3665794  54.6633018 105.0112412 103.3223814
  56.0466574 109.5973869  94.8365393  56.2218329 109.1261912  95.6511015
  55.3599362 110.2239635  95.0646654  57.0023637 103.8746375 100.8828694
  56.6673469 103.8347145 101.7786344  56.5027582 103.2091091 100.4099104
  50.9767881  99.2814005 106.4081275  50.8387679  98.5494244 107.0092814
  51.8872804  99.1922905 106.1265463  59.9382828 101.2202409  91.1565754
  59.3211999 100.4949237  91.0598806  59.4699317 101.9811770  90.8132828
  53.6050181  98.9933964 105.8964955  54.3149800  98.3527156 105.8551573
  53.5619489  99.2446859 106.8191136  61.5936960 105.9301318 108.8171534
  61.5349506 105.2460538 108.1502117  61.9956478 106.6720308 108.3652160
  52.3179115  95.9799182 107.7160594  51.7816472  95.5289921 108.3682191
  51.7295824  96.1145091 106.9731059  50.6127659 112.7463231 101.6105253
  50.8524257 113.3781756 102.2884272  49.7696855 112.3951271 101.8970612
  51.7281374  95.4387834  90.2787058  50.8510841  95.3176634  89.9149305
  52.2039127  94.6473912  90.0265947  61.5954367 103.8940902 107.0485514
  60.7081146 103.5566823 107.1711913  62.1652918 103.1623933 107.2854279
  43.2483514 100.2264993 100.3728565  43.9354554  99.9126723  99.7849580
  43.0931643 101.1306358 100.0995817  48.0518237  95.1155190 104.8013589
  47.9676425  94.5080859 104.0663999  47.2300943  95.6064208 104.8023085
  55.1255521 108.5542354 104.0146757  55.0525692 109.3597325 104.5266062
  54.6832914 108.7534320 103.1894778  54.9145300 107.7914124  97.5249578
  54.1312822 108.3335804  97.6187803  55.6138045 108.3088104  97.9243820
  58.2241950  93.6008753 100.1683784  58.7210650  92.8478716  99.8484854
  57.4528932  93.6373070  99.6026993  66.0771708  99.3049119 101.8102075
  66.0661584 100.1873834 101.4396008  65.2089087  98.9520670 101.6156612
  57.5854204 108.4529188 106.1704916  58.2982176 109.0876653 106.0980817
  57.0944233 108.5493054 105.3544917  59.3071731 102.3580441  97.7422207
  58.3728010 102.4781903  97.5726912  59.4848400 101.4552907  97.4782217
  54.8076919  95.7426136  99.8955468  54.4374707  95.1897177 100.5836374
  55.3036012  95.1384270  99.3430469  62.6944282  98.1997760  98.2772241
  63.1604735  99.0325751  98.2032544  63.1451783  97.7342741  98.9817500
  52.6366118 106.2023631 106.9910486  53.3375577 106.8360114 107.1439881
  52.1661233 106.5438363 106.2306126  60.7620514 104.5441581  95.2758393
  61.0380357 104.4298176  96.1852268  59.8925012 104.1459066  95.2370567
  60.6660945  90.5678347 102.3163143  59.7524025  90.7982574 102.4845350
  61.0954047  90.6516791 103.1677175  60.4367404  98.7568239 104.8163037
  59.7838854  99.0044146 104.1615490  60.8147784  97.9432377 104.4825514
  57.3974578 108.7927932  98.9191207  57.5796972 107.9749588  99.3818959
  58.2207564 109.0095624  98.4816097  57.7316743 107.7196117  96.1806256
  58.2604509 107.2088572  95.5676418  57.9944963 107.4038647  97.0451789
  56.4854977  99.4988050 111.3029074  55.8095614  99.3982179 111.9731449
  57.3082611  99.3427264 111.7665071  48.2333836 105.7359986 103.9241589
  48.8187273 104.9903674 104.0569493  48.0358674 106.0463943 104.8078253
  51.0872491 108.7711234  98.9404031  50.4182866 109.2557361  98.4568072
  50.9485361 109.0180454  99.8547410  42.8251491  98.3065587 102.6446032
  42.8635590  97.7729177 103.4383150  42.3191783  97.7800792 102.0257009
  55.2277760 110.8054977 105.5386690  55.7796068 110.9686599 106.3035775
  55.5683953 111.3959415 104.8666715  50.2042253  93.1530127 106.1408575
  50.2683579  94.0144958 105.7285972  50.1409373  92.5404129 105.4080933
  49.6794525  95.2253260 109.7881609  50.3066564  94.8430337 110.4019133
  48.8222444  95.0067462 110.1537301  46.4560068  97.0329689  95.7199964
  46.7513509  96.1240367  95.6667017  45.5548104  97.0117428  95.3980966
  58.3646147 108.7536953 102.5250372  58.2397286 107.9526693 102.0161318
  59.0225238 109.2483146 102.0364342  49.9854315  95.1085685 101.7027512
  49.2640901  95.7221653 101.5634986  50.7747571  95.6443450 101.6244158
  60.4281055 106.5545973 104.1529922  59.4811391 106.4351324 104.0808249
  60.7763828 105.6668471 104.2356184  52.7880629  92.4440112 107.9768164
  53.3115030  92.6902408 108.7394473  52.5692962  93.2760147 107.5571301
  48.1847910  94.7143786  95.8439289  47.8560616  93.8341165  95.6614395
  48.5387280  94.6591455  96.7315678  57.4327489 106.3498689 100.3534274
  57.2852451 105.4215397 100.5341844  58.2580982 106.3718780  99.8691350
  51.2989733  95.0016756  96.2114766  51.6385805  95.5302678  95.4893375
  51.7461853  95.3397162  96.9873333  61.0361610 107.1727248 101.4399147
  61.9608158 106.9670109 101.3023598  60.8676914 106.9243649 102.3488489
  53.9933174  93.3853807 105.6617835  53.6529994  92.5861620 106.0638514
  53.2872180  93.6855518 105.0894668  54.6449645  90.4703119 104.1145158
  55.4675715  89.9963598 103.9924048  54.8887709  91.2493603 104.6143844
  53.2857880  93.4991378  94.4108059  54.0066242  93.8772631  93.9071776
  52.6623184  94.2180255  94.5143037  57.4289003  94.2036527  95.3466392
  57.6452617  95.0861165  95.0455220  56.9483070  93.8122740  94.6172034
  52.1688224  97.1622240 101.9237136  52.0232805  97.4762543 102.8161418
  51.6913428  97.7807140 101.3708035  54.0284607  94.1524788 101.9718026
  54.0146176  93.2565881 101.6350324  54.7457035  94.1595452 102.6056312
  55.8810738  94.5862128 104.0171153  55.6228516  95.5079199 104.0155484
  55.3495778  94.1892563 104.7071617  60.8256927 107.6912915  96.7961239
  60.9993804 107.1259338  96.0435091  61.3185818 108.4913810  96.6140728
  46.6433886  99.7027584 104.8624797  46.0987354 100.4787392 104.9945072
  47.5213236 100.0498389 104.7043919  53.4321503  93.0339168  97.2405596
  53.5537414  92.1055815  97.4396483  53.1423545  93.0477854  96.3283911
  56.3012693  90.7194079 100.3772316  56.3234390  90.7833412  99.4224295
  56.7180752  89.8798587 100.5712822  66.6796318 100.4549338  98.4151538
  67.1227464  99.7056664  98.0170662  65.8022828 100.4459475  98.0325270
  61.8132099 107.0079680  93.8958137  62.5083004 107.6286372  94.1145451
  62.1555249 106.1575031  94.1710515  47.4299908  98.8297481 107.7554954
  46.6881644  98.9780116 108.3419585  47.1092653  99.0905746 106.8921704
  63.7123522 104.4579385  95.4245468  64.2374846 104.7966658  94.6994788
  63.6245875 103.5226401  95.2408602  55.3743571 108.3713459 107.5535344
  55.6830697 108.1262606 108.4258044  56.1719053 108.5760097 107.0654214
  55.3964183 110.5251369  99.7840721  54.9569173 110.0327747 100.4773577
  56.1472300 109.9824336  99.5432796  47.8756522 106.7162909  99.7865349
  48.7014542 106.4166681  99.4063992  47.5250574 105.9470532 100.2355138
  52.8438055 106.0689378 101.8563022  52.2218064 105.4060083 101.5565250
  53.5142922 106.0950510 101.1736670  46.0765127 104.6349236 100.7454282
  45.2397035 104.2071410 100.5638284  46.0488772 104.8281679 101.6825074
  52.9162583  94.5471166 111.4495528  52.9650738  95.4233288 111.0673298
  53.4585097  94.0048559 110.8767172  63.5215303 101.9404755 108.0429394
  63.5713308 101.7754763 108.9844917  63.4129227 101.0732014 107.6527275
  52.4051562 104.6193301  95.3321483  52.5539682 105.3028765  94.6788156
  53.2118005 104.5998391  95.8470939  60.8119066  97.9235683 109.3588701
  61.7128928  97.7842148 109.0672699  60.8867040  98.0890138 110.2986878
  55.1461871  95.3002538 108.2041887  54.2765180  95.5936104 107.9324476
  55.3821351  95.8842983 108.9249151  65.0233500 104.3601697 108.2871416
  64.7318308 104.7231677 109.1234877  64.4105631 103.6468705 108.1084748
  66.2229182 101.9254577 100.8073986  67.0576074 102.3644381 100.9711546
  66.3588311 101.4493230  99.9882232  63.2720688  99.4834311 106.7551474
  63.7474810  99.6761958 105.9470325  62.3486254  99.5393497 106.5094857
  50.1604195 100.6458479  96.3382552  49.9150237  99.7420809  96.5362762
  50.3300110 100.6475629  95.3962030  57.8500905  91.5182155 105.7207308
  58.3682849  92.2543182 105.3953796  57.4956038  91.8246148 106.5554067
  49.4299843  96.3786836  93.8368713  48.7369087  96.4531191  93.1808749
  49.1851594  95.6147180  94.3590230  58.1013499  87.9382438 101.2408204
  58.3815253  87.2705627 101.8668631  58.8864106  88.1311533 100.7282868
  55.9046968 107.1141431  92.8033230  55.3320935 107.7331619  92.3503702
  56.4779761 107.6640793  93.3373152  61.9722357  96.3600072 104.9879779
  62.9239780  96.4598169 105.0092003  61.8025808  95.5678340 105.4977864
  59.9936737  93.4455655 105.1739180  59.3986669  93.7260667 104.4785669
  59.7086434  93.9349556 105.9455921  59.1244227 107.3978582  93.9341813
  60.0574900 107.3324143  94.1374688  59.0367440 108.2334848  93.4756345
  61.7532244 106.7144452  90.8945760  61.6745876 106.3804316  91.7881518
  62.5741911 107.2066220  90.8937233  64.4510435  99.5806191 104.1022079
  64.4186755  98.6422192 104.2881763  65.0611059  99.6590228 103.3687904
  56.2893766  98.4502244  90.1449283  57.2352871  98.3208452  90.2137701
  55.9108011  97.7116906  90.6218711  64.6004924  96.3717235 104.1480362
  64.0843972  95.5875691 103.9610291  65.4844872  96.0435951 104.3126882
  62.2615651  90.1158250 100.1076175  62.0640472  89.8073338 100.9919507
  62.8715356  90.8419889 100.2374105  70.2686985 100.6422198 103.2428116
  70.9990374 100.3807486 103.8035819  69.6593931  99.9050920 103.2830184
  68.3502282  98.7830061 103.8402567  67.6235446  98.6486026 103.2319058
  67.9349569  99.0906889 104.6459285  56.1732459 102.5019990 111.6049940
  57.0935468 102.6798589 111.7989986  56.1382042 101.5576036 111.4529639
  54.4736683  96.3752221  90.0804168  53.5668139  96.0785333  90.1566882
  54.7512664  96.0782039  89.2138454  45.3914624  97.6958584 100.5303215
  45.0717408  96.8423892 100.2377589  44.8448052  97.9107162 101.2861182
  49.1694531 100.4121025 104.2472721  49.3880541 101.3438133 104.2660755
  49.5820305 100.0528999 105.0327525  56.0898749  90.9189110  96.2348409
  55.2799477  90.5736195  96.6103656  56.7783166  90.6096654  96.8236021
  58.0189297  89.9967157  97.8572706  58.5720336  90.4162611  98.5162729
  58.2559384  89.0702905  97.8995662  54.0422396  95.9854231 113.6375470
  53.9419123  96.9348588 113.5687561  53.8243938  95.6572470 112.7651540
  45.2602884 101.3161495 102.4996336  44.5666355 100.9015448 101.9866291
  46.0075875 101.3582032 101.9029755  61.3968104  92.1067682  97.3651370
  60.8166773  92.7652486  96.9829423  61.1304037  91.2845027  96.9538788
  59.8471671  91.5072740  99.5672691  60.3471449  91.6189275  98.7587010
  60.4907279  91.2033793 100.2073499  53.9053666  99.4151370 112.4540532
  53.4220748 100.2151730 112.6604421  53.9914606  99.4259314 111.5007976
  47.1739626 101.2479749 100.3762351  47.1510314 101.3467437  99.4244234
  47.4840263 102.0944900 100.6979517  49.8327004 103.3055904 104.4908965
  50.7870258 103.2739847 104.4238897  49.6339528 102.8446528 105.3059191
  50.4226386 101.8757020 107.0579763  51.2419275 102.3701099 107.0814600
  50.6963194 100.9588988 107.0297331  60.1792982  94.2667773  96.4207719
  59.2918837  94.5517423  96.2027913  60.5946971  94.1061536  95.5734995
  63.5307518  94.2914294 100.1362058  64.3067909  94.7810746 100.4086675
  62.8055653  94.7172348 100.5933927  65.9680077  95.0041913 101.1935998
  66.5624568  94.7637649 100.4829307  66.0406661  94.2849043 101.8209535
  48.1877233 108.8475524 101.5079163  48.0531701 108.0875925 100.9417161
  47.7709295 109.5716424 101.0407952  59.3236196 104.0312447  90.5155739
  60.0272046 104.2362450  91.1313394  58.5998845 104.5989209  90.7804822
  60.1534006  99.7822309  96.6358009  60.0969207 100.2390860  95.7965641
  60.7062349  99.0212993  96.4580852  63.9638812  95.5712040  97.4608128
  63.7075746  95.1708676  98.2916336  63.3391680  96.2855834  97.3358267
  68.2751150  98.3108114  99.9679420  67.7150708  98.3801303 100.7410982
  67.6694653  98.1349098  99.2478916  51.3446359 109.7444841 101.7197606
  51.2278743 110.6890273 101.6176296  50.5238805 109.4418402 102.1083405
  61.2322893 104.4694977  92.5654199  62.0668497 104.0376175  92.3831673
  61.0707236 104.2976990  93.4931093  60.8868785 100.9727090  93.9310538
  60.8317589 100.8071361  92.9898982  60.2614841 101.6803123  94.0872728
  45.6761300  96.2095154 107.7571960  46.3220164  95.6994108 108.2459185
  45.4678451  96.9463836 108.3315385  52.3700873 110.3973103 104.9353534
  53.2728119 110.4296713 105.2520029  52.1438243 109.4673554 104.9499870
  54.1254475 109.1504089 101.5963613  53.1750106 109.1505951 101.4827985
  54.4286961 108.4036824 101.0799648  50.0158791  93.3562771 111.8546974
  50.8790253  92.9999576 112.0650299  49.4424202  93.0176666 112.5422379
  66.6696875 114.9392056 102.5970900  66.3315386 114.8233120 101.7091435
  67.5386643 114.5383221 102.5771906  62.5283690 116.7927532  98.5867791
  61.9648555 116.7017469  97.8184079  62.4136085 115.9727437  99.0670284
  60.0748122 118.2878724 101.4252011  60.8669414 117.9469548 101.0098311
  60.3144772 118.3973699 102.3454165  68.1083249 120.4598500  93.8982256
  67.4571229 121.0452580  93.5116270  68.9027612 120.9904695  93.9577293
  62.0338876 117.5487637  94.2969390  62.8069752 117.0016624  94.1582266
  62.3864275 118.4131886  94.5083852  64.3705154 113.7080303  91.9287840
  64.6230675 113.1861824  91.1671303  63.4329713 113.5446449  92.0314524
  69.4148437 112.7116081  99.7362583  70.2011526 112.2935505  99.3853000
  69.6787141 113.6162174  99.9044232  69.5858514 118.1488932  94.4351240
  68.9504347 118.2223558  95.1472145  69.2555921 118.7382531  93.7570319
  74.8156864 112.6491315 100.6395562  75.5482036 112.0790531 100.8733391
  74.0596220 112.2612915 101.0802068  64.0901443 115.6108409  94.1312215
  63.9737701 114.9353312  94.7993299  64.2003703 115.1240783  93.3144368
  66.4332984 115.0718556  97.8358904  66.0691191 114.5449177  98.5471826
  67.2900100 114.6817025  97.6625390  72.3382284 106.3612889 105.0990171
  72.0065609 107.2308300 104.8751386  71.7427898 106.0449173 105.7784201
  66.0738471 110.1008456  92.8320253  66.2412873 110.9688692  93.1990724
  65.8835640 110.2635738  91.9081542  62.2826285 115.0139232 100.5322788
  61.3576782 114.8815446 100.7400479  62.5310698 115.7933451 101.0292730
  66.0527691 112.5566113  93.8166920  65.9327317 113.0023164  94.6552400
  65.3580280 112.9051431  93.2580458  59.6435096 114.6572505 101.3666577
  59.7727477 114.9106984 102.2805988  58.9632548 115.2500213 101.0471232
  63.8134584 125.3269755  97.4657051  63.7358613 126.2777580  97.5445532
  63.2096227 124.9815628  98.1231977  71.7512758 113.0287587  94.6447254
  72.6630614 113.2614973  94.4694951  71.2422405 113.6124631  94.0822332
  69.0948732 109.2045623 102.8937115  68.2333211 109.5026876 103.1853852
  69.1211167 109.4216021 101.9618147  65.9110302 117.7487813  99.3010920
  66.3748647 118.0275516  98.5115543  65.6467100 116.8471258  99.1184011
  62.8034383 117.2959295 102.2390684  63.3735740 117.7246563 101.6008168
  63.3942495 117.0141879 102.9374869  64.8479188 113.8710965  96.1100485
  65.5503231 114.3232009  96.5774412  64.5159816 113.2294784  96.7380379
  58.5904522 112.1294518 101.4117619  57.8003576 112.3852047 100.9357730
  59.0815769 112.9442856 101.5169660  60.5419267 112.4939097  98.3701096
  59.7450430 112.6057792  98.8884591  60.3144859 112.8325750  97.5041986
  56.8742225 112.3825009 103.8432610  57.1250263 113.2672018 104.1090186
  57.4101773 112.2029610 103.0707702  66.0872952 120.6851908  96.1862591
  65.9518627 121.5303444  96.6147439  66.6282765 120.8871186  95.4228524
  59.5402350 118.2027346  96.7590516  60.0526870 118.9970596  96.9096080
  60.1925063 117.5053637  96.6924117  61.3497235 121.3193102  98.8413269
  61.5263863 122.2411067  98.6534253  62.1454068 121.0051522  99.2707649
  69.4365416 104.2082470 104.7161484  69.0929685 105.0984112 104.6400595
  69.8044379 104.0184128 103.8531069  57.5051267 116.5316000  97.5350086
  58.3426489 116.9413009  97.3183794  57.6829534 115.5915443  97.5050280
  69.4015699 114.1991081  93.2233919  68.8862322 114.9695686  93.4622307
  69.1293007 113.5256217  93.8466981  66.9862810 109.0440782  98.2819158
  66.1304406 108.6547632  98.1024796  67.3989762 109.1232743  97.4218943
  68.5161956 106.5787125 102.6810717  68.0126752 106.5417260 101.8678523
  68.8092563 107.4879868 102.7407374  64.7604842 106.6625855 101.6876899
  65.6257839 106.4668664 101.3282789  64.8282351 106.4336207 102.6146256
  74.3749973 116.9523436  95.1587093  73.5979416 116.6134595  94.7142255
  75.0541454 116.9576059  94.4842058  69.1902002 112.0718173  95.0493700
  68.8852138 112.3864322  95.9003844  70.1432444 112.1499593  95.0921033
  67.6348434 118.2308396  96.6986654  67.1069795 117.4961156  96.3859892
  67.1335937 119.0083073  96.4526623  62.3667161 108.8928063  99.0593266
  62.9410913 108.6703244  98.3266459  62.9538144 108.9616757  99.8121867
  71.4246739 114.7801790  99.8657642  71.9378620 115.4131782 100.3679352
  72.0747962 114.1802985  99.5001002  62.6936749 110.9232524  93.0789151
  61.8574061 111.2607210  93.3998426  62.5541518 110.7881504  92.1416288
  64.6689829 105.7669312  97.7868335  64.0154241 105.4518329  97.1624950
  64.6270303 105.1445052  98.5128158  65.7801034 116.0488607  89.7021627
  64.8728096 115.8177860  89.9012776  66.2772066 115.2526226  89.8895609
  68.6869113 124.7586114  92.6218314  68.0130812 125.0617811  93.2303271
  69.0734935 125.5615194  92.2723771  67.9027569 112.2551245 102.1115983
  66.9850131 112.4766192 101.9537671  68.3187713 112.3297556 101.2527690
  68.6862617 113.6542661  97.2418663  69.4334436 114.1664058  96.9325785
  68.9554207 113.3326714  98.1023057  66.9589267 116.1501202  94.2245618
  66.0500487 115.8660234  94.3218087  66.9884351 116.5700280  93.3648924
  71.1341454 110.6899777  99.2237453  70.3964211 110.1777163  99.5547695
  71.3868228 110.2500159  98.4120729  71.2353082 103.4676029  99.8179222
  71.5411959 102.6073393  99.5305137  71.9605687 104.0593649  99.6178216
  57.5277438 113.8706716  98.2060820  57.3301838 113.2776076  97.4811886
  56.9724102 113.5658926  98.9236759  65.5074161 113.7629822 100.3255413
  65.5622771 112.8103659 100.2497889  64.6965363 113.9189261 100.8096711
  66.6565355 117.6909945  91.5633696  66.2184785 116.9745804  91.1039333
  67.3975796 117.9186060  91.0018788  63.4466521 112.3806882  98.0845792
  62.6334387 112.6801053  98.4910984  63.9425516 111.9862571  98.8020274
  74.7738470 115.9667142  97.6210015  74.6356369 116.1568738  96.6931204
  74.4174689 116.7286525  98.0778066  62.9380596 109.9525237 103.7007027
  63.5779975 109.8113997 103.0029990  62.1058127 109.6659751 103.3245629
  63.7140900 119.2527668  99.8142019  64.5081499 118.7577988  99.6124594
  63.0032592 118.7245531  99.4509725  60.0223664 113.3970750  95.8901772
  59.0921252 113.3355205  96.1071734  60.1181135 112.8746702  95.0938413
  59.9409213 109.9225562  98.4780014  60.2016030 110.8370896  98.3689174
  60.7626385 109.4550005  98.6276626  61.4134138 111.3363320 105.6478838
  62.0857191 111.1280682 104.9991487  60.5863924 111.1385406 105.2084070
  66.8860328 124.9265786  94.8365393  67.0612084 124.4553830  95.6511015
  66.1993116 125.5531553  95.0646654  70.7776583 116.5494327  91.1565754
  70.1605753 115.8241155  91.0598806  70.3093071 117.3103687  90.8132828
  62.5675129 110.7679751  90.2787058  61.6904595 110.6468552  89.9149305
  63.0432882 109.9765830  90.0265947  54.0877269 115.5556911 100.3728565
  54.7748309 115.2418641  99.7849580  53.9325398 116.4598276 100.0995817
  58.8911991 110.4447108 104.8013589  58.8070180 109.8372777 104.0663999
  58.0694697 110.9356126 104.8023085  65.7539055 123.1206042  97.5249578
  64.9706577 123.6627722  97.6187803  66.4531800 123.6380021  97.9243820
  69.0635705 108.9300671 100.1683784  69.5604404 108.1770633  99.8484854
  68.2922686 108.9664988  99.6026993  70.1465486 117.6872358  97.7422207
  69.2121764 117.8073821  97.5726912  70.3242154 116.7844825  97.4782217
  65.6470674 111.0718054  99.8955468  65.2768461 110.5189094 100.5836374
  66.1429766 110.4676188  99.3430469  73.5338037 113.5289678  98.2772241
  73.9998489 114.3617669  98.2032544  73.9845537 113.0634659  98.9817500
  71.6014268 119.8733499  95.2758393  71.8774112 119.7590093  96.1852268
  70.7318767 119.4750984  95.2370567  71.5054700 105.8970265 102.3163143
  70.5917779 106.1274491 102.4845350  71.9347801 105.9808709 103.1677175
  68.5710498 123.0488035  96.1806256  69.0998264 122.5380489  95.5676418
  68.8338717 122.7330565  97.0451789  53.6645245 113.6357504 102.6446032
  53.7029345 113.1021095 103.4383150  53.1585538 113.1092710 102.0257009
  61.0436007 108.4822045 106.1408575  61.1077334 109.3436876 105.7285972
  60.9803128 107.8696046 105.4080933  57.2953823 112.3621606  95.7199964
  57.5907264 111.4532285  95.6667017  56.3941858 112.3409346  95.3980966
  60.8248070 110.4377603 101.7027512  60.1034655 111.0513571 101.5634986
  61.6141325 110.9735368 101.6244158  59.0241664 110.0435704  95.8439289
  58.6954370 109.1633083  95.6614395  59.3781035 109.9883373  96.7315678
  62.1383487 110.3308674  96.2114766  62.4779560 110.8594595  95.4893375
  62.5855608 110.6689080  96.9873333  64.8326928 108.7145725 105.6617835
  64.4923749 107.9153538 106.0638514  64.1265934 109.0147436 105.0894668
  65.4843400 105.7995037 104.1145158  66.3069469 105.3255515 103.9924048
  65.7281464 106.5785521 104.6143844  64.1251634 108.8283296  94.4108059
  64.8459997 109.2064548  93.9071776  63.5016939 109.5472172  94.5143037
  68.2682757 109.5328445  95.3466392  68.4846372 110.4153082  95.0455220
  67.7876824 109.1414658  94.6172034  63.0081979 112.4914158 101.9237136
  62.8626559 112.8054461 102.8161418  62.5307182 113.1099058 101.3708035
  64.8678362 109.4816706 101.9718026  64.8539930 108.5857799 101.6350324
  65.5850790 109.4887369 102.6056312  66.7204492 109.9154046 104.0171153
  66.4622270 110.8371117 104.0155484  66.1889533 109.5184480 104.7071617
  57.4827641 115.0319502 104.8624797  56.9381109 115.8079310 104.9945072
  58.3606991 115.3790307 104.7043919  64.2715258 108.3631086  97.2405596
  64.3931169 107.4347732  97.4396483  63.9817300 108.3769772  96.3283911
  67.1406448 106.0485996 100.3772316  67.1628145 106.1125330  99.4224295
  67.5574507 105.2090505 100.5712822  72.6525854 122.3371597  93.8958137
  73.3476758 122.9578290  94.1145451  72.9949004 121.4866949  94.1710515
  74.5517277 119.7871303  95.4245468  75.0768601 120.1258576  94.6994788
  74.4639629 118.8518318  95.2408602  58.7150276 122.0454827  99.7865349
  59.5408296 121.7458599  99.4063992  58.3644328 121.2762450 100.2355138
  56.9158881 119.9641154 100.7454282  56.0790790 119.5363328 100.5638284
  56.8882527 120.1573597 101.6825074  63.2445316 119.9485219  95.3321483
  63.3933437 120.6320683  94.6788156  64.0511760 119.9290309  95.8470939
  60.9997949 115.9750396  96.3382552  60.7543991 115.0712726  96.5362762
  61.1693864 115.9767547  95.3962030  68.6894659 106.8474073 105.7207308
  69.2076603 107.5835100 105.3953796  68.3349792 107.1538066 106.5554067
  60.2693597 111.7078754  93.8368713  59.5762842 111.7823109  93.1808749
  60.0245349 110.9439098  94.3590230  68.9407254 103.2674355 101.2408204
  69.2209007 102.5997544 101.8668631  69.7257860 103.4603451 100.7282868
  66.7440722 122.4433349  92.8033230  66.1714689 123.0623536  92.3503702
  67.3173516 122.9932711  93.3373152  69.9637982 122.7270499  93.9341813
  70.8968655 122.6616061  94.1374688  69.8761195 123.5626766  93.4756345
  72.5925998 122.0436370  90.8945760  72.5139630 121.7096233  91.7881518
  73.4135665 122.5358138  90.8937233  67.1287521 113.7794162  90.1449283
  68.0746625 113.6500370  90.2137701  66.7501765 113.0408824  90.6218711
  73.1009405 105.4450168 100.1076175  72.9034226 105.1365256 100.9919507
  73.7109111 106.1711807 100.2374105  65.3130438 111.7044138  90.0804168
  64.4061893 111.4077251  90.1566882  65.5906419 111.4073956  89.2138454
  56.2308378 113.0250502 100.5303215  55.9111162 112.1715810 100.2377589
  55.6841806 113.2399080 101.2861182  60.0088286 115.7412943 104.2472721
  60.2274295 116.6730050 104.2660755  60.4214059 115.3820917 105.0327525
  66.9292503 106.2481028  96.2348409  66.1193232 105.9028113  96.6103656
  67.6176920 105.9388572  96.8236021  68.8583052 105.3259075  97.8572706
  69.4114090 105.7454528  98.5162729  69.0953138 104.3994823  97.8995662
  64.0829222 108.5631073  90.2216147  64.9448386 108.8885972  90.4811965
  64.2679566 107.7762569  89.7089213  56.0996638 116.6453413 102.4996336
  55.4060109 116.2307366 101.9866291  56.8469629 116.6873950 101.9029755
  72.2361859 107.4359600  97.3651370  71.6560528 108.0944404  96.9829423
  71.9697791 106.6136945  96.9538788  70.6865425 106.8364658  99.5672691
  71.1865204 106.9481192  98.7587010  71.3301033 106.5325711 100.2073499
  58.0133381 116.5771667 100.3762351  57.9904069 116.6759354  99.4244234
  58.3234017 117.4236818 100.6979517  71.0186737 109.5959690  96.4207719
  70.1312592 109.8809341  96.2027913  71.4340726 109.4353454  95.5734995
  74.3701273 109.6206211 100.1362058  75.1461663 110.1102664 100.4086675
  73.6449407 110.0464266 100.5933927  76.8073832 110.3333831 101.1935998
  77.4018322 110.0929566 100.4829307  76.8800415 109.6140961 101.8209535
  70.1629950 119.3604365  90.5155739  70.8665800 119.5654368  91.1313394
  69.4392599 119.9281127  90.7804822  70.9927761 115.1114226  96.6358009
  70.9362962 115.5682778  95.7965641  71.5456103 114.3504911  96.4580852
  74.8032566 110.9003958  97.4608128  74.5469501 110.5000594  98.2916336
  74.1785434 111.6147752  97.3358267  72.0716648 119.7986894  92.5654199
  72.9062252 119.3668093  92.3831673  71.9100991 119.6268908  93.4931093
  71.7262540 116.3019008  93.9310538  71.6711344 116.1363279  92.9898982
  71.1008595 117.0095040  94.0872728  56.5155055 111.5387072 107.7571960
  57.1613918 111.0286026 108.2459185  56.3072206 112.2755754 108.3315385
  65.0358665 105.8027117  93.5095856  65.0237335 106.7468956  93.6664127
  65.9282087 105.6197262  93.2155318  68.8510785 102.3969893  97.7641793
  68.0843181 101.8428380  97.9098475  69.2621490 102.4691762  98.6255945
  73.5330503 126.2524441  93.0789151  72.6967815 126.5899128  93.3998426
  73.3935273 126.1173421  92.1416288  73.4068883 126.0971669  90.2787058
  72.5298350 125.9760470  89.9149305  73.8826636 125.3057747  90.0265947
  71.1087352 127.0370672  93.8368713  70.4156596 127.1115027  93.1808749
  70.8639103 126.2731015  94.3590230  76.1524192 127.0336056  90.0804168
  75.2455648 126.7369169  90.1566882  76.4300173 126.7365874  89.2138454
  74.9222977 123.8922991  90.2216147  75.7842141 124.2177889  90.4811965
  75.1073321 123.1054487  89.7089213  75.8752420 121.1319034  93.5095856
  75.8631090 122.0760874  93.6664127  76.7675842 120.9489180  93.2155318
  15.6638397  15.3467162  89.3854682  16.3016807  15.2273909  88.6818022
  15.5459240  16.2948006  89.4442634  12.4728103  15.2994590  89.3216207
  12.1346615  15.1835655  88.4336742  13.3417872  14.8985755  89.3017213
   8.3314919  17.1530066  85.3113098   7.7679784  17.0620003  84.5429385
   8.2167314  16.3329971  85.7915590  13.9114478  20.8201034  80.6227563
  13.2602458  21.4055114  80.2361576  14.7058841  21.3507229  80.6822600
   7.8370105  17.9090171  81.0214697   8.6100981  17.3619158  80.8827573
   8.1895504  18.7734421  81.2329158  10.1736383  14.0682837  78.6533147
  10.4261903  13.5464359  77.8916610   9.2360942  13.9048983  78.7559830
  15.2179666  13.0718616  86.4607890  16.0042755  12.6538039  86.1098307
  15.4818370  13.9764708  86.6289538  15.3889743  18.5091466  81.1596547
  14.7535576  18.5826093  81.8717452  15.0587149  19.0985065  80.4815626
  20.6188093  13.0093849  87.3640869  21.3513265  12.4393066  87.5978698
  19.8627448  12.6215449  87.8047374   9.8932671  15.9710943  80.8557522
   9.7768930  15.2955847  81.5238606  10.0034931  15.4843317  80.0389675
  12.2364212  15.4321090  84.5604211  11.8722420  14.9051711  85.2717132
  13.0931328  15.0419559  84.3870696  11.8769699  10.4610990  79.5565560
  12.0444102  11.3291227  79.9236031  11.6866868  10.6238272  78.6326849
  14.6345033  18.9227969  91.2231390  14.3345756  19.8253008  91.1147197
  14.2896092  18.6560152  92.0752543  18.0342176  11.4410509  88.9028827
  17.1259054  11.3725918  88.6087588  17.9829772  11.9182454  89.7310653
  11.8558920  12.9168648  80.5412226  11.7358545  13.3625698  81.3797707
  11.1611509  13.2653965  79.9825765   9.6165812  25.6872289  84.1902358
   9.5389842  26.6380114  84.2690838   9.0127456  25.3418162  84.8477284
  17.5543986  13.3890121  81.3692560  18.4661843  13.6217508  81.1940258
  17.0453634  13.9727165  80.8067639  16.1613569  18.3715939  88.7606142
  15.5322431  18.5361653  88.0582210  15.7739231  18.7857549  89.5317106
  20.0402801  19.3070377  86.1150506  19.3553839  19.6869278  85.5647539
  20.1246650  19.9165704  86.8482453  11.7141531  18.1090347  86.0256227
  12.1779876  18.3878050  85.2360849  11.4498329  17.2073792  85.8429318
  10.6510417  14.2313500  82.8345792  11.3534460  14.6834543  83.3019718
  10.3191045  13.5897319  83.4625685  18.4099560  19.8302292  90.8868207
  19.2317004  19.4282479  90.6050888  18.4061963  19.7270526  91.8384322
  26.5005553  16.1741040  87.2353178  25.7469262  15.6048438  87.0797182
  26.6353094  16.1403705  88.1823813  11.8904181  21.0454442  82.9107897
  11.7549856  21.8905978  83.3392745  12.4313994  21.2473720  82.1473831
   5.3433579  18.5629880  83.4835822   5.8558099  19.3573131  83.6341387
   5.9956292  17.8656171  83.4169424   7.1528463  21.6795637  85.5658576
   7.3295092  22.6013601  85.3779559   7.9485297  21.3654056  85.9952955
   8.2759779  23.1973810  91.5668918   8.8267204  23.0690874  90.7945912
   7.4371255  23.4968699  91.2163811  15.2046928  14.5593615  79.9479226
  14.6893551  15.3298220  80.1867613  14.9324236  13.8858751  80.5712287
  20.1781202  17.3125970  81.8832399  19.4010644  16.9737129  81.4387561
  20.8572683  17.3178593  81.2087364  14.9933231  12.4320707  81.7739007
  14.6883366  12.7466857  82.6249150  15.9463673  12.5102127  81.8166340
  13.4379663  18.5910931  83.4231961  12.9101024  17.8563690  83.1105199
  12.9367165  19.3685607  83.1771929  18.4172509  16.7859951  88.5399007
  17.7596183  17.4759213  88.6279136  19.2212908  17.1756383  88.8832994
  17.2277967  15.1404324  86.5902949  17.7409849  15.7734316  87.0924659
  17.8779191  14.5405519  86.2246309  11.5832263  16.4091141  76.4266934
  10.6759325  16.1780394  76.6258083  12.0803295  15.6128760  76.6140916
  14.4900342  25.1188648  79.3463620  13.8162040  25.4220345  79.9548578
  14.8766164  25.9217729  78.9969077  14.4893846  14.0145195  83.9663970
  15.2365665  14.5266592  83.6571092  14.7585436  13.6929248  84.8268363
  12.7620496  16.5103736  80.9490924  11.8531715  16.2262769  81.0463394
  12.7915580  16.9302814  80.0894231  17.9939764  20.1210325  84.7182092
  17.5402091  19.2801235  84.7747282  17.3633730  20.7571724  85.0556872
  16.9372683  11.0502311  85.9482759  16.1995440  10.5379698  86.2793002
  17.1899457  10.6102693  85.1366036  16.4372703  21.9586822  85.6531910
  16.7295677  22.5191879  84.9344276  16.9471323  22.2515383  86.4085069
  11.3105390  14.1232356  87.0500720  11.3654000  13.1706193  86.9743196
  10.4996592  14.2791796  87.5342018  12.4596584  18.0512480  78.2879003
  12.0216014  17.3348338  77.8284640  13.2007025  18.2788594  77.7264094
   9.2497750  12.7409416  84.8091098   8.4365616  13.0403587  85.2156291
   9.7456744  12.3465105  85.5265581  11.4006328  22.7367173  86.7425363
  11.3582507  22.9628019  85.8133895  12.3169027  22.5030548  86.8911164
  20.5769699  16.3269677  84.3455321  20.4387597  16.5171273  83.4176511
  20.2205918  17.0889059  84.8023372  20.6039078  18.3946204  89.3566593
  21.0375585  18.3021493  90.2049647  21.3170659  18.3703704  88.7186609
   9.5172129  19.6130202  86.5387326  10.3112727  19.1180522  86.3369901
   8.8063821  19.0848065  86.1755031  14.3366973  21.9948298  90.8899693
  14.3903996  22.5639234  91.6577409  13.4681755  22.1650183  90.5253731
  21.4654628  18.4369904  91.8899478  21.6590518  19.3415715  92.1358753
  21.3655246  17.9777323  92.7238063  12.0943405  20.1859224  90.2185163
  11.9554491  19.8178009  91.0911101  11.3058001  20.7006864  90.0469121
  12.6891557  25.2868321  81.5610699  12.8643313  24.8156364  82.3756322
  12.0024345  25.9134087  81.7891960  13.6448620  19.5640827  87.6074001
  13.3098453  19.5241597  88.5031651  13.1452566  18.8985543  87.1344411
  16.5807812  16.9096861  77.8811060  15.9636982  16.1843689  77.7844113
  16.1124300  17.6706221  77.5378135   7.2552642  28.4357683  88.3350560
   7.4949240  29.0676208  89.0129578   6.4121839  28.0845723  88.6215919
  11.7680504  24.2436806  90.7392064  11.6950675  25.0491777  91.2511368
  11.3257897  24.4428772  89.9140085  11.5570284  23.4808576  84.2494885
  10.7737805  24.0230256  84.3433110  12.2563029  23.9982555  84.6489126
  14.8666934   9.2903205  86.8929091  15.3635633   8.5373168  86.5730161
  14.0953915   9.3267522  86.3272300  22.7196691  14.9943571  88.5347382
  22.7086567  15.8768286  88.1641315  21.8514071  14.6415122  88.3401919
  14.2279187  24.1423640  92.8950222  14.9407160  24.7771105  92.8226124
  13.7369216  24.2387506  92.0790224  15.9496714  18.0474893  84.4667514
  15.0152993  18.1676355  84.2972218  16.1273383  17.1447359  84.2027524
  19.3369266  13.8892212  85.0017548  19.8029718  14.7220203  84.9277851
  19.7876766  13.4237193  85.7062807  17.4045497  20.2336033  82.0003700
  17.6805341  20.1192628  82.9097574  16.5349996  19.8353518  81.9615873
  14.0399561  24.4822384  85.6436514  14.2221955  23.6644040  86.1064266
  14.8632547  24.6990076  85.2061404  14.3741726  23.4090569  82.9051562
  14.9029493  22.8983024  82.2921724  14.6369946  23.0933099  83.7697095
   7.7297474  24.4605686  85.6649338   7.0607850  24.9451813  85.1813378
   7.5910344  24.7074906  86.5792717  11.8702743  26.4949429  92.2631997
  12.4221051  26.6581051  93.0281082  12.2108936  27.0853867  91.5912021
  15.0071130  24.4431405  89.2495679  14.8822270  23.6421145  88.7406624
  15.6650221  24.9377598  88.7609649  17.0706039  22.2440425  90.8775229
  16.1236374  22.1245776  90.8053555  17.4188812  21.3562923  90.9601490
  14.0752472  22.0393141  87.0779581  13.9277434  21.1109848  87.2587151
  14.9005965  22.0613232  86.5936656  17.6786594  22.8621700  88.1644454
  18.6033141  22.6564561  88.0268905  17.5101897  22.6138101  89.0733795
  14.0713986   9.8930979  82.0711698  14.2877601  10.7755617  81.7700526
  13.5908053   9.5017192  81.3417340  17.4681910  23.3807367  83.5206545
  17.6418787  22.8153790  82.7680398  17.9610801  24.1808262  83.3386035
  23.3221301  16.1443790  85.1396845  23.7652447  15.3951115  84.7415968
  22.4447811  16.1353927  84.7570577  18.4557082  22.6974132  80.6203443
  19.1507987  23.3180824  80.8390758  18.7980233  21.8469483  80.8955821
  20.3548506  20.1473837  82.1490774  20.8799830  20.4861110  81.4240094
  20.2670858  19.2120853  81.9653909  12.0389166  26.2145820  86.5086027
  11.5994157  25.7222199  87.2018884  12.7897283  25.6718788  86.2678103
   4.5181505  22.4057361  86.5110655   5.3439525  22.1061133  86.1309299
   4.1675557  21.6364984  86.9600444   9.4863038  21.7583830  88.5808329
   8.8643048  21.0954535  88.2810557  10.1567905  21.7844961  87.8981977
   2.7190110  20.3243688  87.4699589   1.8822019  19.8965862  87.2883590
   2.6913756  20.5176131  88.4070380   9.0476545  20.3087753  82.0566790
   9.1964666  20.9923217  81.4033462   9.8542989  20.2892843  82.5716245
  21.6658483  20.0496149  95.0116722  21.3743292  20.4126129  95.8480183
  21.0530615  19.3363157  94.8330054  22.8654166  17.6149029  87.5319292
  23.7001057  18.0538833  87.6956853  23.0013295  17.1387682  86.7127538
   6.8029178  16.3352931  83.0627859   6.5575220  15.4315261  83.2608069
   6.9725093  16.3370081  82.1207337  12.5471951  22.8035883  79.5278537
  11.9745918  23.4226070  79.0749009  13.1204745  23.3535245  80.0618459
  15.7669211  23.0873033  80.6587119  16.6999884  23.0218595  80.8619995
  15.6792423  23.9229300  80.2001652  18.3957227  22.4038904  77.6191067
  18.3170859  22.0698767  78.5126825  19.2166894  22.8960672  77.6182539
  21.0935418  15.2700643  90.8267386  21.0611739  14.3316644  91.0127069
  21.7036042  15.3484680  90.0933210  12.9318749  14.1396696  76.8694590
  13.8777854  14.0102904  76.9383008  12.5532994  13.4011358  77.3464018
  26.9111968  16.3316650  89.9673422  27.6415357  16.0701938  90.5281126
  26.3018914  15.5945372  90.0075490  24.9927265  14.4724513  90.5647874
  24.2660429  14.3380477  89.9564365  24.5774552  14.7801341  91.3704592
  11.1161666  12.0646672  76.8049475  10.2093122  11.7679785  76.8812188
  11.3937647  11.7676491  75.9383761  18.0393088   7.7962134  84.0896677
  17.4591757   8.4546938  83.7074729  17.7729020   6.9739479  83.6784094
  16.8217966   9.9562225  83.1453025  15.9343821  10.2411875  82.9273220
  17.2371955   9.7955988  82.2980302  20.1732502   9.9808746  86.8607364
  20.9492892  10.4705198  87.1331981  19.4480636  10.4066800  87.3179234
  22.6105060  10.6936365  87.9181305  23.2049551  10.4532101  87.2074613
  22.6831644   9.9743495  88.5454841   4.8302216  24.5369976  88.2324470
   4.6956684  23.7770377  87.6662468   4.4134278  25.2610876  87.7653259
  15.9661179  19.7206899  77.2401045  16.6697029  19.9256902  77.8558701
  15.2423828  20.2883661  77.5050129  16.7958989  15.4716760  83.3603315
  16.7394191  15.9285312  82.5210948  17.3487332  14.7107445  83.1826158
  20.6063795  11.2606492  84.1853435  20.3500730  10.8603128  85.0161643
  19.9816663  11.9750286  84.0603574  24.9176133  14.0002566  86.6924726
  24.3575691  14.0695755  87.4656288  24.3119636  13.8243550  85.9724223
   7.9871342  25.4339293  88.4442913   7.8703726  26.3784725  88.3421603
   7.1663788  25.1312854  88.8328712  17.8747876  20.1589428  79.2899505
  18.7093480  19.7270627  79.1076980  17.7132219  19.9871442  80.2176400
  17.5293769  16.6621542  80.6555845  17.4742572  16.4965813  79.7144289
  16.9039824  17.3697575  80.8118034   9.0125856  26.0867555  91.6598841
   9.9153103  26.1191165  91.9765336   8.7863226  25.1568006  91.6745177
  10.7679458  24.8398541  88.3208920   9.8175089  24.8400403  88.2073292
  11.0711944  24.0931276  87.8044954  26.5032152  30.6759080  89.3854682
  27.1410562  30.5565827  88.6818022  26.3852994  31.6239923  89.4442634
  23.3121858  30.6286508  89.3216207  22.9740369  30.5127572  88.4336742
  24.1811626  30.2277673  89.3017213  19.1708674  32.4821984  85.3113098
  18.6073539  32.3911921  84.5429385  19.0561069  31.6621889  85.7915590
  23.7941641  31.7821359  95.2802412  23.7830282  31.3874158  94.4082916
  23.9562280  31.0487432  95.8736184  16.7173105  33.9773176  88.1497318
  17.5094397  33.6364000  87.7343617  16.9569756  34.0868151  89.0699471
  24.7508232  36.1492952  80.6227563  24.0996212  36.7347032  80.2361576
  25.5452595  36.6799147  80.6822600  18.6763859  33.2382089  81.0214697
  19.4494735  32.6911076  80.8827573  19.0289258  34.1026338  81.2329158
  20.5148902  34.5658471  94.2281596  20.2238768  35.4704102  94.1128263
  21.1505886  34.6074999  94.9425666  21.4405109  31.9435320  90.8182956
  22.0368681  31.7191342  90.1039919  21.4980080  31.2020065  91.4208404
  21.0130137  29.3974755  78.6533147  21.2655658  28.8756276  77.8916610
  20.0754696  29.2340900  78.7559830  26.0573420  28.4010533  86.4607890
  26.8436509  27.9829957  86.1098307  26.3212124  29.3056626  86.6289538
  26.2283497  33.8383384  81.1596547  25.5929330  33.9118010  81.8717452
  25.8980904  34.4276983  80.4815626  31.4581847  28.3385767  87.3640869
  32.1907019  27.7684983  87.5978698  30.7021203  27.9507367  87.8047374
  20.7326426  31.3002861  80.8557522  20.6162684  30.6247764  81.5238606
  20.8428686  30.8135235  80.0389675  23.0757967  30.7613008  84.5604211
  22.7116174  30.2343629  85.2717132  23.9325083  30.3711477  84.3870696
  28.9807268  22.0507341  91.8235477  28.6490592  22.9202752  91.5996692
  28.3852881  21.7343625  92.5029508  22.7163454  25.7902908  79.5565560
  22.8837856  26.6583144  79.9236031  22.5260623  25.9530189  78.6326849
  25.4738787  34.2519887  91.2231390  25.1739510  35.1544925  91.1147197
  25.1289847  33.9852070  92.0752543  18.9251269  30.7033684  87.2568094
  18.0001765  30.5709898  87.4645786  19.1735682  31.4827903  87.7538037
  28.8735931  26.7702427  88.9028827  27.9652808  26.7017835  88.6087588
  28.8223527  27.2474372  89.7310653  22.6952675  28.2460565  80.5412226
  22.5752300  28.6917616  81.3797707  22.0005263  28.5945883  79.9825765
  16.2860080  30.3466957  88.0911883  16.4152461  30.6001436  89.0051295
  15.6057531  30.9394665  87.7716538  20.4559567  41.0164207  84.1902358
  20.3783597  41.9672032  84.2690838  19.8521210  40.6710080  84.8477284
  22.9476797  28.1892072  96.8463725  22.1710131  28.7485993  96.8366589
  23.5867360  28.6748855  97.3678595  30.7397577  24.9718865  90.6806701
  30.0971958  25.2651398  90.0346496  30.2352506  24.8571786  91.4859898
  28.3937741  28.7182038  81.3692560  29.3055597  28.9509425  81.1940258
  27.8847388  29.3019083  80.8067639  21.2023169  30.9977526  96.4081692
  21.9437853  31.5362570  96.1316515  20.4960154  31.6243815  96.5653243
  26.6778509  33.1406666  95.0053853  27.0861865  32.6989077  94.2608485
  25.9555770  32.5659294  95.2588046  23.0309579  28.0779273  92.3787410
  23.8770774  28.5018687  92.5222059  22.9708216  27.4212897  93.0725973
  27.0007323  33.7007857  88.7606142  26.3716186  33.8653571  88.0582210
  26.6132985  34.1149466  89.5317106  30.8796555  34.6362295  86.1150506
  30.1947593  35.0161196  85.5647539  30.9640404  35.2457621  86.8482453
  26.1809024  25.7383641  94.0368584  25.9369956  26.4925702  93.5002859
  26.4568954  26.1168989  94.8715831  28.1347487  32.2822254  92.7145849
  28.3464382  32.9254014  92.0380230  28.0877235  31.4484570  92.2467779
  25.7373716  24.8940074  89.6182421  24.8758195  25.1921328  89.9099159
  25.7636150  25.1110473  88.6863454  22.5535285  33.4382265  86.0256227
  23.0173631  33.7169968  85.2360849  22.2892083  32.5365710  85.8429318
  19.4459366  32.9853747  88.9635990  20.0160723  33.4141015  88.3253475
  20.0367478  32.7036331  89.6620176  21.4904171  29.5605417  82.8345792
  22.1928215  30.0126461  83.3019718  21.1584800  28.9189236  83.4625685
  19.9384533  28.1517174  97.2097002  19.3083193  28.8333455  97.4432398
  19.8320621  28.0400256  96.2650140  15.2329505  27.8188970  88.1362926
  14.4428559  28.0746499  87.6603036  15.7240752  28.6337308  88.2414966
  29.2493315  35.1594209  90.8868207  30.0710758  34.7574396  90.6050888
  29.2455718  35.0562443  91.8384322  17.1844251  28.1833549  85.0946402
  16.3875414  28.2952244  85.6129898  16.9569843  28.5220201  84.2287293
  23.0149918  34.7078252  93.0428917  23.0794351  35.1698660  93.8787089
  22.3060842  34.0775617  93.1711227  13.5167208  28.0719460  90.5677916
  13.7675247  28.9566470  90.8335492  14.0526757  27.8924062  89.7953008
  37.3399308  31.5032958  87.2353178  36.5863016  30.9340356  87.0797182
  37.4746849  31.4695622  88.1823813  22.7297936  36.3746360  82.9107897
  22.5943611  37.2197896  83.3392745  23.2707748  36.5765638  82.1473831
  16.1827333  33.8921798  83.4835822  16.6951854  34.6865048  83.6341387
  16.8350046  33.1948088  83.4169424  17.9922218  37.0087554  85.5658576
  18.1688846  37.9305519  85.3779559  18.7879051  36.6945974  85.9952955
  22.1333236  23.8695819  97.1642509  22.8742950  24.4702972  97.0846972
  22.3651159  23.1273457  96.6060552  17.2774574  29.0552186  95.4420739
  17.1628090  28.1537443  95.7427838  16.4219092  29.3015883  95.0905555
  24.3566412  36.9969926  97.0408239  23.9130266  36.2106305  96.7229144
  25.0183626  37.1849077  96.3752130  19.1153533  38.5265728  91.5668918
  19.6660958  38.3982791  90.7945912  18.2765009  38.8260617  91.2163811
  26.4547650  37.2772726  95.0689641  26.4366126  38.0981607  94.5769910
  27.3767570  37.1526802  95.2939782  22.9120704  34.7916856  95.9113149
  23.4449041  34.0305144  95.6812457  22.3834785  34.4990508  96.6537304
  26.0790399  19.8976922  91.4406791  25.7354669  20.7878564  91.3645901
  26.4469362  19.7078580  90.5776376  14.1476250  32.2210452  84.2595393
  14.9851472  32.6307461  84.0429101  14.3254518  31.2809894  84.2295587
  26.0440682  29.8885533  79.9479226  25.5287306  30.6590138  80.1867613
  25.7717991  29.2150669  80.5712287  23.6287793  24.7335234  85.0064464
  22.7729389  24.3442084  84.8270103  24.0414745  24.8127195  84.1464250
  25.1586940  22.2681577  89.4056024  24.6551735  22.2311712  88.5923829
  25.4517547  23.1774320  89.4652681  21.4029826  22.3520307  88.4122206
  22.2682822  22.1563115  88.0528095  21.4707335  22.1230659  89.3391563
  31.0174956  32.6417888  81.8832399  30.2404399  32.3029047  81.4387561
  31.6966437  32.6470511  81.2087364  25.8326985  27.7612625  81.7739007
  25.5277121  28.0758774  82.6249150  26.7857427  27.8394045  81.8166340
  24.2773417  33.9202848  83.4231961  23.7494779  33.1855608  83.1105199
  23.7760920  34.6977525  83.1771929  29.2566263  32.1151869  88.5399007
  28.5989938  32.8051130  88.6279136  30.0606662  32.5048301  88.8832994
  19.0092145  24.5822515  85.7838573  19.5835897  24.3597696  85.0511766
  19.5963127  24.6511209  86.5367174  28.0671722  30.4696242  86.5902949
  28.5803604  31.1026233  87.0924659  28.7172946  29.8697437  86.2246309
  19.3361732  26.6126976  79.8034458  18.4999044  26.9501662  80.1243733
  19.1966501  26.4775955  78.8661595  21.3114812  21.4563764  84.5113642
  20.6579225  21.1412781  83.8870257  21.2695287  20.8339504  85.2373465
  22.4226017  31.7383059  76.4266934  21.5153079  31.5072312  76.6258083
  22.9197049  30.9420678  76.6140916  25.3294096  40.4480566  79.3463620
  24.6555795  40.7512263  79.9548578  25.7159918  41.2509646  78.9969077
  24.5452553  27.9445697  88.8361290  23.6275114  28.1660644  88.6782978
  24.9612696  28.0192008  87.9772997  25.3287601  29.3437113  83.9663970
  26.0759419  29.8558510  83.6571092  25.5979190  29.0221166  84.8268363
  23.6014251  31.8395654  80.9490924  22.6925470  31.5554686  81.0463394
  23.6309335  32.2594732  80.0894231  28.8333518  35.4502243  84.7182092
  28.3795845  34.6093153  84.7747282  28.2027485  36.0863641  85.0556872
  27.7766438  26.3794229  85.9482759  27.0389194  25.8671615  86.2793002
  28.0293211  25.9394611  85.1366036  27.2766457  37.2878740  85.6531910
  27.5689432  37.8483797  84.9344276  27.7865078  37.5807301  86.4085069
  27.8778065  19.1570481  86.5424528  28.1836942  18.2967844  86.2550444
  28.6030670  19.7488101  86.3423522  14.1702421  29.5601168  84.9306126
  13.9726821  28.9670528  84.2057193  13.6149085  29.2553378  85.6482065
  22.1499145  29.4524274  87.0500720  22.2047755  28.4998111  86.9743196
  21.3390347  29.6083713  87.5342018  23.2990339  33.3804397  78.2879003
  22.8609768  32.6640256  77.8284640  24.0400779  33.6080512  77.7264094
  20.0891505  28.0701334  84.8091098  19.2759370  28.3695504  85.2156291
  20.5850499  27.6757023  85.5265581  22.2400083  38.0659091  86.7425363
  22.1976261  38.2919937  85.8133895  23.1562781  37.8322465  86.8911164
  25.6865716  28.5343158  93.6405992  26.0415104  28.7614631  94.5000458
  26.3337848  28.8661535  93.0183248  31.4163453  31.6561594  84.3455321
  31.2781352  31.8463190  83.4176511  31.0599672  32.4180977  84.8023372
  19.5805579  25.6419689  90.4252333  20.2204959  25.5008448  89.7275297
  18.7483110  25.3554203  90.0490935  31.4432833  33.7238121  89.3566593
  31.8769340  33.6313410  90.2049647  32.1564414  33.6995622  88.7186609
  20.3565883  34.9422120  86.5387326  21.1506482  34.4472440  86.3369901
  19.6457576  34.4139983  86.1755031  25.1760728  37.3240215  90.8899693
  25.2297750  37.8931152  91.6577409  24.3075509  37.4942100  90.5253731
  16.6648647  29.0865202  82.6147079  15.7346235  29.0249657  82.8317041
  16.7606119  28.5641154  81.8183720  16.5834196  25.6120014  85.2025320
  16.8441013  26.5265348  85.0934481  17.4051368  25.1444457  85.3521933
  18.0559121  27.0257772  92.3724145  18.7282175  26.8175134  91.7236794
  17.2288908  26.8279858  91.9329377  32.3048382  33.7661822  91.8899478
  32.4984273  34.6707632  92.1358753  32.2049001  33.3069241  92.7238063
  23.9584693  23.6519712  94.3889806  23.3112608  24.3509662  94.2954282
  24.7285709  24.0855856  94.7566054  27.3663491  33.9168565  97.4640359
  27.2148998  33.6879116  96.5470443  27.3568171  34.8739166  97.4771704
  24.1348828  31.4900477  92.4486625  25.0640888  31.6411637  92.2755593
  23.7139858  31.5784498  91.5935272  22.9337159  35.5151142  90.2185163
  22.7948245  35.1469926  91.0911101  22.1451756  36.0298781  90.0469121
  23.5285311  40.6160238  81.5610699  23.7037067  40.1448281  82.3756322
  22.8418099  41.2426004  81.7891960  24.4842374  34.8932744  87.6074001
  24.1492207  34.8533514  88.5031651  23.9846320  34.2277460  87.1344411
  18.4586618  30.3000375  93.1326582  18.3206416  29.5680613  93.7338121
  19.3691542  30.2109275  92.8510770  27.4201566  32.2388779  77.8811060
  26.8030737  31.5135607  77.7844113  26.9518055  32.9998139  77.5378135
  21.0868919  30.0120334  92.6210262  21.7968538  29.3713526  92.5796880
  21.0438227  30.2633229  93.5436442  29.0755698  36.9487687  95.5416841
  29.0168244  36.2646907  94.8747424  29.4775216  37.6906677  95.0897467
  19.7997853  26.9985552  94.4405901  19.2635210  26.5476290  95.0927497
  19.2114562  27.1331461  93.6976365  18.0946397  43.7649601  88.3350560
  18.3342995  44.3968125  89.0129578  17.2515593  43.4137641  88.6215919
  19.2100112  26.4574203  77.0032365  18.3329578  26.3363004  76.6394611
  19.6857865  25.6660281  76.7511253  29.0773105  34.9127271  93.7730820
  28.1899884  34.5753193  93.8957219  29.6471656  34.1810302  94.0099586
  10.7302252  31.2451363  87.0973872  11.4173292  30.9313093  86.5094887
  10.5750381  32.1492728  86.8241123  15.5336974  26.1341559  91.5258895
  15.4495163  25.5267229  90.7909305  14.7119681  26.6250578  91.5268392
  22.6074258  39.5728723  90.7392064  22.5344430  40.3783695  91.2511368
  22.1651652  39.7720689  89.9140085  22.3964038  38.8100493  84.2494885
  21.6131560  39.3522174  84.3433110  23.0956783  39.3274473  84.6489126
  25.7060688  24.6195123  86.8929091  26.2029388  23.8665085  86.5730161
  24.9347670  24.6559440  86.3272300  33.5590446  30.3235488  88.5347382
  33.5480322  31.2060204  88.1641315  32.6907825  29.9707039  88.3401919
  25.0672942  39.4715557  92.8950222  25.7800914  40.1063022  92.8226124
  24.5762971  39.5679423  92.0790224  26.7890469  33.3766810  84.4667514
  25.8546748  33.4968273  84.2972218  26.9667137  32.4739277  84.2027524
  22.2895657  26.7612506  86.6200775  21.9193444  26.2083546  87.3081681
  22.7854749  26.1570639  86.0675775  30.1763020  29.2184129  85.0017548
  30.6423472  30.0512121  84.9277851  30.6270521  28.7529111  85.7062807
  20.1184856  37.2210001  93.7155793  20.8194315  37.8546484  93.8685187
  19.6479970  37.5624733  92.9551432  28.2439251  35.5627951  82.0003700
  28.5199095  35.4484545  82.9097574  27.3743750  35.1645436  81.9615873
  28.1479683  21.5864716  89.0408449  27.2342763  21.8168943  89.2090656
  28.5772784  21.6703161  89.8922482  27.9186141  29.7754608  91.5408343
  27.2657592  30.0230516  90.8860796  28.2966521  28.9618747  91.2070821
  24.8793315  39.8114302  85.6436514  25.0615710  38.9935958  86.1064266
  25.7026301  40.0281994  85.2061404  25.2135481  38.7382487  82.9051562
  25.7423247  38.2274941  82.2921724  25.4763700  38.4225017  83.7697095
  23.9673714  30.5174419  98.0274381  23.2914352  30.4168549  98.6976756
  24.7901348  30.3613633  98.4910378  15.7152574  36.7546356  90.6486896
  16.3006010  36.0090044  90.7814800  15.5177412  37.0650313  91.5323560
  18.5691229  39.7897603  85.6649338  17.9001604  40.2743731  85.1813378
  18.4304098  40.0366824  86.5792717  10.3070228  29.3251956  89.3691339
  10.3454328  28.7915547  90.1628457   9.8010521  28.7987162  88.7502316
  22.7096497  41.8241347  92.2631997  23.2614805  41.9872968  93.0281082
  23.0502691  42.4145785  91.5912021  17.6860991  24.1716497  92.8653881
  17.7502317  25.0331328  92.4531279  17.6228111  23.5590498  92.1326240
  17.1613263  26.2439629  96.5126915  17.7885302  25.8616707  97.1264440
  16.3041182  26.0253831  96.8782608  27.5607372  36.6502604  98.1180651
  28.1047276  37.2632563  97.6235606  26.9794217  37.2082183  98.6347664
  13.9378806  28.0516058  82.4445270  14.2332247  27.1426737  82.3912324
  13.0366842  28.0303798  82.1226273  25.8464885  39.7723322  89.2495679
  25.7216024  38.9713062  88.7406624  26.5043976  40.2669516  88.7609649
  17.4673053  26.1272055  88.4272819  16.7459639  26.7408023  88.2880292
  18.2566309  26.6629820  88.3489465  27.9099793  37.5732343  90.8775229
  26.9630129  37.4537694  90.8053555  28.2582566  36.6854841  90.9601490
  20.2699366  23.4626481  94.7013471  20.7933768  23.7088778  95.4639780
  20.0511700  24.2946516  94.2816608  15.6666647  25.7330156  82.5684595
  15.3379354  24.8527535  82.3859701  16.0206018  25.6777825  83.4560985
  24.9146226  37.3685059  87.0779581  24.7671189  36.4401766  87.2587151
  25.7399720  37.3905149  86.5936656  18.7808471  26.0203126  82.9360073
  19.1204543  26.5489047  82.2138681  19.2280591  26.3583532  83.7118640
  28.5180348  38.1913617  88.1644454  29.4426896  37.9856479  88.0268905
  28.3495652  37.9430019  89.0733795  21.4751911  24.4040177  92.3863141
  21.1348732  23.6047990  92.7883821  20.7690918  24.7041887  91.8139974
  22.1268383  21.4889489  90.8390464  22.9494453  21.0149967  90.7169355
  22.3706447  22.2679973  91.3389150  20.7676618  24.5177747  81.1353366
  21.4884980  24.8959000  80.6317083  20.1441922  25.2366624  81.2388344
  24.9107741  25.2222896  82.0711698  25.1271355  26.1047534  81.7700526
  24.4301808  24.8309110  81.3417340  19.6506962  28.1808610  88.6482443
  19.5051543  28.4948913  89.5406724  19.1732166  28.7993510  88.0953341
  21.5103345  25.1711158  88.6963332  21.4964914  24.2752251  88.3595630
  22.2275773  25.1781821  89.3301618  23.3629476  25.6048498  90.7416460
  23.1047253  26.5265568  90.7400790  22.8314516  25.2078932  91.4316924
  28.3075664  38.7099285  83.5206545  28.4812542  38.1445707  82.7680398
  28.8004556  39.5100180  83.3386035  14.1252624  30.7213954  91.5870104
  13.5806092  31.4973762  91.7190378  15.0031974  31.0684758  91.4289225
  20.9140241  24.0525538  83.9650903  21.0356152  23.1242184  84.1641790
  20.6242283  24.0664224  83.0529218  23.7831431  21.7380448  87.1017622
  23.8053128  21.8019781  86.1469602  24.1999490  20.8984957  87.2958129
  34.1615056  31.4735708  85.1396845  34.6046202  30.7243033  84.7415968
  33.2841566  31.4645844  84.7570577  29.2950837  38.0266049  80.6203443
  29.9901742  38.6472742  80.8390758  29.6373987  37.1761401  80.8955821
  14.9118646  29.8483850  94.4800261  14.1700382  29.9966486  95.0664891
  14.5911390  30.1092116  93.6167010  31.1942260  35.4765755  82.1490774
  31.7193584  35.8153028  81.4240094  31.1064613  34.5412770  81.9653909
  22.8562309  39.3899829  94.2780651  23.1649435  39.1448975  95.1503350
  23.6537791  39.5946467  93.7899521  22.8782921  41.5437738  86.5086027
  22.4387911  41.0514117  87.2018884  23.6291038  41.0010706  86.2678103
  15.3575260  37.7349279  86.5110655  16.1833280  37.4353051  86.1309299
  15.0069312  36.9656901  86.9600444  20.3256793  37.0875747  88.5808329
  19.7036802  36.4246452  88.2810557  20.9961660  37.1136879  87.8981977
  13.5583865  35.6535605  87.4699589  12.7215773  35.2257780  87.2883590
  13.5307510  35.8468049  88.4070380  20.3981320  25.5657535  98.1740835
  20.4469476  26.4419658  97.7918605  20.9403835  25.0234928  97.6012478
  30.8836166  36.1098659  97.4541972  30.0931710  36.0922797  96.9146472
  30.6469521  36.6486952  98.2091009  31.0034041  32.9591125  94.7674701
  31.0532046  32.7941132  95.7090224  30.8947964  32.0918384  94.3772582
  19.8870300  35.6379671  82.0566790  20.0358420  36.3215135  81.4033462
  20.6936743  35.6184761  82.5716245  28.2937804  28.9422053  96.0834007
  29.1947666  28.8028518  95.7918005  28.3685778  29.1076508  97.0232185
  22.6280609  26.3188908  94.9287194  21.7583918  26.6122474  94.6569782
  22.8640089  26.9029353  95.6494457  32.5052238  35.3788066  95.0116722
  32.2137046  35.7418047  95.8480183  31.8924369  34.6655075  94.8330054
  33.7047920  32.9440946  87.5319292  34.5394812  33.3830750  87.6956853
  33.8407049  32.4679599  86.7127538  30.7539426  30.5020681  93.4796780
  31.2293548  30.6948327  92.6715632  29.8304992  30.5579867  93.2340164
  17.6422933  31.6644848  83.0627859  17.3968975  30.7607178  83.2608069
  17.8118847  31.6661999  82.1207337  25.3319643  22.5368525  92.4452614
  25.8501587  23.2729552  92.1199103  24.9774775  22.8432518  93.2799373
  16.9118580  27.3973206  80.5614020  16.2187825  27.4717561  79.9054056
  16.6670332  26.6333549  81.0835537  25.5832237  18.9568807  87.9653511
  25.8633991  18.2891996  88.5913937  26.3682844  19.1497903  87.4528175
  23.3865705  38.1327801  79.5278537  22.8139672  38.7517988  79.0749009
  23.9598499  38.6827163  80.0618459  29.4541095  27.3786441  91.7125086
  30.4058518  27.4784539  91.7337310  29.2844546  26.5864710  92.2223170
  27.4755475  24.4642024  91.8984487  26.8805407  24.7447037  91.2030975
  27.1905171  24.9535925  92.6701228  26.6062965  38.4164951  80.6587119
  27.5393638  38.3510513  80.8619995  26.5186178  39.2521218  80.2001652
  29.2350982  37.7330821  77.6191067  29.1564613  37.3990685  78.5126825
  30.0560649  38.2252589  77.6182539  31.9329173  30.5992561  90.8267386
  31.9005493  29.6608562  91.0127069  32.5429797  30.6776598  90.0933210
  23.7712504  29.4688614  76.8694590  24.7171609  29.3394822  76.9383008
  23.3926749  28.7303276  77.3464018  32.0823661  27.3903604  90.8725669
  31.5662710  26.6062061  90.6855598  32.9663610  27.0622321  91.0372188
  29.7434388  21.1344620  86.8321481  29.5459210  20.8259708  87.7164813
  30.3534094  21.8606259  86.9619411  37.7505723  31.6608568  89.9673422
  38.4809111  31.3993856  90.5281126  37.1412668  30.9237290  90.0075490
  35.8321020  29.8016430  90.5647874  35.1054184  29.6672395  89.9564365
  35.4168307  30.1093259  91.3704592  23.6551196  33.5206360  98.3295247
  24.5754206  33.6984959  98.5235293  23.6200779  32.5762405  98.1774946
  21.9555421  27.3938590  76.8049475  21.0486876  27.0971703  76.8812188
  22.2331402  27.0968408  75.9383761  12.8733361  28.7144954  87.2548521
  12.5536146  27.8610262  86.9622895  12.3266790  28.9293532  88.0106489
  16.6513269  31.4307395  90.9718028  16.8699279  32.3624502  90.9906062
  17.0639043  31.0715369  91.7572832  23.5717487  21.9375480  82.9593716
  22.7618215  21.5922565  83.3348962  24.2601904  21.6283024  83.5481328
  25.5008035  21.0153527  84.5818013  26.0539074  21.4348980  85.2408036
  25.7378121  20.0889275  84.6240969  20.7254206  24.2525525  76.9461454
  21.5873370  24.5780424  77.2057271  20.9104550  23.4657021  76.4334520
  12.7421621  32.3347865  89.2241643  12.0485093  31.9201818  88.7111597
  13.4894612  32.3768402  88.6275062  28.8786842  23.1254052  84.0896677
  28.2985511  23.7838856  83.7074729  28.6122775  22.3031396  83.6784094
  27.3290408  22.5259110  86.2917997  27.8290187  22.6375644  85.4832316
  27.9726016  22.2220162  86.9318806  21.3872404  30.4337739  99.1785838
  20.9039486  31.2338099  99.3849727  21.4733343  30.4445684  98.2253282
  14.6558364  32.2666119  87.1007658  14.6329052  32.3653806  86.1489541
  14.9659000  33.1131270  87.4224824  17.3145742  34.3242274  91.2154272
  18.2688995  34.2926216  91.1484204  17.1158265  33.8632898  92.0304498
  17.9045124  32.8943390  93.7825070  18.7238013  33.3887469  93.8059907
  18.1781932  31.9775358  93.7542637  27.6611720  25.2854142  83.1453025
  26.7737575  25.5703793  82.9273220  28.0765709  25.1247906  82.2980302
  31.0126256  25.3100663  86.8607364  31.7886646  25.7997116  87.1331981
  30.2874390  25.7358717  87.3179234  33.4498815  26.0228282  87.9181305
  34.0443306  25.7824018  87.2074613  33.5225399  25.3035413  88.5454841
  15.6695971  39.8661893  88.2324470  15.5350438  39.1062294  87.6662468
  15.2528033  40.5902793  87.7653259  26.8054934  35.0498817  77.2401045
  27.5090784  35.2548819  77.8558701  26.0817582  35.6175579  77.5050129
  27.6352744  30.8008678  83.3603315  27.5787945  31.2577230  82.5210948
  28.1881086  30.0399363  83.1826158  31.4457550  26.5898410  84.1853435
  31.1894484  26.1895046  85.0161643  30.8210418  27.3042204  84.0603574
  35.7569888  29.3294483  86.6924726  35.1969446  29.3987673  87.4656288
  35.1513391  29.1535468  85.9724223  18.8265096  40.7631210  88.4442913
  18.7097481  41.7076643  88.3421603  18.0057543  40.4604772  88.8328712
  28.7141631  35.4881346  79.2899505  29.5487235  35.0562545  79.1076980
  28.5525974  35.3163360  80.2176400  28.3687523  31.9913459  80.6555845
  28.3136327  31.8257731  79.7144289  27.7433578  32.6989492  80.8118034
  13.1580038  27.2281524  94.4817267  13.8038902  26.7180478  94.9704492
  12.9497189  27.9650205  95.0560692  25.6833430  34.2962371  99.9809407
  26.5524590  34.4703024  99.6196042  25.2040182  35.1156788  99.8585137
  21.6783649  21.4921568  80.2341163  21.6662318  22.4363408  80.3909434
  22.5707070  21.3091714  79.9400624  19.8519611  41.4159472  91.6598841
  20.7546857  41.4483083  91.9765336  19.6256981  40.4859923  91.6745177
  21.6073213  40.1690459  88.3208920  20.6568844  40.1692320  88.2073292
  21.9105699  39.4223193  87.8044954  25.4935768  18.0864345  84.4887100
  24.7268164  17.5322832  84.6343782  25.9046473  18.1586214  85.3501251
  37.3425906  46.0050997  89.3854682  37.9804316  45.8857745  88.6818022
  37.2246749  46.9531841  89.4442634  34.1515612  45.9578425  89.3216207
  33.8134124  45.8419490  88.4336742  35.0205381  45.5569590  89.3017213
  30.0102428  47.8113902  85.3113098  29.4467293  47.7203839  84.5429385
  29.8954823  46.9913806  85.7915590  34.6335395  47.1113277  95.2802412
  34.6224036  46.7166075  94.4082916  34.7956035  46.3779350  95.8736184
  27.5566860  49.3065093  88.1497318  28.3488152  48.9655918  87.7343617
  27.7963510  49.4160068  89.0699471  29.5157614  48.5674007  81.0214697
  30.2888490  48.0202994  80.8827573  29.8683013  49.4318256  81.2329158
  31.3542656  49.8950389  94.2281596  31.0632522  50.7996020  94.1128263
  31.9899641  49.9366916  94.9425666  32.2798863  47.2727237  90.8182956
  32.8762436  47.0483260  90.1039919  32.3373835  46.5311983  91.4208404
  31.8523892  44.7266673  78.6533147  32.1049412  44.2048194  77.8916610
  30.9148451  44.5632818  78.7559830  36.8967175  43.7302451  86.4607890
  37.6830264  43.3121874  86.1098307  37.1605879  44.6348543  86.6289538
  42.2975602  43.6677684  87.3640869  43.0300774  43.0976901  87.5978698
  41.5414957  43.2799285  87.8047374  31.5720180  46.6294779  80.8557522
  31.4556439  45.9539682  81.5238606  31.6822440  46.1427153  80.0389675
  33.9151721  46.0904926  84.5604211  33.5509929  45.5635547  85.2717132
  34.7718837  45.7003395  84.3870696  39.8201022  37.3799258  91.8235477
  39.4884347  38.2494669  91.5996692  39.2246635  37.0635542  92.5029508
  33.5557208  41.1194825  79.5565560  33.7231611  41.9875062  79.9236031
  33.3654377  41.2822107  78.6326849  36.3132542  49.5811804  91.2231390
  36.0133265  50.4836843  91.1147197  35.9683601  49.3143988  92.0752543
  29.7645023  46.0325601  87.2568094  28.8395520  45.9001815  87.4645786
  30.0129436  46.8119820  87.7538037  39.7129685  42.0994345  88.9028827
  38.8046563  42.0309753  88.6087588  39.6617281  42.5766289  89.7310653
  33.5346429  43.5752483  80.5412226  33.4146054  44.0209534  81.3797707
  32.8399018  43.9237801  79.9825765  27.1253834  45.6758875  88.0911883
  27.2546215  45.9293354  89.0051295  26.4451285  46.2686583  87.7716538
  31.2953321  56.3456125  84.1902358  31.2177351  57.2963950  84.2690838
  30.6914965  56.0001997  84.8477284  33.7870551  43.5183990  96.8463725
  33.0103885  44.0777910  96.8366589  34.4261114  44.0040773  97.3678595
  41.5791332  40.3010783  90.6806701  40.9365712  40.5943316  90.0346496
  41.0746260  40.1863703  91.4859898  39.2331495  44.0473956  81.3692560
  40.1449352  44.2801343  81.1940258  38.7241142  44.6311000  80.8067639
  32.0416923  46.3269443  96.4081692  32.7831608  46.8654487  96.1316515
  31.3353909  46.9535732  96.5653243  37.5172263  48.4698584  95.0053853
  37.9255619  48.0280994  94.2608485  36.7949525  47.8951211  95.2588046
  33.8703333  43.4071191  92.3787410  34.7164528  43.8310604  92.5222059
  33.8101971  42.7504815  93.0725973  37.8401078  49.0299775  88.7606142
  37.2109940  49.1945489  88.0582210  37.4526740  49.4441384  89.5317106
  41.7190310  49.9654212  86.1150506  41.0341348  50.3453114  85.5647539
  41.8034159  50.5749539  86.8482453  37.0202778  41.0675559  94.0368584
  36.7763710  41.8217620  93.5002859  37.2962709  41.4460907  94.8715831
  38.9741241  47.6114171  92.7145849  39.1858136  48.2545931  92.0380230
  38.9270989  46.7776488  92.2467779  36.5767470  40.2231992  89.6182421
  35.7151949  40.5213246  89.9099159  36.6029905  40.4402391  88.6863454
  33.3929040  48.7674183  86.0256227  33.8567385  49.0461886  85.2360849
  33.1285838  47.8657627  85.8429318  30.2853121  48.3145664  88.9635990
  30.8554478  48.7432933  88.3253475  30.8761233  48.0328249  89.6620176
  32.3297926  44.8897335  82.8345792  33.0321969  45.3418379  83.3019718
  31.9978554  44.2481154  83.4625685  30.7778287  43.4809092  97.2097002
  30.1476948  44.1625373  97.4432398  30.6714375  43.3692173  96.2650140
  26.0723260  43.1480888  88.1362926  25.2822314  43.4038416  87.6603036
  26.5634507  43.9629226  88.2414966  40.0887069  50.4886127  90.8868207
  40.9104513  50.0866314  90.6050888  40.0849472  50.3854361  91.8384322
  28.0238005  43.5125467  85.0946402  27.2269168  43.6244161  85.6129898
  27.7963597  43.8512119  84.2287293  33.8543673  50.0370170  93.0428917
  33.9188105  50.4990577  93.8787089  33.1454596  49.4067535  93.1711227
  24.3560963  43.4011378  90.5677916  24.6069001  44.2858388  90.8335492
  24.8920511  43.2215980  89.7953008  48.1793062  46.8324875  87.2353178
  47.4256771  46.2632273  87.0797182  48.3140603  46.7987540  88.1823813
  33.5691690  51.7038278  82.9107897  33.4337365  52.5489813  83.3392745
  34.1101503  51.9057555  82.1473831  30.0559030  37.7829858  99.5722253
  29.6625975  37.2296056 100.2469897  30.8725170  38.0940436  99.9628770
  27.0221088  49.2213716  83.4835822  27.5345608  50.0156966  83.6341387
  27.6743800  48.5240006  83.4169424  28.8315972  52.3379472  85.5658576
  29.0082601  53.2597437  85.3779559  29.6272806  52.0237891  85.9952955
  32.9726991  39.1987737  97.1642509  33.7136704  39.7994890  97.0846972
  33.2044914  38.4565374  96.6060552  28.1168329  44.3844104  95.4420739
  28.0021844  43.4829361  95.7427838  27.2612847  44.6307801  95.0905555
  29.9547288  53.8557646  91.5668918  30.5054713  53.7274709  90.7945912
  29.1158764  54.1552535  91.2163811  33.7514459  50.1208774  95.9113149
  34.2842796  49.3597062  95.6812457  33.2228540  49.8282425  96.6537304
  36.9184154  35.2268840  91.4406791  36.5748423  36.1170481  91.3645901
  37.2863116  35.0370497  90.5776376  24.9870004  47.5502370  84.2595393
  25.8245226  47.9599378  84.0429101  25.1648272  46.6101812  84.2295587
  34.4681548  40.0627151  85.0064464  33.6123144  39.6734002  84.8270103
  34.8808499  40.1419112  84.1464250  35.9980694  37.5973495  89.4056024
  35.4945490  37.5603630  88.5923829  36.2911301  38.5066237  89.4652681
  32.2423580  37.6812224  88.4122206  33.1076577  37.4855033  88.0528095
  32.3101089  37.4522576  89.3391563  36.6720740  43.0904543  81.7739007
  36.3670875  43.4050692  82.6249150  37.6251182  43.1685963  81.8166340
  40.0960018  47.4443787  88.5399007  39.4383692  48.1343048  88.6279136
  40.9000417  47.8340218  88.8832994  29.8485899  39.9114432  85.7838573
  30.4229651  39.6889614  85.0511766  30.4356882  39.9803127  86.5367174
  38.9065476  45.7988159  86.5902949  39.4197358  46.4318151  87.0924659
  39.5566700  45.1989355  86.2246309  30.1755486  41.9418893  79.8034458
  29.3392799  42.2793580  80.1243733  30.0360256  41.8067873  78.8661595
  32.1508567  36.7855681  84.5113642  31.4972979  36.4704698  83.8870257
  32.1089041  36.1631422  85.2373465  36.1687851  55.7772484  79.3463620
  35.4949549  56.0804180  79.9548578  36.5553673  56.5801564  78.9969077
  35.3846307  43.2737615  88.8361290  34.4668869  43.4952562  88.6782978
  35.8006451  43.3483925  87.9772997  36.1681355  44.6729030  83.9663970
  36.9153174  45.1850428  83.6571092  36.4372945  44.3513083  84.8268363
  38.6160192  41.7086147  85.9482759  37.8782949  41.1963533  86.2793002
  38.8686966  41.2686528  85.1366036  38.1160212  52.6170657  85.6531910
  38.4083186  53.1775714  84.9344276  38.6258832  52.9099218  86.4085069
  38.7171819  34.4862399  86.5424528  39.0230696  33.6259762  86.2550444
  39.4424424  35.0780019  86.3423522  25.0096176  44.8893085  84.9306126
  24.8120575  44.2962446  84.2057193  24.4542840  44.5845296  85.6482065
  32.9892899  44.7816192  87.0500720  33.0441509  43.8290028  86.9743196
  32.1784101  44.9375631  87.5342018  30.9285259  43.3993252  84.8091098
  30.1153125  43.6987422  85.2156291  31.4244253  43.0048940  85.5265581
  33.0793837  53.3951008  86.7425363  33.0370016  53.6211855  85.8133895
  33.9956536  53.1614383  86.8911164  36.5259471  43.8635076  93.6405992
  36.8808859  44.0906549  94.5000458  37.1731602  44.1953453  93.0183248
  42.2557208  46.9853512  84.3455321  42.1175106  47.1755108  83.4176511
  41.8993427  47.7472895  84.8023372  30.4199334  40.9711607  90.4252333
  31.0598713  40.8300366  89.7275297  29.5876864  40.6846120  90.0490935
  42.2826587  49.0530039  89.3566593  42.7163094  48.9605328  90.2049647
  42.9958168  49.0287539  88.7186609  31.1959638  50.2714037  86.5387326
  31.9900236  49.7764358  86.3369901  30.4851330  49.7431901  86.1755031
  36.0154482  52.6532133  90.8899693  36.0691505  53.2223069  91.6577409
  35.1469264  52.8234018  90.5253731  27.5042401  44.4157119  82.6147079
  26.5739989  44.3541575  82.8317041  27.5999873  43.8933072  81.8183720
  27.4227950  40.9411932  85.2025320  27.6834768  41.8557265  85.0934481
  28.2445123  40.4736375  85.3521933  28.8952876  42.3549689  92.3724145
  29.5675929  42.1467051  91.7236794  28.0682662  42.1571775  91.9329377
  43.1442137  49.0953740  91.8899478  43.3378027  49.9999550  92.1358753
  43.0442755  48.6361159  92.7238063  34.7978448  38.9811630  94.3889806
  34.1506363  39.6801580  94.2954282  35.5679463  39.4147774  94.7566054
  38.2057246  49.2460482  97.4640359  38.0542752  49.0171034  96.5470443
  38.1961925  50.2031084  97.4771704  34.9742582  46.8192395  92.4486625
  35.9034642  46.9703555  92.2755593  34.5533612  46.9076416  91.5935272
  33.7730914  50.8443059  90.2185163  33.6342000  50.4761844  91.0911101
  32.9845510  51.3590699  90.0469121  34.3679066  55.9452156  81.5610699
  34.5430821  55.4740199  82.3756322  33.6811854  56.5717922  81.7891960
  35.3236129  50.2224662  87.6074001  34.9885962  50.1825432  88.5031651
  34.8240075  49.5569378  87.1344411  29.2980373  45.6292292  93.1326582
  29.1600171  44.8972531  93.7338121  30.2085296  45.5401192  92.8510770
  31.9262674  45.3412252  92.6210262  32.6362292  44.7005444  92.5796880
  31.8831982  45.5925146  93.5436442  30.6391608  42.3277469  94.4405901
  30.1028965  41.8768208  95.0927497  30.0508316  42.4623378  93.6976365
  30.0493867  41.7866121  77.0032365  29.1723333  41.6654922  76.6394611
  30.5251620  40.9952199  76.7511253  39.9166860  50.2419189  93.7730820
  39.0293638  49.9045111  93.8957219  40.4865411  49.5102220  94.0099586
  21.5696007  46.5743281  87.0973872  22.2567046  46.2605011  86.5094887
  21.4144135  47.4784645  86.8241123  26.3730729  41.4633477  91.5258895
  26.2888918  40.8559147  90.7909305  25.5513435  41.9542495  91.5268392
  33.4468013  54.9020641  90.7392064  33.3738184  55.7075613  91.2511368
  33.0045406  55.1012607  89.9140085  33.2357793  54.1392411  84.2494885
  32.4525314  54.6814091  84.3433110  33.9350538  54.6566391  84.6489126
  36.5454443  39.9487041  86.8929091  37.0423142  39.1957003  86.5730161
  35.7741424  39.9851357  86.3272300  44.3984200  45.6527406  88.5347382
  44.3874076  46.5352122  88.1641315  43.5301580  45.2998957  88.3401919
  37.6284223  48.7058728  84.4667514  36.6940502  48.8260190  84.2972218
  37.8060892  47.8031195  84.2027524  33.1289411  42.0904424  86.6200775
  32.7587199  41.5375464  87.3081681  33.6248504  41.4862557  86.0675775
  41.0156775  44.5476047  85.0017548  41.4817227  45.3804039  84.9277851
  41.4664275  44.0821029  85.7062807  30.9578610  52.5501919  93.7155793
  31.6588069  53.1838402  93.8685187  30.4873725  52.8916650  92.9551432
  38.9873437  36.9156634  89.0408449  38.0736517  37.1460861  89.2090656
  39.4166539  36.9995078  89.8922482  38.7579896  45.1046526  91.5408343
  38.1051346  45.3522434  90.8860796  39.1360276  44.2910664  91.2070821
  35.7187070  55.1406219  85.6436514  35.9009464  54.3227875  86.1064266
  36.5420056  55.3573912  85.2061404  34.8067469  45.8466337  98.0274381
  34.1308106  45.7460466  98.6976756  35.6295103  45.6905551  98.4910378
  26.5546328  52.0838274  90.6486896  27.1399765  51.3381962  90.7814800
  26.3571167  52.3942230  91.5323560  29.4084983  55.1189521  85.6649338
  28.7395359  55.6035649  85.1813378  29.2697853  55.3658742  86.5792717
  21.1463983  44.6543874  89.3691339  21.1848082  44.1207465  90.1628457
  20.6404276  44.1279079  88.7502316  28.5254745  39.5008414  92.8653881
  28.5896072  40.3623245  92.4531279  28.4621865  38.8882416  92.1326240
  28.0007018  41.5731547  96.5126915  28.6279056  41.1908624  97.1264440
  27.1434936  41.3545749  96.8782608  24.7772560  43.3807976  82.4445270
  25.0726001  42.4718654  82.3912324  23.8760596  43.3595716  82.1226273
  28.3066807  41.4563973  88.4272819  27.5853393  42.0699940  88.2880292
  29.0960063  41.9921737  88.3489465  31.1093121  38.7918399  94.7013471
  31.6327523  39.0380696  95.4639780  30.8905454  39.6238434  94.2816608
  26.5060402  41.0622074  82.5684595  26.1773108  40.1819453  82.3859701
  26.8599773  41.0069742  83.4560985  35.7539981  52.6976976  87.0779581
  35.6064943  51.7693684  87.2587151  36.5793474  52.7197067  86.5936656
  29.6202225  41.3495044  82.9360073  29.9598298  41.8780965  82.2138681
  30.0674346  41.6875450  83.7118640  32.3145666  39.7332094  92.3863141
  31.9742486  38.9339907  92.7883821  31.6084672  40.0333805  91.8139974
  32.9662138  36.8181407  90.8390464  33.7888207  36.3441885  90.7169355
  33.2100201  37.5971890  91.3389150  31.6070372  39.8469665  81.1353366
  32.3278735  40.2250918  80.6317083  30.9835676  40.5658542  81.2388344
  35.7501495  40.5514814  82.0711698  35.9665110  41.4339452  81.7700526
  35.2695562  40.1601027  81.3417340  30.4900717  43.5100527  88.6482443
  30.3445297  43.8240830  89.5406724  30.0125920  44.1285428  88.0953341
  32.3497099  40.5003075  88.6963332  32.3358668  39.6044169  88.3595630
  33.0669528  40.5073739  89.3301618  34.2023230  40.9340415  90.7416460
  33.9441008  41.8557486  90.7400790  33.6708270  40.5370850  91.4316924
  24.9646379  46.0505872  91.5870104  24.4199847  46.8265680  91.7190378
  25.8425729  46.3976676  91.4289225  31.7533995  39.3817456  83.9650903
  31.8749907  38.4534102  84.1641790  31.4636038  39.3956142  83.0529218
  34.6225186  37.0672366  87.1017622  34.6446883  37.1311699  86.1469602
  35.0393245  36.2276875  87.2958129  45.0008810  46.8027626  85.1396845
  45.4439956  46.0534951  84.7415968  44.1235320  46.7937762  84.7570577
  25.7512401  45.1775768  94.4800261  25.0094137  45.3258403  95.0664891
  25.4305145  45.4384034  93.6167010  33.7176675  56.8729656  86.5086027
  33.2781666  56.3806035  87.2018884  34.4684792  56.3302623  86.2678103
  26.1969014  53.0641197  86.5110655  27.0227034  52.7644969  86.1309299
  25.8463066  52.2948819  86.9600444  31.1650547  52.4167665  88.5808329
  30.5430557  51.7538370  88.2810557  31.8355414  52.4428797  87.8981977
  24.3977619  50.9827523  87.4699589  23.5609528  50.5549697  87.2883590
  24.3701265  51.1759966  88.4070380  31.2375075  40.8949453  98.1740835
  31.2863230  41.7711576  97.7918605  31.7797589  40.3526846  97.6012478
  41.8427796  48.2883043  94.7674701  41.8925801  48.1233050  95.7090224
  41.7341719  47.4210302  94.3772582  30.7264054  50.9671588  82.0566790
  30.8752175  51.6507053  81.4033462  31.5330498  50.9476678  82.5716245
  39.1331558  44.2713971  96.0834007  40.0341421  44.1320435  95.7918005
  39.2079533  44.4368425  97.0232185  33.4674363  41.6480825  94.9287194
  32.5977673  41.9414391  94.6569782  33.7033844  42.2321270  95.6494457
  44.5441675  48.2732864  87.5319292  45.3788566  48.7122668  87.6956853
  44.6800804  47.7971517  86.7127538  41.5933181  45.8312599  93.4796780
  42.0687302  46.0240245  92.6715632  40.6698746  45.8871785  93.2340164
  28.4816687  46.9936766  83.0627859  28.2362729  46.0899096  83.2608069
  28.6512602  46.9953916  82.1207337  36.1713397  37.8660442  92.4452614
  36.6895341  38.6021469  92.1199103  35.8168530  38.1724436  93.2799373
  27.7512335  42.7265123  80.5614020  27.0581580  42.8009478  79.9054056
  27.5064087  41.9625467  81.0835537  36.4225991  34.2860725  87.9653511
  36.7027745  33.6183914  88.5913937  37.2076598  34.4789820  87.4528175
  40.2934850  42.7078359  91.7125086  41.2452273  42.8076456  91.7337310
  40.1238300  41.9156627  92.2223170  38.3149229  39.7933942  91.8984487
  37.7199161  40.0738955  91.2030975  38.0298926  40.2827843  92.6701228
  42.7722927  45.9284478  90.8267386  42.7399248  44.9900479  91.0127069
  43.3823551  46.0068515  90.0933210  34.6106258  44.7980531  76.8694590
  35.5565363  44.6686740  76.9383008  34.2320503  44.0595193  77.3464018
  42.9217416  42.7195522  90.8725669  42.4056465  41.9353979  90.6855598
  43.8057364  42.3914239  91.0372188  40.5828143  36.4636537  86.8321481
  40.3852964  36.1551626  87.7164813  41.1927848  37.1898176  86.9619411
  48.5899477  46.9900485  89.9673422  49.3202866  46.7285773  90.5281126
  47.9806423  46.2529207  90.0075490  46.6714774  45.1308348  90.5647874
  45.9447938  44.9964313  89.9564365  46.2562061  45.4385177  91.3704592
  34.4944951  48.8498278  98.3295247  35.4147960  49.0276877  98.5235293
  34.4594534  47.9054323  98.1774946  32.7949175  42.7230508  76.8049475
  31.8880631  42.4263621  76.8812188  33.0725156  42.4260326  75.9383761
  23.7127116  44.0436871  87.2548521  23.3929900  43.1902179  86.9622895
  23.1660544  44.2585449  88.0106489  27.4907023  46.7599312  90.9718028
  27.7093033  47.6916420  90.9906062  27.9032797  46.4007287  91.7572832
  34.4111241  37.2667398  82.9593716  33.6011970  36.9214483  83.3348962
  35.0995658  36.9574941  83.5481328  36.3401789  36.3445444  84.5818013
  36.8932828  36.7640898  85.2408036  36.5771876  35.4181192  84.6240969
  32.3634889  42.3332518 100.3620777  32.2631616  43.2826875 100.2932868
  32.1456431  42.0050757  99.4896847  31.5647960  39.5817443  76.9461454
  32.4267124  39.9072341  77.2057271  31.7498304  38.7948939  76.4334520
  23.5815376  47.6639783  89.2241643  22.8878847  47.2493736  88.7111597
  24.3288367  47.7060319  88.6275062  39.7180597  38.4545970  84.0896677
  39.1379266  39.1130774  83.7074729  39.4516529  37.6323314  83.6784094
  38.1684163  37.8551027  86.2917997  38.6683941  37.9667562  85.4832316
  38.8119771  37.5512080  86.9318806  32.2266159  45.7629657  99.1785838
  31.7433240  46.5630017  99.3849727  32.3127098  45.7737602  98.2253282
  25.4952118  47.5958037  87.1007658  25.4722806  47.6945724  86.1489541
  25.8052755  48.4423187  87.4224824  28.1539496  49.6534192  91.2154272
  29.1082750  49.6218134  91.1484204  27.9552020  49.1924815  92.0304498
  28.7438878  48.2235308  93.7825070  29.5631767  48.7179386  93.8059907
  29.0175686  47.3067276  93.7542637  38.5005475  40.6146060  83.1453025
  37.6131330  40.8995711  82.9273220  38.9159464  40.4539823  82.2980302
  41.8520011  40.6392581  86.8607364  42.6280401  41.1289033  87.1331981
  41.1268145  41.0650635  87.3179234  44.2892569  41.3520200  87.9181305
  44.8837060  41.1115936  87.2074613  44.3619153  40.6327331  88.5454841
  26.5089725  55.1953811  88.2324470  26.3744193  54.4354212  87.6662468
  26.0921787  55.9194711  87.7653259  42.2851304  41.9190328  84.1853435
  42.0288238  41.5186963  85.0161643  41.6604172  42.6334122  84.0603574
  46.5963642  44.6586401  86.6924726  46.0363200  44.7279590  87.4656288
  45.9907145  44.4827386  85.9724223  29.6658851  56.0923128  88.4442913
  29.5491235  57.0368561  88.3421603  28.8451297  55.7896690  88.8328712
  23.9973793  42.5573441  94.4817267  24.6432656  42.0472395  94.9704492
  23.7890944  43.2942123  95.0560692  32.5177403  36.8213486  80.2341163
  32.5056073  37.7655326  80.3909434  33.4100825  36.6383631  79.9400624
  32.4466967  55.4982376  88.3208920  31.4962598  55.4984238  88.2073292
  32.7499453  54.7515111  87.8044954  36.3329523  33.4156263  84.4887100
  35.5661918  32.8614749  84.6343782  36.7440228  33.4878131  85.3501251
  28.3371284  39.7041059  98.5792281  29.2002745  39.3477863  98.7895606
  27.7636694  39.3654953  99.2667685  45.4729150  62.4405195  95.2802412
  45.4617791  62.0457993  94.4082916  45.6349789  61.7071267  95.8736184
  50.6594777  52.7091176  91.8235477  50.3278101  53.5786587  91.5996692
  50.0640390  52.3927460  92.5029508  50.5523440  57.4286262  88.9028827
  49.6440317  57.3601671  88.6087588  50.5011036  57.9058207  89.7310653
  44.3740184  58.9044401  80.5412226  44.2539809  59.3501451  81.3797707
  43.6792772  59.2529718  79.9825765  52.4185086  55.6302701  90.6806701
  51.7759466  55.9235234  90.0346496  51.9140015  55.5155621  91.4859898
  47.8596533  56.3967477  94.0368584  47.6157465  57.1509537  93.5002859
  48.1356463  56.7752824  94.8715831  47.4161225  55.5523910  89.6182421
  46.5545704  55.8505163  89.9099159  47.4423659  55.7694309  88.6863454
  36.9117014  58.4772805  88.1362926  36.1216068  58.7330334  87.6603036
  37.4028261  59.2921143  88.2414966  38.8631759  58.8417385  85.0946402
  38.0662923  58.9536079  85.6129898  38.6357352  59.1804037  84.2287293
  35.1954717  58.7303296  90.5677916  35.4462756  59.6150306  90.8335492
  35.7314265  58.5507897  89.7953008  47.7577908  50.5560757  91.4406791
  47.4142178  51.4462399  91.3645901  48.1256871  50.3662415  90.5776376
  45.3075302  55.3919069  85.0064464  44.4516898  55.0025920  84.8270103
  45.7202254  55.4711030  84.1464250  46.8374449  52.9265412  89.4056024
  46.3339244  52.8895548  88.5923829  47.1305056  53.8358155  89.4652681
  40.6879654  55.2406350  85.7838573  41.2623406  55.0181532  85.0511766
  41.2750636  55.3095045  86.5367174  42.9902321  52.1147599  84.5113642
  42.3366734  51.7996616  83.8870257  42.9482796  51.4923339  85.2373465
  46.2240062  58.6029532  88.8361290  45.3062623  58.8244479  88.6782978
  46.6400205  58.6775843  87.9772997  49.4553947  57.0378064  85.9482759
  48.7176703  56.5255451  86.2793002  49.7080720  56.5978446  85.1366036
  49.5565574  49.8154316  86.5424528  49.8624451  48.9551680  86.2550444
  50.2818179  50.4071937  86.3423522  41.7679014  58.7285169  84.8091098
  40.9546879  59.0279340  85.2156291  42.2638008  58.3340858  85.5265581
  47.3653225  59.1926994  93.6405992  47.7202613  59.4198467  94.5000458
  48.0125357  59.5245370  93.0183248  38.2621705  56.2703850  85.2025320
  38.5228522  57.1849183  85.0934481  39.0838877  55.8028292  85.3521933
  45.6372202  54.3103548  94.3889806  44.9900117  55.0093497  94.2954282
  46.4073218  54.7439692  94.7566054  47.3848197  55.2778958  86.8929091
  47.8816897  54.5248921  86.5730161  46.6135179  55.3143275  86.3272300
  43.9683166  57.4196341  86.6200775  43.5980953  56.8667382  87.3081681
  44.4642258  56.8154475  86.0675775  49.8267192  52.2448552  89.0408449
  48.9130272  52.4752779  89.2090656  50.2560293  52.3286996  89.8922482
  49.5973650  60.4338444  91.5408343  48.9445101  60.6814351  90.8860796
  49.9754030  59.6202582  91.2070821  35.6166315  58.7099894  82.4445270
  35.9119756  57.8010572  82.3912324  34.7154351  58.6887633  82.1226273
  37.3454156  56.3913991  82.5684595  37.0166863  55.5111370  82.3859701
  37.6993527  56.3361660  83.4560985  40.4595980  56.6786961  82.9360073
  40.7992052  57.2072882  82.2138681  40.9068100  57.0167367  83.7118640
  43.8055892  52.1473324  90.8390464  44.6281962  51.6733803  90.7169355
  44.0493956  52.9263808  91.3389150  45.0416985  56.2632333  90.7416460
  44.7834762  57.1849404  90.7400790  44.5102025  55.8662768  91.4316924
  42.5927750  54.7109373  83.9650903  42.7143661  53.7826019  84.1641790
  42.3029792  54.7248059  83.0529218  45.4618940  52.3964284  87.1017622
  45.4840637  52.4603617  86.1469602  45.8786999  51.5568792  87.2958129
  49.9725312  59.6005888  96.0834007  50.8735175  59.4612353  95.7918005
  50.0473287  59.7660343  97.0232185  47.0107152  53.1952360  92.4452614
  47.5289096  53.9313387  92.1199103  46.6562284  53.5016353  93.2799373
  47.2619746  49.6152642  87.9653511  47.5421500  48.9475832  88.5913937
  48.0470353  49.8081738  87.4528175  51.1328604  58.0370276  91.7125086
  52.0846027  58.1368374  91.7337310  50.9632055  57.2448545  92.2223170
  49.1542984  55.1225860  91.8984487  48.5592916  55.4030872  91.2030975
  48.8692680  55.6119761  92.6701228  53.7611170  58.0487440  90.8725669
  53.2450219  57.2645896  90.6855598  54.6451119  57.7206156  91.0372188
  51.4221897  51.7928455  86.8321481  51.2246718  51.4843543  87.7164813
  52.0321603  52.5190094  86.9619411  47.1795544  51.6737362  84.5818013
  47.7326583  52.0932815  85.2408036  47.4165630  50.7473110  84.6240969
  49.0077917  53.1842945  86.2917997  49.5077696  53.2959479  85.4832316
  49.6513525  52.8803998  86.9318806  52.6913765  55.9684499  86.8607364
  53.4674155  56.4580951  87.1331981  51.9661899  56.3942553  87.3179234
  55.1286324  56.6812118  87.9181305  55.7230815  56.4407854  87.2074613
  55.2012908  55.9619248  88.5454841  53.1245059  57.2482245  84.1853435
  52.8681993  56.8478881  85.0161643  52.4997927  57.9626039  84.0603574
  47.1723277  48.7448180  84.4887100  46.4055673  48.1906667  84.6343782
  47.5833982  48.8170049  85.3501251  60.0788635  82.6378357  98.1180651
  60.6228539  83.2508316  97.6235606  59.4975480  83.1957936  98.6347664
  67.1516659  93.0989030  95.2802412  67.1405300  92.7041828  94.4082916
  67.3137298  92.3655103  95.8736184  68.1083250  97.4660622  80.6227563
  67.4571230  98.0514703  80.2361576  68.9027613  97.9966817  80.6822600
  63.8723920  95.8826142  94.2281596  63.5813786  96.7871773  94.1128263
  64.5080904  95.9242669  94.9425666  69.5858515  95.1551054  81.1596547
  68.9504348  95.2285681  81.8717452  69.2555922  95.7444653  80.4815626
  74.8156865  89.6553437  87.3640869  75.5482037  89.0852654  87.5978698
  74.0596221  89.2675038  87.8047374  72.3382285  83.3675011  91.8235477
  72.0065610  84.2370422  91.5996692  71.7427899  83.0511295  92.5029508
  68.8313805  95.5687557  91.2231390  68.5314528  96.4712596  91.1147197
  68.4864865  95.3019741  92.0752543  72.2310949  88.0870098  88.9028827
  71.3227826  88.0185506  88.6087588  72.1798545  88.5642043  89.7310653
  63.8134585 102.3331878  84.1902358  63.7358615 103.2839703  84.2690838
  63.2096228 101.9877750  84.8477284  66.3051815  89.5059743  96.8463725
  65.5285149  90.0653663  96.8366589  66.9442378  89.9916526  97.3678595
  74.0972595  86.2886536  90.6806701  73.4546975  86.5819069  90.0346496
  73.5927524  86.1739456  91.4859898  64.5598187  92.3145197  96.4081692
  65.3012871  92.8530240  96.1316515  63.8535172  92.9411485  96.5653243
  70.0353527  94.4574337  95.0053853  70.4436883  94.0156748  94.2608485
  69.3130788  93.8826965  95.2588046  70.3582341  95.0175528  88.7606142
  69.7291204  95.1821242  88.0582210  69.9708003  95.4317137  89.5317106
  74.2371573  95.9529965  86.1150506  73.5522611  96.3328867  85.5647539
  74.3215422  96.5625292  86.8482453  69.5384042  87.0551312  94.0368584
  69.2944974  87.8093373  93.5002859  69.8143972  87.4336660  94.8715831
  71.4922505  93.5989924  92.7145849  71.7039400  94.2421684  92.0380230
  71.4452253  92.7652241  92.2467779  65.9110303  94.7549936  86.0256227
  66.3748649  95.0337639  85.2360849  65.6467101  93.8533380  85.8429318
  63.2959551  89.4684845  97.2097002  62.6658211  90.1501126  97.4432398
  63.1895639  89.3567926  96.2650140  72.6068333  96.4761880  90.8868207
  73.4285776  96.0742067  90.6050888  72.6030736  96.3730114  91.8384322
  80.6974326  92.8200628  87.2353178  79.9438034  92.2508026  87.0797182
  80.8321867  92.7863293  88.1823813  66.0872954  97.6914031  82.9107897
  65.9518629  98.5365566  83.3392745  66.6282766  97.8933308  82.1473831
  62.5740293  83.7705611  99.5722253  62.1807239  83.2171809 100.2469897
  63.3906434  84.0816189  99.9628770  61.3497236  98.3255225  85.5658576
  61.5263864  99.2473190  85.3779559  62.1454069  98.0113644  85.9952955
  65.4908254  85.1863490  97.1642509  66.2317968  85.7870643  97.0846972
  65.7226177  84.4441127  96.6060552  67.7141430  98.3137597  97.0408239
  67.2705284  97.5273976  96.7229144  68.3758644  98.5016748  96.3752130
  62.4728551  99.8433399  91.5668918  63.0235976  99.7150462  90.7945912
  61.6340027 100.1428288  91.2163811  69.8122668  98.5940397  95.0689641
  69.7941144  99.4149278  94.5769910  70.7342588  98.4694472  95.2939782
  66.2695722  96.1084527  95.9113149  66.8024059  95.3472815  95.6812457
  65.7409803  95.8158178  96.6537304  69.4365417  81.2144593  91.4406791
  69.0929687  82.1046234  91.3645901  69.8044380  81.0246250  90.5776376
  69.4015700  91.2053204  79.9479226  68.8862323  91.9757808  80.1867613
  69.1293008  90.5318340  80.5712287  74.3749974  93.9585558  81.8832399
  73.5979417  93.6196718  81.4387561  75.0541455  93.9638181  81.2087364
  67.6348435  95.2370519  83.4231961  67.1069797  94.5023279  83.1105199
  67.1335938  96.0145195  83.1771929  72.6141281  93.4319540  88.5399007
  71.9564956  94.1218801  88.6279136  73.4181680  93.8215972  88.8832994
  71.4246740  91.7863912  86.5902949  71.9378622  92.4193904  87.0924659
  72.0747964  91.1865108  86.2246309  65.7801035  93.0550729  76.4266934
  64.8728097  92.8239983  76.6258083  66.2772067  92.2588349  76.6140916
  68.6869114 101.7648237  79.3463620  68.0130813 102.0679933  79.9548578
  69.0734936 102.5677317  78.9969077  66.9589269  93.1563324  80.9490924
  66.0500488  92.8722357  81.0463394  66.9884352  93.5762403  80.0894231
  72.1908536  96.7669914  84.7182092  71.7370863  95.9260824  84.7747282
  71.5602503  97.4031312  85.0556872  70.6341475  98.6046410  85.6531910
  70.9264450  99.1651468  84.9344276  71.1440096  98.8974971  86.4085069
  66.6565356  94.6972068  78.2879003  66.2184786  93.9807927  77.8284640
  67.3975797  94.9248183  77.7264094  65.5975101  99.3826761  86.7425363
  65.5551279  99.6087608  85.8133895  66.5137799  99.1490136  86.8911164
  74.7738471  92.9729265  84.3455321  74.6356370  93.1630861  83.4176511
  74.4174690  93.7348648  84.8023372  74.8007851  95.0405792  89.3566593
  75.2344358  94.9481081  90.2049647  75.5139432  95.0163292  88.7186609
  68.5335746  98.6407886  90.8899693  68.5872768  99.2098822  91.6577409
  67.6650527  98.8109771  90.5253731  75.6623400  95.0829493  91.8899478
  75.8559291  95.9875303  92.1358753  75.5624019  94.6236912  92.7238063
  70.7238509  95.2336235  97.4640359  70.5724016  95.0046787  96.5470443
  70.7143189  96.1906837  97.4771704  66.8860329 101.9327909  81.5610699
  67.0612085 101.4615952  82.3756322  66.1993117 102.5593675  81.7891960
  67.8417392  96.2100415  87.6074001  67.5067225  96.1701185  88.5031651
  67.3421338  95.5445131  87.1344411  70.7776584  93.5556450  77.8811060
  70.1605755  92.8303278  77.7844113  70.3093073  94.3165810  77.5378135
  72.4330716  98.2655358  95.5416841  72.3743262  97.5814578  94.8747424
  72.8350234  99.0074348  95.0897467  61.4521415 105.0817272  88.3350560
  61.6918013 105.7135796  89.0129578  60.6090611 104.7305312  88.6215919
  72.4348123  96.2294942  93.7730820  71.5474902  95.8920864  93.8957219
  73.0046674  95.4977973  94.0099586  65.9649276 100.8896394  90.7392064
  65.8919448 101.6951366  91.2511368  65.5226670 101.0888360  89.9140085
  65.7539056 100.1268164  84.2494885  64.9706578 100.6689844  84.3433110
  66.4531801 100.6442144  84.6489126  76.9165464  91.6403159  88.5347382
  76.9055340  92.5227875  88.1641315  76.0482843  91.2874710  88.3401919
  68.4247960 100.7883228  92.8950222  69.1375932 101.4230693  92.8226124
  67.9337989 100.8847094  92.0790224  70.1465487  94.6934481  84.4667514
  69.2121766  94.8135943  84.2972218  70.3242155  93.7906948  84.2027524
  73.5338038  90.5351800  85.0017548  73.9998490  91.3679792  84.9277851
  73.9845539  90.0696782  85.7062807  63.4759873  98.5377672  93.7155793
  64.1769333  99.1714155  93.8685187  63.0054988  98.8792403  92.9551432
  71.6014269  96.8795621  82.0003700  71.8774113  96.7652216  82.9097574
  70.7318768  96.4813106  81.9615873  71.5054701  82.9032387  89.0408449
  70.5917781  83.1336614  89.2090656  71.9347802  82.9870831  89.8922482
  71.2761159  91.0922279  91.5408343  70.6232610  91.3398187  90.8860796
  71.6541539  90.2786417  91.2070821  68.2368333 101.1281972  85.6436514
  68.4190728 100.3103628  86.1064266  69.0601319 101.3449665  85.2061404
  68.5710499 100.0550157  82.9051562  69.0998265  99.5442612  82.2921724
  68.8338718  99.7392688  83.7697095  67.3248732  91.8342090  98.0274381
  66.6489369  91.7336220  98.6976756  68.1476366  91.6781304  98.4910378
  61.9266247 101.1065274  85.6649338  61.2576622 101.5911402  85.1813378
  61.7879116 101.3534495  86.5792717  66.0671515 103.1409018  92.2631997
  66.6189823 103.3040639  93.0281082  66.4077709 103.7313455  91.5912021
  70.9182390  97.9670275  98.1180651  71.4622294  98.5800233  97.6235606
  70.3369235  98.5249854  98.6347664  69.2039903 101.0890993  89.2495679
  69.0791042 100.2880733  88.7406624  69.8618994 101.5837187  88.7609649
  71.2674811  98.8900013  90.8775229  70.3205147  98.7705364  90.8053555
  71.6157584  98.0022511  90.9601490  68.2721244  98.6852729  87.0779581
  68.1246207  97.7569437  87.2587151  69.0974738  98.7072820  86.5936656
  71.8755366  99.5081288  88.1644454  72.8001914  99.3024150  88.0268905
  71.7070670  99.2597689  89.0733795  71.6650682 100.0266956  83.5206545
  71.8387560  99.4613378  82.7680398  72.1579574 100.8267851  83.3386035
  77.5190074  92.7903379  85.1396845  77.9621220  92.0410704  84.7415968
  76.6416584  92.7813515  84.7570577  72.6525855  99.3433720  80.6203443
  73.3476759  99.9640413  80.8390758  72.9949005  98.4929071  80.8955821
  74.5517278  96.7933426  82.1490774  75.0768602  97.1320698  81.4240094
  74.4639631  95.8580441  81.9653909  66.2137327 100.7067499  94.2780651
  66.5224453 100.4616646  95.1503350  67.0112809 100.9114138  93.7899521
  66.2357939 102.8605409  86.5086027  65.7962929 102.3681788  87.2018884
  66.9866056 102.3178377  86.2678103  63.6831811  98.4043418  88.5808329
  63.0611820  97.7414123  88.2810557  64.3536678  98.4304550  87.8981977
  63.7556338  86.8825206  98.1740835  63.8044494  87.7587329  97.7918605
  64.2978853  86.3402599  97.6012478  74.2411184  97.4266329  97.4541972
  73.4506728  97.4090468  96.9146472  74.0044539  97.9654623  98.2091009
  74.3609059  94.2758796  94.7674701  74.4107064  94.1108803  95.7090224
  74.2522982  93.4086055  94.3772582  63.2445318  96.9547341  82.0566790
  63.3933438  97.6382806  81.4033462  64.0511761  96.9352431  82.5716245
  71.6512821  90.2589724  96.0834007  72.5522684  90.1196188  95.7918005
  71.7260796  90.4244178  97.0232185  65.9855627  87.6356578  94.9287194
  65.1158936  87.9290144  94.6569782  66.2215107  88.2197023  95.6494457
  75.8627256  96.6955737  95.0116722  75.5712064  97.0585718  95.8480183
  75.2499387  95.9822745  94.8330054  77.0622938  94.2608617  87.5319292
  77.8969830  94.6998421  87.6956853  77.1982067  93.7847270  86.7127538
  74.1114444  91.8188352  93.4796780  74.5868566  92.0115998  92.6715632
  73.1880010  91.8747538  93.2340164  66.7440723  99.4495472  79.5278537
  66.1714690 100.0685659  79.0749009  67.3173517  99.9994833  80.0618459
  72.8116113  88.6954112  91.7125086  73.7633536  88.7952209  91.7337310
  72.6419564  87.9032380  92.2223170  70.8330493  85.7809695  91.8984487
  70.2380425  86.0614708  91.2030975  70.5480189  86.2703596  92.6701228
  69.9637983  99.7332622  80.6587119  70.8968656  99.6678184  80.8619995
  69.8761196 100.5688889  80.2001652  72.5926000  99.0498492  77.6191067
  72.5139631  98.7158356  78.5126825  73.4135667  99.5420260  77.6182539
  75.2904191  91.9160232  90.8267386  75.2580511  90.9776232  91.0127069
  75.9004815  91.9944268  90.0933210  67.1287522  90.7856284  76.8694590
  68.0746627  90.6562493  76.9383008  66.7501767  90.0470946  77.3464018
  75.4398679  88.7071275  90.8725669  74.9237728  87.9229732  90.6855598
  76.3238628  88.3789992  91.0372188  81.1080741  92.9776238  89.9673422
  81.8384129  92.7161526  90.5281126  80.4987686  92.2404960  90.0075490
  79.1896038  91.1184101  90.5647874  78.4629201  90.9840066  89.9564365
  78.7743325  91.4260930  91.3704592  67.0126214  94.8374031  98.3295247
  67.9329224  95.0152630  98.5235293  66.9775797  93.8930076  98.1774946
  65.3130439  88.7106261  76.8049475  64.4061894  88.4139374  76.8812188
  65.5906420  88.4136079  75.9383761  64.8816152  88.3208271 100.3620777
  64.7812879  89.2702628 100.2932868  64.6637694  87.9926510  99.4896847
  64.7447422  91.7505410  99.1785838  64.2614504  92.5505770  99.3849727
  64.8308361  91.7613355  98.2253282  74.3701274  86.6268334  86.8607364
  75.1461664  87.1164786  87.1331981  73.6449408  87.0526388  87.3179234
  76.8073833  87.3395953  87.9181305  77.4018324  87.0991689  87.2074613
  76.8800417  86.6203084  88.5454841  59.0270989 101.1829564  88.2324470
  58.8925456 100.4229965  87.6662468  58.6103051 101.9070464  87.7653259
  70.1629952  96.3666488  77.2401045  70.8665802  96.5716490  77.8558701
  69.4392600  96.9343249  77.5050129  70.9927762  92.1176349  83.3603315
  70.9362963  92.5744900  82.5210948  71.5456104  91.3567033  83.1826158
  74.8032568  87.9066081  84.1853435  74.5469502  87.5062716  85.0161643
  74.1785436  88.6209875  84.0603574  79.1144906  90.6462154  86.6924726
  78.5544464  90.7155343  87.4656288  78.5088409  90.4703139  85.9724223
  62.1840114 102.0798881  88.4442913  62.0672499 103.0244314  88.3421603
  61.3632561 101.7772443  88.8328712  72.0716649  96.8049017  79.2899505
  72.9062253  96.3730215  79.1076980  71.9100992  96.6331030  80.2176400
  71.7262541  93.3081130  80.6555845  71.6711345  93.1425402  79.7144289
  71.1008596  94.0157163  80.8118034  69.0408448  95.6130042  99.9809407
  69.9099608  95.7870694  99.6196042  68.5615200  96.4324459  99.8585137
  63.2094629 102.7327143  91.6598841  64.1121875 102.7650753  91.9765336
  62.9831999 101.8027594  91.6745177  64.9648231 101.4858130  88.3208920
  64.0143862 101.4859991  88.2073292  65.2680717 100.7390864  87.8044954
  60.8552547  85.6916812  98.5792281  61.7184009  85.3353616  98.7895606
  60.2817958  85.3530706  99.2667685  80.7000924 107.3218668  89.3854682
  81.3379334 107.2025415  88.6818022  80.5821767 108.2699512  89.4442634
  77.5090630 107.2746096  89.3216207  77.1709142 107.1587161  88.4336742
  78.3780398 106.8737261  89.3017213  73.3677446 109.1281572  85.3113098
  72.8042311 109.0371509  84.5429385  73.2529841 108.3081477  85.7915590
  77.9910413 108.4280948  95.2802412  77.9799054 108.0333746  94.4082916
  78.1531053 107.6947020  95.8736184  70.9141878 110.6232764  88.1497318
  71.7063170 110.2823589  87.7343617  71.1538528 110.7327739  89.0699471
  78.9477005 112.7952540  80.6227563  78.2964984 113.3806621  80.2361576
  79.7421368 113.3258735  80.6822600  72.8732632 109.8841677  81.0214697
  73.6463508 109.3370664  80.8827573  73.2258031 110.7485927  81.2329158
  74.7117674 111.2118060  94.2281596  74.4207540 112.1163690  94.1128263
  75.3474659 111.2534587  94.9425666  75.6373881 108.5894908  90.8182956
  76.2337454 108.3650930  90.1039919  75.6948853 107.8479654  91.4208404
  75.2098910 106.0434343  78.6533147  75.4624430 105.5215865  77.8916610
  74.2723469 105.8800489  78.7559830  80.2542193 105.0470122  86.4607890
  81.0405282 104.6289545  86.1098307  80.5180897 105.9516214  86.6289538
  80.4252270 110.4842972  81.1596547  79.7898103 110.5577599  81.8717452
  80.0949676 111.0736571  80.4815626  85.6550620 104.9845355  87.3640869
  86.3875792 104.4144572  87.5978698  84.8989975 104.5966955  87.8047374
  74.9295198 107.9462449  80.8557522  74.8131457 107.2707353  81.5238606
  75.0397458 107.4594823  80.0389675  77.2726739 107.4072596  84.5604211
  76.9084947 106.8803217  85.2717132  78.1293855 107.0171066  84.3870696
  83.1776040  98.6966929  91.8235477  82.8459365  99.5662340  91.5996692
  82.5821653  98.3803213  92.5029508  76.9132226 102.4362496  79.5565560
  77.0806629 103.3042733  79.9236031  76.7229395 102.5989778  78.6326849
  79.6707560 110.8979475  91.2231390  79.3708283 111.8004514  91.1147197
  79.3258619 110.6311658  92.0752543  73.1220041 107.3493272  87.2568094
  72.1970537 107.2169486  87.4645786  73.3704454 108.1287491  87.7538037
  83.0704703 103.4162015  88.9028827  82.1621581 103.3477424  88.6087588
  83.0192299 103.8933960  89.7310653  76.8921447 104.8920154  80.5412226
  76.7721072 105.3377204  81.3797707  76.1974036 105.2405471  79.9825765
  70.4828852 106.9926545  88.0911883  70.6121233 107.2461024  89.0051295
  69.8026303 107.5854253  87.7716538  74.6528339 117.6623795  84.1902358
  74.5752369 118.6131620  84.2690838  74.0489983 117.3169668  84.8477284
  77.1445569 104.8351661  96.8463725  76.3678903 105.3945581  96.8366589
  77.7836132 105.3208444  97.3678595  84.9366350 101.6178454  90.6806701
  84.2940730 101.9110987  90.0346496  84.4321278 101.5031374  91.4859898
  82.5906513 105.3641627  81.3692560  83.5024369 105.5969014  81.1940258
  82.0816160 105.9478671  80.8067639  75.3991941 107.6437114  96.4081692
  76.1406626 108.1822158  96.1316515  74.6928927 108.2703403  96.5653243
  80.8747281 109.7866255  95.0053853  81.2830637 109.3448665  94.2608485
  80.1524543 109.2118882  95.2588046  77.2278351 104.7238861  92.3787410
  78.0739546 105.1478275  92.5222059  77.1676989 104.0672486  93.0725973
  81.1976096 110.3467445  88.7606142  80.5684958 110.5113159  88.0582210
  80.8101758 110.7609055  89.5317106  85.0765328 111.2821883  86.1150506
  84.3916366 111.6620784  85.5647539  85.1609177 111.8917210  86.8482453
  80.3777796 102.3843230  94.0368584  80.1338728 103.1385290  93.5002859
  80.6537727 102.7628577  94.8715831  82.3316259 108.9281842  92.7145849
  82.5433154 109.5713602  92.0380230  82.2846007 108.0944159  92.2467779
  79.9342488 101.5399663  89.6182421  79.0726967 101.8380916  89.9099159
  79.9604923 101.7570062  88.6863454  76.7504058 110.0841853  86.0256227
  77.2142403 110.3629556  85.2360849  76.4860856 109.1825298  85.8429318
  73.6428139 109.6313335  88.9635990  74.2129496 110.0600603  88.3253475
  74.2336250 109.3495920  89.6620176  75.6872944 106.2065006  82.8345792
  76.3896987 106.6586049  83.3019718  75.3553572 105.5648825  83.4625685
  74.1353305 104.7976762  97.2097002  73.5051966 105.4793043  97.4432398
  74.0289393 104.6859844  96.2650140  69.4298278 104.4648558  88.1362926
  68.6397332 104.7206087  87.6603036  69.9209525 105.2796896  88.2414966
  83.4462087 111.8053798  90.8868207  84.2679531 111.4033985  90.6050888
  83.4424490 111.7022032  91.8384322  71.3813023 104.8293138  85.0946402
  70.5844186 104.9411832  85.6129898  71.1538615 105.1679790  84.2287293
  77.2118691 111.3537841  93.0428917  77.2763123 111.8158248  93.8787089
  76.5029614 110.7235206  93.1711227  67.7135981 104.7179049  90.5677916
  67.9644019 105.6026059  90.8335492  68.2495529 104.5383650  89.7953008
  91.5368080 108.1492546  87.2353178  90.7831789 107.5799944  87.0797182
  91.6715621 108.1155211  88.1823813  76.9266708 113.0205948  82.9107897
  76.7912383 113.8657484  83.3392745  77.4676521 113.2225226  82.1473831
  73.4134048  99.0997528  99.5722253  73.0200993  98.5463727 100.2469897
  74.2300188  99.4108107  99.9628770  70.3796106 110.5381386  83.4835822
  70.8920626 111.3324637  83.6341387  71.0318818 109.8407677  83.4169424
  72.1890990 113.6547143  85.5658576  72.3657619 114.5765107  85.3779559
  72.9847824 113.3405562  85.9952955  76.3302009 100.5155407  97.1642509
  77.0711722 101.1162560  97.0846972  76.5619932  99.7733045  96.6060552
  71.4743347 105.7011775  95.4420739  71.3596862 104.7997032  95.7427838
  70.6187865 105.9475471  95.0905555  78.5535185 113.6429515  97.0408239
  78.1099039 112.8565893  96.7229144  79.2152398 113.8308665  96.3752130
  73.3122306 115.1725316  91.5668918  73.8629731 115.0442380  90.7945912
  72.4733782 115.4720205  91.2163811  80.6516423 113.9232315  95.0689641
  80.6334898 114.7441196  94.5769910  81.5736343 113.7986390  95.2939782
  77.1089477 111.4376444  95.9113149  77.6417814 110.6764732  95.6812457
  76.5803558 111.1450096  96.6537304  80.2759172  96.5436510  91.4406791
  79.9323441  97.4338152  91.3645901  80.6438134  96.3538168  90.5776376
  68.3445022 108.8670041  84.2595393  69.1820244 109.2767049  84.0429101
  68.5223290 107.9269483  84.2295587  80.2409455 106.5345121  79.9479226
  79.7256078 107.3049726  80.1867613  79.9686763 105.8610258  80.5712287
  77.8256566 101.3794822  85.0064464  76.9698162 100.9901673  84.8270103
  78.2383517 101.4586783  84.1464250  79.3555712  98.9141165  89.4056024
  78.8520508  98.8771301  88.5923829  79.6486319  99.8233908  89.4652681
  75.5998598  98.9979895  88.4122206  76.4651595  98.8022704  88.0528095
  75.6676107  98.7690247  89.3391563  85.2143729 109.2877476  81.8832399
  84.4373171 108.9488635  81.4387561  85.8935210 109.2930099  81.2087364
  80.0295758 104.4072213  81.7739007  79.7245893 104.7218363  82.6249150
  80.9826200 104.4853633  81.8166340  78.4742190 110.5662437  83.4231961
  77.9463551 109.8315196  83.1105199  77.9729692 111.3437113  83.1771929
  83.4535036 108.7611457  88.5399007  82.7958710 109.4510719  88.6279136
  84.2575435 109.1507889  88.8832994  73.2060917 101.2282103  85.7838573
  73.7804669 101.0057285  85.0511766  73.7931900 101.2970798  86.5367174
  82.2640494 107.1155830  86.5902949  82.7772376 107.7485822  87.0924659
  82.9141718 106.5157025  86.2246309  73.5330504 103.2586564  79.8034458
  72.6967817 103.5961251  80.1243733  73.3935274 103.1235544  78.8661595
  75.5083585  98.1023352  84.5113642  74.8547997  97.7872369  83.8870257
  75.4664059  97.4799092  85.2373465  76.6194790 108.3842647  76.4266934
  75.7121851 108.1531900  76.6258083  77.1165822 107.5880266  76.6140916
  79.5262869 117.0940154  79.3463620  78.8524567 117.3971851  79.9548578
  79.9128691 117.8969235  78.9969077  78.7421325 104.5905285  88.8361290
  77.8243887 104.8120233  88.6782978  79.1581469 104.6651596  87.9772997
  79.5256373 105.9896701  83.9663970  80.2728192 106.5018098  83.6571092
  79.7947963 105.6680754  84.8268363  77.7983023 108.4855242  80.9490924
  76.8894242 108.2014275  81.0463394  77.8278107 108.9054320  80.0894231
  83.0302291 112.0961831  84.7182092  82.5764618 111.2552741  84.7747282
  82.3996257 112.7323230  85.0556872  81.9735210 103.0253817  85.9482759
  81.2357967 102.5131204  86.2793002  82.2261984 102.5854199  85.1366036
  81.4735230 113.9338328  85.6531910  81.7658204 114.4943385  84.9344276
  81.9833850 114.2266889  86.4085069  82.0746837  95.8030069  86.5424528
  82.3805714  94.9427433  86.2550444  82.7999442  96.3947690  86.3423522
  68.3671194 106.2060756  84.9306126  68.1695593 105.6130117  84.2057193
  67.8117858 105.9012966  85.6482065  76.3467917 106.0983862  87.0500720
  76.4016527 105.1457699  86.9743196  75.5359119 106.2543302  87.5342018
  77.4959111 110.0263986  78.2879003  77.0578541 109.3099844  77.8284640
  78.2369552 110.2540100  77.7264094  74.2860277 104.7160922  84.8091098
  73.4728143 105.0155093  85.2156291  74.7819271 104.3216611  85.5265581
  76.4368855 114.7118679  86.7425363  76.3945034 114.9379525  85.8133895
  77.3531554 114.4782054  86.8911164  79.8834489 105.1802747  93.6405992
  80.2383877 105.4074220  94.5000458  80.5306620 105.5121124  93.0183248
  85.6132226 108.3021183  84.3455321  85.4750124 108.4922779  83.4176511
  85.2568445 109.0640565  84.8023372  73.7774352 102.2879278  90.4252333
  74.4173731 102.1468037  89.7275297  72.9451882 102.0013791  90.0490935
  85.6401605 110.3697710  89.3566593  86.0738112 110.2772999  90.2049647
  86.3533186 110.3455210  88.7186609  74.5534656 111.5881708  86.5387326
  75.3475254 111.0932028  86.3369901  73.8426348 111.0599571  86.1755031
  79.3729500 113.9699804  90.8899693  79.4266523 114.5390740  91.6577409
  78.5044282 114.1401689  90.5253731  70.8617419 105.7324790  82.6147079
  69.9315007 105.6709245  82.8317041  70.9574891 105.2100743  81.8183720
  70.7802968 102.2579603  85.2025320  71.0409786 103.1724936  85.0934481
  71.6020141 101.7904045  85.3521933  72.2527894 103.6717360  92.3724145
  72.9250947 103.4634722  91.7236794  71.4257680 103.4739446  91.9329377
  86.5017155 110.4121410  91.8899478  86.6953045 111.3167221  92.1358753
  86.4017773 109.9528829  92.7238063  78.1553466 100.2979301  94.3889806
  77.5081381 100.9969251  94.2954282  78.9254481 100.7315445  94.7566054
  81.5632264 110.5628153  97.4640359  81.4117770 110.3338705  96.5470443
  81.5536943 111.5198754  97.4771704  78.3317600 108.1360066  92.4486625
  79.2609660 108.2871225  92.2755593  77.9108630 108.2244087  91.5935272
  77.1305932 112.1610730  90.2185163  76.9917017 111.7929515  91.0911101
  76.3420528 112.6758370  90.0469121  77.7254084 117.2619827  81.5610699
  77.9005839 116.7907870  82.3756322  77.0386872 117.8885593  81.7891960
  78.6811147 111.5392333  87.6074001  78.3460980 111.4993103  88.5031651
  78.1815093 110.8737049  87.1344411  72.6555391 106.9459963  93.1326582
  72.5175189 106.2140202  93.7338121  73.5660314 106.8568863  92.8510770
  81.6170339 108.8848367  77.8811060  80.9999509 108.1595195  77.7844113
  81.1486827 109.6457727  77.5378135  75.2837692 106.6579922  92.6210262
  75.9937310 106.0173114  92.5796880  75.2407000 106.9092817  93.5436442
  83.2724470 113.5947276  95.5416841  83.2137016 112.9106496  94.8747424
  83.6743989 114.3366266  95.0897467  73.9966626 103.6445140  94.4405901
  73.4603983 103.1935879  95.0927497  73.4083334 103.7791049  93.6976365
  72.2915169 120.4109189  88.3350560  72.5311767 121.0427714  89.0129578
  71.4484366 120.0597229  88.6215919  73.4068884 103.1033792  77.0032365
  72.5298351 102.9822592  76.6394611  73.8826638 102.3119870  76.7511253
  83.2741878 111.5586860  93.7730820  82.3868656 111.2212781  93.8957219
  83.8440429 110.8269891  94.0099586  64.9271025 107.8910951  87.0973872
  65.6142064 107.5772681  86.5094887  64.7719153 108.7952316  86.8241123
  69.7305747 102.7801148  91.5258895  69.6463935 102.1726817  90.7909305
  68.9088453 103.2710166  91.5268392  76.8043031 116.2188312  90.7392064
  76.7313202 117.0243283  91.2511368  76.3620424 116.4180278  89.9140085
  76.5932811 115.4560082  84.2494885  75.8100332 115.9981762  84.3433110
  77.2925556 115.9734062  84.6489126  79.9029461 101.2654711  86.8929091
  80.3998160 100.5124674  86.5730161  79.1316442 101.3019028  86.3272300
  87.7559218 106.9695077  88.5347382  87.7449094 107.8519792  88.1641315
  86.8876597 106.6166628  88.3401919  79.2641714 116.1175146  92.8950222
  79.9769687 116.7522611  92.8226124  78.7731743 116.2139012  92.0790224
  80.9859241 110.0226399  84.4667514  80.0515520 110.1427861  84.2972218
  81.1635910 109.1198865  84.2027524  76.4864429 103.4072094  86.6200775
  76.1162217 102.8543135  87.3081681  76.9823522 102.8030228  86.0675775
  84.3731793 105.8643718  85.0017548  84.8392245 106.6971709  84.9277851
  84.8239293 105.3988699  85.7062807  74.3153628 113.8669589  93.7155793
  75.0163087 114.5006072  93.8685187  73.8448743 114.2084321  92.9551432
  82.4408024 112.2087539  82.0003700  82.7167868 112.0944134  82.9097574
  81.5712523 111.8105024  81.9615873  82.3448455  98.2324305  89.0408449
  81.4311535  98.4628532  89.2090656  82.7741557  98.3162749  89.8922482
  82.1154914 106.4214197  91.5408343  81.4626364 106.6690104  90.8860796
  82.4935294 105.6078335  91.2070821  79.0762088 116.4573890  85.6436514
  79.2584482 115.6395546  86.1064266  79.8995074 116.6741582  85.2061404
  79.4104253 115.3842075  82.9051562  79.9392020 114.8734530  82.2921724
  79.6732473 115.0684605  83.7697095  78.1642487 107.1634008  98.0274381
  77.4883124 107.0628137  98.6976756  78.9870121 107.0073222  98.4910378
  69.9121346 113.4005944  90.6486896  70.4974783 112.6549632  90.7814800
  69.7146184 113.7109901  91.5323560  72.7660001 116.4357192  85.6649338
  72.0970376 116.9203319  85.1813378  72.6272871 116.6826412  86.5792717
  64.5039001 105.9711545  89.3691339  64.5423100 105.4375135  90.1628457
  63.9979294 105.4446750  88.7502316  76.9065270 118.4700935  92.2631997
  77.4583578 118.6332557  93.0281082  77.2471463 119.0605373  91.5912021
  71.8829763 100.8176085  92.8653881  71.9471090 101.6790916  92.4531279
  71.8196883 100.2050087  92.1326240  71.3582036 102.8899218  96.5126915
  71.9854074 102.5076295  97.1264440  70.5009954 102.6713420  96.8782608
  68.1347578 104.6975647  82.4445270  68.4301019 103.7886325  82.3912324
  67.2335614 104.6763386  82.1226273  80.0433657 116.4182911  89.2495679
  79.9184797 115.6172651  88.7406624  80.7012748 116.9129104  88.7609649
  71.6641825 102.7731643  88.4272819  70.9428411 103.3867611  88.2880292
  72.4535081 103.3089408  88.3489465  82.1068565 114.2191931  90.8775229
  81.1598901 114.0997282  90.8053555  82.4551339 113.3314429  90.9601490
  74.4668139 100.1086070  94.7013471  74.9902541 100.3548366  95.4639780
  74.2480472 100.9406105  94.2816608  69.8635420 102.3789744  82.5684595
  69.5348126 101.4987123  82.3859701  70.2174791 102.3237413  83.4560985
  79.1114999 114.0144647  87.0779581  78.9639961 113.0861355  87.2587151
  79.9368492 114.0364738  86.5936656  72.9777243 102.6662714  82.9360073
  73.3173316 103.1948635  82.2138681  73.4249364 103.0043120  83.7118640
  82.7149121 114.8373206  88.1644454  83.6395668 114.6316067  88.0268905
  82.5464424 114.5889607  89.0733795  75.6720684 101.0499765  92.3863141
  75.3317504 100.2507578  92.7883821  74.9659690 101.3501476  91.8139974
  76.3237156  98.1349077  90.8390464  77.1463225  97.6609556  90.7169355
  76.5675219  98.9139561  91.3389150  74.9645390 101.1637336  81.1353366
  75.6853753 101.5418589  80.6317083  74.3410694 101.8826213  81.2388344
  79.1076513 101.8682485  82.0711698  79.3240127 102.7507123  81.7700526
  78.6270580 101.4768698  81.3417340  73.8475734 104.8268198  88.6482443
  73.7020315 105.1408501  89.5406724  73.3700938 105.4453098  88.0953341
  75.7072117 101.8170746  88.6963332  75.6933686 100.9211839  88.3595630
  76.4244545 101.8241410  89.3301618  77.5598248 102.2508086  90.7416460
  77.3016026 103.1725157  90.7400790  77.0283288 101.8538521  91.4316924
  82.5044437 115.3558873  83.5206545  82.6781314 114.7905296  82.7680398
  82.9973328 116.1559768  83.3386035  68.3221397 107.3673542  91.5870104
  67.7774865 108.1433350  91.7190378  69.2000747 107.7144347  91.4289225
  75.1109013 100.6985126  83.9650903  75.2324924  99.7701772  84.1641790
  74.8211056 100.7123812  83.0529218  77.9800204  98.3840037  87.1017622
  78.0021901  98.4479370  86.1469602  78.3968263  97.5444545  87.2958129
  88.3583828 108.1195296  85.1396845  88.8014974 107.3702621  84.7415968
  87.4810338 108.1105433  84.7570577  83.4919609 114.6725638  80.6203443
  84.1870514 115.2932330  80.8390758  83.8342759 113.8220989  80.8955821
  69.1087419 106.4943439  94.4800261  68.3669155 106.6426074  95.0664891
  68.7880163 106.7551704  93.6167010  85.3911032 112.1225343  82.1490774
  85.9162357 112.4612616  81.4240094  85.3033385 111.1872359  81.9653909
  77.0531081 116.0359417  94.2780651  77.3618208 115.7908564  95.1503350
  77.8506563 116.2406055  93.7899521  77.0751693 118.1897327  86.5086027
  76.6356683 117.6973705  87.2018884  77.8259810 117.6470294  86.2678103
  69.5544032 114.3808867  86.5110655  70.3802052 114.0812639  86.1309299
  69.2038084 113.6116490  86.9600444  74.5225565 113.7335336  88.5808329
  73.9005575 113.0706041  88.2810557  75.1930432 113.7596468  87.8981977
  67.7552637 112.2995194  87.4699589  66.9184546 111.8717368  87.2883590
  67.7276283 112.4927637  88.4070380  74.5950093 102.2117124  98.1740835
  74.6438248 103.0879246  97.7918605  75.1372607 101.6694517  97.6012478
  85.2002814 109.6050713  94.7674701  85.2500818 109.4400721  95.7090224
  85.0916737 108.7377972  94.3772582  74.0839072 112.2839259  82.0566790
  74.2327193 112.9674723  81.4033462  74.8905516 112.2644349  82.5716245
  82.4906576 105.5881641  96.0834007  83.3916439 105.4488106  95.7918005
  82.5654550 105.7536096  97.0232185  76.8249381 102.9648496  94.9287194
  75.9552691 103.2582062  94.6569782  77.0608862 103.5488941  95.6494457
  86.7021010 112.0247655  95.0116722  86.4105819 112.3877635  95.8480183
  86.0893142 111.3114663  94.8330054  87.9016693 109.5900535  87.5319292
  88.7363584 110.0290339  87.6956853  88.0375822 109.1139188  86.7127538
  84.9508199 107.1480269  93.4796780  85.4262320 107.3407916  92.6715632
  84.0273764 107.2039455  93.2340164  71.8391705 108.3104437  83.0627859
  71.5937747 107.4066767  83.2608069  72.0087620 108.3121587  82.1207337
  79.5288415  99.1828113  92.4452614  80.0470359  99.9189140  92.1199103
  79.1743548  99.4892106  93.2799373  71.1087353 104.0432794  80.5614020
  70.4156598 104.1177149  79.9054056  70.8639105 103.2793138  81.0835537
  79.7801009  95.6028396  87.9653511  80.0602763  94.9351585  88.5913937
  80.5651616  95.7957491  87.4528175  77.5834478 114.7787389  79.5278537
  77.0108445 115.3977577  79.0749009  78.1567271 115.3286751  80.0618459
  83.6509868 104.0246029  91.7125086  84.6027291 104.1244127  91.7337310
  83.4813318 103.2324298  92.2223170  81.6724247 101.1101613  91.8984487
  81.0774179 101.3906625  91.2030975  81.3873944 101.5995514  92.6701228
  80.8031738 115.0624540  80.6587119  81.7362411 114.9970101  80.8619995
  80.7154950 115.8980806  80.2001652  83.4319754 114.3790410  77.6191067
  83.3533386 114.0450273  78.5126825  84.2529421 114.8712178  77.6182539
  86.1297945 107.2452149  90.8267386  86.0974266 106.3068150  91.0127069
  86.7398569 107.3236186  90.0933210  77.9681276 106.1148202  76.8694590
  78.9140381 105.9854410  76.9383008  77.5895521 105.3762864  77.3464018
  86.2792434 104.0363193  90.8725669  85.7631483 103.2521649  90.6855598
  87.1632382 103.7081909  91.0372188  83.9403161  97.7804208  86.8321481
  83.7427982  97.4719296  87.7164813  84.5502866  98.5065847  86.9619411
  91.9474495 108.3068156  89.9673422  92.6777884 108.0453444  90.5281126
  91.3381441 107.5696878  90.0075490  90.0289792 106.4476019  90.5647874
  89.3022956 106.3131984  89.9564365  89.6137079 106.7552847  91.3704592
  77.8519969 110.1665948  98.3295247  78.7722978 110.3444547  98.5235293
  77.8169552 109.2221994  98.1774946  76.1524193 104.0398179  76.8049475
  75.2455649 103.7431291  76.8812188  76.4300174 103.7427997  75.9383761
  67.0702134 105.3604542  87.2548521  66.7504918 104.5069850  86.9622895
  66.5235562 105.5753120  88.0106489  70.8482041 108.0766983  90.9718028
  71.0668051 109.0084091  90.9906062  71.2607815 107.7174957  91.7572832
  77.7686259  98.5835068  82.9593716  76.9586987  98.2382153  83.3348962
  78.4570676  98.2742612  83.5481328  79.6976807  97.6613115  84.5818013
  80.2507846  98.0808568  85.2408036  79.9346894  96.7348863  84.6240969
  75.7209907 103.6500189 100.3620777  75.6206634 104.5994546 100.2932868
  75.5031449 103.3218428  99.4896847  74.9222978 100.8985114  76.9461454
  75.7842142 101.2240012  77.2057271  75.1073322 100.1116610  76.4334520
  66.9390394 108.9807453  89.2241643  66.2453865 108.5661406  88.7111597
  67.6863385 109.0227990  88.6275062  83.0755615  99.7713640  84.0896677
  82.4954284 100.4298444  83.7074729  82.8091547  98.9490985  83.6784094
  81.5259181  99.1718698  86.2917997  82.0258959  99.2835232  85.4832316
  82.1694789  98.8679751  86.9318806  75.5841177 107.0797328  99.1785838
  75.1008258 107.8797688  99.3849727  75.6702116 107.0905272  98.2253282
  68.8527136 108.9125707  87.1007658  68.8297824 109.0113395  86.1489541
  69.1627773 109.7590858  87.4224824  71.5114514 110.9701862  91.2154272
  72.4657768 110.9385805  91.1484204  71.3127038 110.5092486  92.0304498
  72.1013896 109.5402978  93.7825070  72.9206785 110.0347057  93.8059907
  72.3750704 108.6234946  93.7542637  81.8580493 101.9313731  83.1453025
  80.9706348 102.2163381  82.9273220  82.2734482 101.7707494  82.2980302
  85.2095029 101.9560252  86.8607364  85.9855419 102.4456704  87.1331981
  84.4843163 102.3818306  87.3179234  87.6467587 102.6687871  87.9181305
  88.2412078 102.4283607  87.2074613  87.7194171 101.9495001  88.5454841
  69.8664743 116.5121482  88.2324470  69.7319211 115.7521883  87.6662468
  69.4496805 117.2362382  87.7653259  81.0023706 111.6958405  77.2401045
  81.7059556 111.9008408  77.8558701  80.2786355 112.2635167  77.5050129
  81.8321516 107.4468267  83.3603315  81.7756718 107.9036818  82.5210948
  82.3849859 106.6858951  83.1826158  85.6426322 103.2357998  84.1853435
  85.3863256 102.8354634  85.0161643  85.0179190 103.9501792  84.0603574
  89.9538660 105.9754072  86.6924726  89.3938218 106.0447261  87.4656288
  89.3482163 105.7995056  85.9724223  73.0233869 117.4090799  88.4442913
  72.9066253 118.3536231  88.3421603  72.2026315 117.1064360  88.8328712
  82.9110403 112.1340934  79.2899505  83.7456007 111.7022133  79.1076980
  82.7494746 111.9622948  80.2176400  82.5656296 108.6373048  80.6555845
  82.5105099 108.4717319  79.7144289  81.9402351 109.3449081  80.8118034
  67.3548811 103.8741112  94.4817267  68.0007674 103.3640066  94.9704492
  67.1465962 104.6109794  95.0560692  75.8752421  98.1381157  80.2341163
  75.8631091  99.0822997  80.3909434  76.7675843  97.9551302  79.9400624
  74.0488383 118.0619061  91.6598841  74.9515630 118.0942671  91.9765336
  73.8225753 117.1319512  91.6745177  75.8041985 116.8150047  88.3208920
  74.8537616 116.8151909  88.2073292  76.1074471 116.0682782  87.8044954
  79.6904541  94.7323933  84.4887100  78.9236936  94.1782420  84.6343782
  80.1015245  94.8045802  85.3501251  71.6946302 101.0208729  98.5792281
  72.5577763 100.6645534  98.7895606  71.1211712 100.6822624  99.2667685
  88.3484385 122.6038014  89.3216207  88.0102896 122.4879078  88.4336742
  89.2174153 122.2029179  89.3017213  84.2071200 124.4573490  85.3113098
  83.6436066 124.3663427  84.5429385  84.0923596 123.6373395  85.7915590
  81.7535632 125.9524682  88.1497318  82.5456924 125.6115506  87.7343617
  81.9932283 126.0619657  89.0699471  83.7126386 125.2133595  81.0214697
  84.4857262 124.6662582  80.8827573  84.0651785 126.0777844  81.2329158
  86.0492664 121.3726261  78.6533147  86.3018185 120.8507782  77.8916610
  85.1117223 121.2092407  78.7559830  91.0935947 120.3762039  86.4607890
  91.8799036 119.9581463  86.1098307  91.3574651 121.2808132  86.6289538
  91.2646024 125.8134890  81.1596547  90.6291857 125.8869516  81.8717452
  90.9343431 126.4028489  80.4815626  96.4944374 120.3137273  87.3640869
  97.2269546 119.7436489  87.5978698  95.7383730 119.9258873  87.8047374
  85.7688953 123.2754367  80.8557522  85.6525211 122.5999270  81.5238606
  85.8791213 122.7886741  80.0389675  88.1120494 122.7364514  84.5604211
  87.7478701 122.2095135  85.2717132  88.9687610 122.3462983  84.3870696
  94.0169794 114.0258847  91.8235477  93.6853119 114.8954258  91.5996692
  93.4215408 113.7095131  92.5029508  87.7525981 117.7654414  79.5565560
  87.9200383 118.6334650  79.9236031  87.5623150 117.9281696  78.6326849
  83.9613795 122.6785190  87.2568094  83.0364292 122.5461404  87.4645786
  84.2098209 123.4579409  87.7538037  87.7315202 120.2212071  80.5412226
  87.6114827 120.6669122  81.3797707  87.0367790 120.5697389  79.9825765
  81.3222607 122.3218463  88.0911883  81.4514988 122.5752942  89.0051295
  80.6420058 122.9146171  87.7716538  93.4300268 120.6933545  81.3692560
  94.3418124 120.9260931  81.1940258  92.9209915 121.2770589  80.8067639
  90.7736243 116.8691580  89.6182421  89.9120722 117.1672834  89.9099159
  90.7998677 117.0861979  88.6863454  87.5897812 125.4133771  86.0256227
  88.0536158 125.6921474  85.2360849  87.3254610 124.5117216  85.8429318
  84.4821893 124.9605253  88.9635990  85.0523250 125.3892521  88.3253475
  85.0730005 124.6787837  89.6620176  86.5266698 121.5356923  82.8345792
  87.2290741 121.9877967  83.3019718  86.1947327 120.8940742  83.4625685
  80.2692032 119.7940476  88.1362926  79.4791086 120.0498005  87.6603036
  80.7603279 120.6088814  88.2414966  82.2206777 120.1585055  85.0946402
  81.4237941 120.2703750  85.6129898  81.9932370 120.4971708  84.2287293
  78.5529735 120.0470967  90.5677916  78.8037773 120.9317976  90.8335492
  79.0889283 119.8675568  89.7953008  87.7660463 128.3497866  82.9107897
  87.6306138 129.1949402  83.3392745  88.3070275 128.5517144  82.1473831
  81.2189860 125.8673304  83.4835822  81.7314381 126.6616554  83.6341387
  81.8712573 125.1699595  83.4169424  83.0284745 128.9839060  85.5658576
  83.2051373 129.9057025  85.3779559  83.8241578 128.6697480  85.9952955
  91.1152926 111.8728428  91.4406791  90.7717196 112.7630070  91.3645901
  91.4831889 111.6830086  90.5776376  79.1838777 124.1961958  84.2595393
  80.0213999 124.6058967  84.0429101  79.3617045 123.2561401  84.2295587
  91.0803209 121.8637039  79.9479226  90.5649832 122.6341644  80.1867613
  90.8080517 121.1902175  80.5712287  88.6650320 116.7086740  85.0064464
  87.8091916 116.3193590  84.8270103  89.0777272 116.7878701  84.1464250
  90.1949467 114.2433083  89.4056024  89.6914262 114.2063218  88.5923829
  90.4880074 115.1525826  89.4652681  86.4392353 114.3271813  88.4122206
  87.3045349 114.1314621  88.0528095  86.5069861 114.0982165  89.3391563
  90.8689512 119.7364131  81.7739007  90.5639648 120.0510280  82.6249150
  91.8219954 119.8145551  81.8166340  89.3135944 125.8954354  83.4231961
  88.7857306 125.1607114  83.1105199  88.8123447 126.6729031  83.1771929
  84.0454672 116.5574021  85.7838573  84.6198424 116.3349202  85.0511766
  84.6325654 116.6262715  86.5367174  93.1034249 122.4447748  86.5902949
  93.6166131 123.0777739  87.0924659  93.7535473 121.8448943  86.2246309
  84.3724259 118.5878482  79.8034458  83.5361571 118.9253168  80.1243733
  84.2329028 118.4527462  78.8661595  86.3477339 113.4315270  84.5113642
  85.6941752 113.1164287  83.8870257  86.3057813 112.8091010  85.2373465
  87.4588544 123.7134565  76.4266934  86.5515606 123.4823818  76.6258083
  87.9559576 122.9172184  76.6140916  89.5815080 119.9197203  88.8361290
  88.6637641 120.1412150  88.6782978  89.9975223 119.9943514  87.9772997
  90.3650127 121.3188619  83.9663970  91.1121946 121.8310016  83.6571092
  90.6341717 120.9972672  84.8268363  88.6376778 123.8147160  80.9490924
  87.7287997 123.5306192  81.0463394  88.6671861 124.2346238  80.0894231
  92.8128965 118.3545735  85.9482759  92.0751721 117.8423121  86.2793002
  93.0655738 117.9146117  85.1366036  92.9140592 111.1321987  86.5424528
  93.2199469 110.2719351  86.2550444  93.6393197 111.7239607  86.3423522
  79.2064948 121.5352674  84.9306126  79.0089348 120.9422034  84.2057193
  78.6511612 121.2304884  85.6482065  87.1861672 121.4275780  87.0500720
  87.2410281 120.4749617  86.9743196  86.3752874 121.5835219  87.5342018
  88.3352865 125.3555903  78.2879003  87.8972295 124.6391762  77.8284640
  89.0763306 125.5832018  77.7264094  85.1254032 120.0452840  84.8091098
  84.3121897 120.3447010  85.2156291  85.6213026 119.6508529  85.5265581
  84.6168106 117.6171195  90.4252333  85.2567486 117.4759955  89.7275297
  83.7845637 117.3305709  90.0490935  85.3928410 126.9173626  86.5387326
  86.1869009 126.4223946  86.3369901  84.6820103 126.3891489  86.1755031
  81.7011174 121.0616708  82.6147079  80.7708762 121.0001163  82.8317041
  81.7968646 120.5392660  81.8183720  81.6196723 117.5871520  85.2025320
  81.8803540 118.5016854  85.0934481  82.4413895 117.1195963  85.3521933
  83.0921648 119.0009278  92.3724145  83.7644702 118.7926640  91.7236794
  82.2651435 118.8031364  91.9329377  92.4564093 124.2140285  77.8811060
  91.8393264 123.4887113  77.7844113  91.9880582 124.9749645  77.5378135
  84.2462639 118.4325709  77.0032365  83.3692105 118.3114510  76.6394611
  84.7220392 117.6411787  76.7511253  75.7664779 123.2202869  87.0973872
  76.4535819 122.9064599  86.5094887  75.6112908 124.1244234  86.8241123
  80.5699501 118.1093065  91.5258895  80.4857690 117.5018735  90.7909305
  79.7482208 118.6002084  91.5268392  90.7423215 116.5946629  86.8929091
  91.2391915 115.8416591  86.5730161  89.9710197 116.6310946  86.3272300
  91.8252996 125.3518316  84.4667514  90.8909275 125.4719779  84.2972218
  92.0029664 124.4490783  84.2027524  87.3258184 118.7364012  86.6200775
  86.9555971 118.1835052  87.3081681  87.8217276 118.1322145  86.0675775
  95.2125547 121.1935636  85.0017548  95.6785999 122.0263627  84.9277851
  95.6633048 120.7280617  85.7062807  93.1842210 113.5616223  89.0408449
  92.2705290 113.7920449  89.2090656  93.6135311 113.6454667  89.8922482
  75.3432755 121.3003462  89.3691339  75.3816855 120.7667053  90.1628457
  74.8373048 120.7738668  88.7502316  82.7223518 116.1468003  92.8653881
  82.7864844 117.0082834  92.4531279  82.6590638 115.5342004  92.1326240
  78.9741333 120.0267564  82.4445270  79.2694774 119.1178243  82.3912324
  78.0729369 120.0055304  82.1226273  82.5035580 118.1023561  88.4272819
  81.7822166 118.7159529  88.2880292  83.2928836 118.6381326  88.3489465
  80.7029174 117.7081662  82.5684595  80.3741881 116.8279041  82.3859701
  81.0568545 117.6529331  83.4560985  83.8170998 117.9954632  82.9360073
  84.1567070 118.5240553  82.2138681  84.2643118 118.3335038  83.7118640
  86.5114438 116.3791683  92.3863141  86.1711259 115.5799496  92.7883821
  85.8053445 116.6793393  91.8139974  87.1630910 113.4640995  90.8390464
  87.9856980 112.9901473  90.7169355  87.4068974 114.2431479  91.3389150
  85.8039145 116.4929253  81.1353366  86.5247507 116.8710506  80.6317083
  85.1804449 117.2118130  81.2388344  89.9470268 117.1974402  82.0711698
  90.1633882 118.0799040  81.7700526  89.4664335 116.8060616  81.3417340
  84.6869489 120.1560116  88.6482443  84.5414070 120.4700419  89.5406724
  84.2094693 120.7745016  88.0953341  86.5465872 117.1462664  88.6963332
  86.5327441 116.2503757  88.3595630  87.2638300 117.1533327  89.3301618
  88.3992003 117.5800004  90.7416460  88.1409780 118.5017075  90.7400790
  87.8677043 117.1830438  91.4316924  79.1615151 122.6965460  91.5870104
  78.6168619 123.4725268  91.7190378  80.0394501 123.0436265  91.4289225
  85.9502768 116.0277044  83.9650903  86.0718679 115.0993690  84.1641790
  85.6604810 116.0415730  83.0529218  88.8193958 113.7131954  87.1017622
  88.8415655 113.7771287  86.1469602  89.2362017 112.8736463  87.2958129
  80.3937787 129.7100785  86.5110655  81.2195807 129.4104557  86.1309299
  80.0431839 128.9408408  86.9600444  78.5946392 127.6287112  87.4699589
  77.7578300 127.2009286  87.2883590  78.5670037 127.8219555  88.4070380
  84.9232827 127.6131177  82.0566790  85.0720947 128.2966641  81.4033462
  85.7299270 127.5936267  82.5716245  82.6785460 123.6396354  83.0627859
  82.4331502 122.7358684  83.2608069  82.8481374 123.6413505  82.1207337
  90.3682170 114.5120031  92.4452614  90.8864113 115.2481058  92.1199103
  90.0137302 114.8184024  93.2799373  81.9481107 119.3724712  80.5614020
  81.2550352 119.4469067  79.9054056  81.7032859 118.6085055  81.0835537
  90.6194764 110.9320313  87.9653511  90.8996518 110.2643502  88.5913937
  91.4045371 111.1249409  87.4528175  88.8075031 121.4440120  76.8694590
  89.7534135 121.3146328  76.9383008  88.4289276 120.7054782  77.3464018
  94.7796915 113.1096126  86.8321481  94.5821736 112.8011214  87.7164813
  95.3896621 113.8357765  86.9619411  86.9917948 119.3690096  76.8049475
  86.0849403 119.0723209  76.8812188  87.2693929 119.0719914  75.9383761
  77.9095888 120.6896460  87.2548521  77.5898673 119.8361768  86.9622895
  77.3629316 120.9045038  88.0106489  81.6875796 123.4058901  90.9718028
  81.9061806 124.3376008  90.9906062  82.1001570 123.0466875  91.7572832
  88.6080014 113.9126986  82.9593716  87.7980742 113.5674071  83.3348962
  89.2964431 113.6034530  83.5481328  90.5370562 112.9905033  84.5818013
  91.0901601 113.4100486  85.2408036  90.7740648 112.0640781  84.6240969
  85.7616733 116.2277031  76.9461454  86.6235897 116.5531930  77.2057271
  85.9467077 115.4408527  76.4334520  77.7784148 124.3099371  89.2241643
  77.0847620 123.8953324  88.7111597  78.5257139 124.3519908  88.6275062
  93.9149369 115.1005558  84.0896677  93.3348038 115.7590362  83.7074729
  93.6485302 114.2782902  83.6784094  92.3652935 114.5010616  86.2917997
  92.8652714 114.6127150  85.4832316  93.0088543 114.1971668  86.9318806
  79.6920891 124.2417625  87.1007658  79.6691579 124.3405312  86.1489541
  80.0021527 125.0882776  87.4224824  92.6974247 117.2605648  83.1453025
  91.8100102 117.5455299  82.9273220  93.1128236 117.0999412  82.2980302
  96.0488783 117.2852169  86.8607364  96.8249173 117.7748622  87.1331981
  95.3236917 117.7110223  87.3179234  98.4861342 117.9979788  87.9181305
  99.0805833 117.7575524  87.2074613  98.5587926 117.2786919  88.5454841
  92.6715271 122.7760184  83.3603315  92.6150472 123.2328736  82.5210948
  93.2243613 122.0150869  83.1826158  96.4820077 118.5649916  84.1853435
  96.2257011 118.1646552  85.0161643  95.8572945 119.2793710  84.0603574
  93.4050050 123.9664965  80.6555845  93.3498854 123.8009237  79.7144289
  92.7796105 124.6740998  80.8118034  78.1942565 119.2033030  94.4817267
  78.8401429 118.6931984  94.9704492  77.9859716 119.9401711  95.0560692
  86.7146176 113.4673074  80.2341163  86.7024845 114.4114914  80.3909434
  87.6069597 113.2843220  79.9400624  90.5298295 110.0615851  84.4887100
  89.7630691 109.5074338  84.6343782  90.9409000 110.1337720  85.3501251
  26.5032153   7.6821202  76.1099989  27.1410563   7.5627949  75.4063329
  26.3852996   8.6302046  76.1687941  23.3121859   7.6348630  76.0461513
  22.9740371   7.5189695  75.1582048  24.1811627   7.2339795  76.0262519
  19.1708675   9.4884107  72.0358404  18.6073540   9.3974044  71.2674692
  19.0561070   8.6684011  72.5160897  23.7941642   8.7883482  82.0047719
  23.7830283   8.3936280  81.1328223  23.9562282   8.0549555  82.5981490
  16.7173107  10.9835298  74.8742625  17.5094399  10.6426123  74.4588924
  16.9569757  11.0930273  75.7944778  24.7508234  13.1555074  67.3472869
  24.0996213  13.7409155  66.9606883  25.5452596  13.6861269  67.4067907
  18.6763861  10.2444212  67.7460004  19.4494737   9.6973199  67.6072879
  19.0289260  11.1088461  67.9574465  20.5148903  11.5720594  80.9526903
  20.2238769  12.4766225  80.8373569  21.1505888  11.6137121  81.6670972
  21.4405110   8.9497442  77.5428263  22.0368682   8.7253465  76.8285225
  21.4980082   8.2082188  78.1453710  21.0130139   6.4036878  65.3778453
  21.2655659   5.8818399  64.6161916  20.0754698   6.2403023  65.4805137
  26.0573421   5.4072656  73.1853197  26.8436511   4.9892079  72.8343614
  26.3212126   6.3118748  73.3534845  26.2283499  10.8445506  67.8841854
  25.5929332  10.9180133  68.5962758  25.8980905  11.4339105  67.2060933
  31.4581848   5.3447889  74.0886175  32.1907020   4.7747106  74.3224005
  30.7021204   4.9569490  74.5292681  20.7326427   8.3064984  67.5802828
  20.6162685   7.6309887  68.2483913  20.8428687   7.8197358  66.7634981
  23.0757968   7.7675131  71.2849518  22.7116175   7.2405752  71.9962439
  23.9325084   7.3773600  71.1116003  28.9807269  -0.9430537  78.5480784
  28.6490594  -0.0735126  78.3241999  28.3852882  -1.2594253  79.2274814
  22.7163455   2.7965030  66.2810866  22.8837858   3.6645267  66.6481337
  22.5260624   2.9592312  65.3572155  25.4738788  11.2582009  77.9476697
  25.1739511  12.1607048  77.8392504  25.1289848  10.9914192  78.7997849
  18.9251270   7.7095806  73.9813401  18.0001766   7.5772020  74.1891093
  19.1735683   8.4890025  74.4783343  28.8735932   3.7764549  75.6274134
  27.9652809   3.7079958  75.3332895  28.8223528   4.2536494  76.4555959
  22.6952676   5.2522688  67.2657533  22.5752301   5.6979739  68.1043013
  22.0005264   5.6008006  66.7071071  16.2860081   7.3529080  74.8157190
  16.4152462   7.6063559  75.7296602  15.6057532   7.9456788  74.4961845
  20.4559568  18.0226330  70.9147664  20.3783598  18.9734155  70.9936145
  19.8521212  17.6772202  71.5722591  22.9476798   5.1954195  83.5709031
  22.1710132   5.7548115  83.5611896  23.5867361   5.6810978  84.0923901
  30.7397579   1.9780988  77.4052008  30.0971959   2.2713521  76.7591802
  30.2352507   1.8633908  78.2105204  28.3937742   5.7244161  68.0937867
  29.3055598   5.9571548  67.9185565  27.8847389   6.3081205  67.5312946
  21.2023170   8.0039648  83.1326998  21.9437855   8.5424692  82.8561822
  20.4960156   8.6305937  83.2898550  26.6778510  10.1468789  81.7299160
  27.0861866   9.7051199  80.9853792  25.9555771   9.5721416  81.9833353
  23.0309580   5.0841396  79.1032717  23.8770775   5.5080809  79.2467366
  22.9708218   4.4275020  79.7971280  27.0007324  10.7069980  75.4851449
  26.3716187  10.8715694  74.7827516  26.6132987  11.1211589  76.2562413
  30.8796556  11.6424417  72.8395812  30.1947595  12.0223319  72.2892846
  30.9640406  12.2519744  73.5727760  26.1809025   2.7445764  80.7613890
  25.9369957   3.4987825  80.2248166  26.4568956   3.1231112  81.5961137
  28.1347488   9.2884376  79.4391156  28.3464383   9.9316136  78.7625537
  28.0877236   8.4546693  78.9713086  25.7373717   1.9002197  76.3427728
  24.8758196   2.1983451  76.6344466  25.7636152   2.1172596  75.4108761
  22.5535286  10.4444388  72.7501534  23.0173632  10.7232091  71.9606156
  22.2892084   9.5427832  72.5674624  19.4459367   9.9915869  75.6881297
  20.0160724  10.4203138  75.0498781  20.0367479   9.7098454  76.3865483
  21.4904172   6.5667540  69.5591099  22.1928216   7.0188584  70.0265025
  21.1584801   5.9251359  70.1870992  19.9384534   5.1579297  83.9342308
  19.3083195   5.8395577  84.1677705  19.8320622   5.0462378  82.9895446
  29.2493316  12.1656332  77.6113513  30.0710760  11.7636519  77.3296195
  29.2455719  12.0624566  78.5629629  23.0149919  11.7140375  79.7674224
  23.0794352  12.1760782  80.6032395  22.3060843  11.0837740  79.8956533
  37.3399309   8.5095080  73.9598485  36.5863017   7.9402478  73.8042489
  37.4746850   8.4757745  74.9069119  22.7297937  13.3808483  69.6353204
  22.5943612  14.2260018  70.0638052  23.2707750  13.5827760  68.8719138
  16.1827334  10.8983921  70.2081129  16.6951855  11.6927171  70.3586694
  16.8350047  10.2010211  70.1414731  17.9922219  14.0149677  72.2903882
  18.1688847  14.9367642  72.1024866  18.7879053  13.7008096  72.7198262
  24.3566413  14.0032049  83.7653546  23.9130268  13.2168428  83.4474451
  25.0183627  14.1911200  83.0997437  19.1153535  15.5327851  78.2914225
  19.6660960  15.4044914  77.5191219  18.2765011  15.8322740  77.9409117
  26.4547651  14.2834849  81.7934947  26.4366127  15.1043730  81.3015216
  27.3767572  14.1588924  82.0185088  22.9120706  11.7978979  82.6358456
  23.4449042  11.0367267  82.4057764  22.3834787  11.5052630  83.3782610
  26.0440683   6.8947656  66.6724533  25.5287307   7.6652260  66.9112920
  25.7717992   6.2212792  67.2957594  31.0174957   9.6480010  68.6077706
  30.2404400   9.3091170  68.1632868  31.6966438   9.6532633  67.9332671
  25.8326986   4.7674748  68.4984314  25.5277122   5.0820897  69.3494457
  26.7857429   4.8456168  68.5411647  24.2773418  10.9264971  70.1477268
  23.7494780  10.1917731  69.8350505  23.7760921  11.7039647  69.9017236
  29.2566264   9.1213991  75.2644314  28.5989939   9.8113253  75.3524443
  30.0606664   9.5110423  75.6078300  28.0671723   7.4758364  73.3148256
  28.5803605   8.1088356  73.8169965  28.7172947   6.8759560  72.9491616
  22.4226019   8.7445181  63.1512241  21.5153080   8.5134435  63.3503390
  22.9197051   7.9482801  63.3386222  25.3294097  17.4542688  66.0708927
  24.6555796  17.7574385  66.6793885  25.7159919  18.2571769  65.7214384
  24.5452554   4.9507820  75.5606596  23.6275115   5.1722767  75.4028284
  24.9612698   5.0254130  74.7018304  25.3287602   6.3499235  70.6909277
  26.0759421   6.8620633  70.3816399  25.5979191   6.0283288  71.5513670
  23.6014252   8.8457776  67.6736231  22.6925471   8.5616809  67.7708701
  23.6309336   9.2656855  66.8139538  28.8333519  12.4564366  71.4427398
  28.3795846  11.6155275  71.4992589  28.2027486  13.0925764  71.7802179
  27.7766439   3.3856352  72.6728066  27.0389196   2.8733738  73.0038308
  28.0293212   2.9456733  71.8611343  27.2766459  14.2940862  72.3777217
  27.5689433  14.8545919  71.6589582  27.7865079  14.5869423  73.1330376
  22.1499146   6.4586397  73.7746026  22.2047756   5.5060233  73.6988503
  21.3390348   6.6145836  74.2587325  23.2990340  10.3866520  65.0124309
  22.8609770   9.6702379  64.5529947  24.0400781  10.6142635  64.4509401
  20.0891506   5.0763456  71.5336405  19.2759371   5.3757627  71.9401597
  20.5850500   4.6819145  72.2510887  22.2400084  15.0721213  73.4670670
  22.1976263  15.2982060  72.5379202  23.1562783  14.8384588  73.6156471
  25.6865718   5.5405281  80.3651299  26.0415105   5.7676754  81.2245765
  26.3337849   5.8723658  79.7428554  31.4163455   8.6623717  71.0700628
  31.2781353   8.8525313  70.1421817  31.0599673   9.4243100  71.5268679
  31.4432834  10.7300244  76.0811899  31.8769341  10.6375533  76.9294954
  32.1564415  10.7057744  75.4431915  20.3565885  11.9484242  73.2632632
  21.1506483  11.4534563  73.0615207  19.6457577  11.4202106  72.9000338
  25.1760729  14.3302338  77.6145000  25.2297751  14.8993274  78.3822716
  24.3075510  14.5004223  77.2499037  32.3048384  10.7723944  78.6144785
  32.4984274  11.6769755  78.8604060  32.2049002  10.3131364  79.4483370
  27.3663492  10.9230687  84.1885665  27.2148999  10.6941239  83.2715749
  27.3568172  11.8801289  84.2017011  24.1348829   8.4962600  79.1731932
  25.0640889   8.6473760  79.0000899  23.7139859   8.5846621  78.3180578
  22.9337161  12.5213264  76.9430470  22.7948246  12.1532049  77.8156408
  22.1451757  13.0360904  76.7714427  23.5285313  17.6222361  68.2856006
  23.7037068  17.1510404  69.1001629  22.8418101  18.2488127  68.5137267
  24.4842376  11.8994867  74.3319307  24.1492208  11.8595637  75.2276957
  23.9846321  11.2339583  73.8589718  18.4586620   7.3062497  79.8571888
  18.3206418   6.5742736  80.4583428  19.3691543   7.2171397  79.5756076
  27.4201567   9.2450901  64.6056367  26.8030738   8.5197730  64.5089420
  26.9518056  10.0060262  64.2623441  21.0868920   7.0182456  79.3455568
  21.7968539   6.3775649  79.3042187  21.0438229   7.2695351  80.2681749
  29.0755699  13.9549810  82.2662147  29.0168245  13.2709030  81.5992730
  29.4775217  14.6968800  81.8142773  18.0946398  20.7711724  75.0595866
  18.3342996  21.4030248  75.7374885  17.2515594  20.4199764  75.3461226
  29.0773106  11.9189394  80.4976127  28.1899885  11.5815316  80.6202526
  29.6471657  11.1872425  80.7344892  22.6074260  16.5790846  77.4637370
  22.5344431  17.3845818  77.9756675  22.1651653  16.7782812  76.6385392
  22.3964039  15.8162616  70.9740192  21.6131561  16.3584296  71.0678416
  23.0956785  16.3336596  71.3734433  25.7060689   1.6257246  73.6174397
  26.2029389   0.8727208  73.2975467  24.9347671   1.6621562  73.0517606
  33.5590447   7.3297611  75.2592689  33.5480323   8.2122327  74.8886622
  32.6907826   6.9769162  75.0647226  25.0672943  16.4777680  79.6195529
  25.7800915  17.1125145  79.5471430  24.5762972  16.5741546  78.8035531
  26.7890470  10.3828933  71.1912821  25.8546749  10.5030395  71.0217525
  26.9667139   9.4801400  70.9272830  22.2895658   3.7674629  73.3446082
  21.9193446   3.2145669  74.0326987  22.7854751   3.1632762  72.7921082
  30.1763021   6.2246252  71.7262855  30.6423474   7.0574244  71.6523157
  30.6270522   5.7591234  72.4308113  20.1184857  14.2272124  80.4401100
  20.8194316  14.8608607  80.5930494  19.6479972  14.5686855  79.6796739
  28.2439253  12.5690073  68.7249007  28.5199096  12.4546668  69.6342881
  27.3743751  12.1707558  68.6861180  27.9186143   6.7816731  78.2653650
  27.2657593   7.0292638  77.6106103  28.2966523   5.9680869  77.9316127
  24.8793317  16.8176424  72.3681820  25.0615711  15.9998080  72.8309573
  25.7026303  17.0344116  71.9306710  25.2135482  15.7444609  69.6296869
  25.7423249  15.2337064  69.0167031  25.4763702  15.4287140  70.4942402
  23.9673716   7.5236542  84.7519687  23.2914353   7.4230671  85.4222062
  24.7901350   7.3675756  85.2155684  15.7152575  13.7608479  77.3732202
  16.3006012  13.0152167  77.5060107  15.5177413  14.0712435  78.2568866
  18.5691230  16.7959726  72.3894645  17.9001605  17.2805854  71.9058685
  18.4304100  17.0428946  73.3038023  22.7096499  18.8303470  78.9877303
  23.2614807  18.9935091  79.7526388  23.0502692  19.4207907  78.3157328
  27.5607373  13.6564727  84.8425958  28.1047277  14.2694685  84.3480912
  26.9794218  14.2144305  85.3592971  25.8464886  16.7785445  75.9740985
  25.7216025  15.9775185  75.4651931  26.5043977  17.2731638  75.4854955
  27.9099794  14.5794465  77.6020535  26.9630130  14.4599816  77.5298862
  28.2582567  13.6916963  77.6846797  24.9146228  14.3747181  73.8024888
  24.7671190  13.4463889  73.9832458  25.7399721  14.3967272  73.3181963
  28.5180349  15.1975740  74.8889760  29.4426897  14.9918601  74.7514212
  28.3495653  14.9492141  75.7979102  24.9107742   2.2285019  68.7957005
  25.1271356   3.1109657  68.4945833  24.4301809   1.8371232  68.0662647
  19.6506963   5.1870732  75.3727749  19.5051544   5.5011035  76.2652031
  19.1732167   5.8055633  74.8198648  28.3075666  15.7161408  70.2451852
  28.4812543  15.1507830  69.4925704  28.8004557  16.5162302  70.0631342
  34.1615057   8.4797830  71.8642152  34.6046203   7.7305156  71.4661275
  33.2841567   8.4707967  71.4815884  29.2950838  15.0328172  67.3448750
  29.9901743  15.6534865  67.5636065  29.6373988  14.1823523  67.6201128
  31.1942261  12.4827877  68.8736081  31.7193585  12.8215150  68.1485401
  31.1064614  11.5474893  68.6899215  22.8562310  16.3961951  81.0025958
  23.1649436  16.1511098  81.8748657  23.6537792  16.6008590  80.5144828
  22.8782922  18.5499861  73.2331334  22.4387912  18.0576239  73.9264191
  23.6291039  18.0072828  72.9923409  15.3575261  14.7411402  73.2355962
  16.1833281  14.4415173  72.8554606  15.0069313  13.9719024  73.6845751
  20.3256794  14.0937870  75.3053636  19.7036803  13.4308575  75.0055864
  20.9961661  14.1199002  74.6227284  13.5583866  12.6597728  74.1944896
  12.7215774  12.2319902  74.0128897  13.5307511  12.8530171  75.1315687
  30.8836167  13.1160781  84.1787279  30.0931711  13.0984920  83.6391778
  30.6469522  13.6549075  84.9336315  31.0034042   9.9653247  81.4920007
  31.0532047   9.8003255  82.4335530  30.8947966   9.0980507  81.1017888
  19.8870301  12.6441793  68.7812096  20.0358421  13.3277258  68.1278769
  20.6936745  12.6246883  69.2961552  28.2937805   5.9484176  82.8079314
  29.1947668   5.8090640  82.5163312  28.3685779   6.1138630  83.7477492
  22.6280610   3.3251030  81.6532500  21.7583919   3.6184596  81.3815089
  22.8640090   3.9091475  82.3739764  32.5052239  12.3850189  81.7362029
  32.2137048  12.7480170  82.5725490  31.8924370  11.6717197  81.5575361
  33.7047922   9.9503069  74.2564599  34.5394813  10.3892873  74.4202159
  33.8407050   9.4741722  73.4372845  30.7539427   7.5082804  80.2042087
  31.2293549   7.7010450  79.3960938  29.8304993   7.5641989  79.9585471
  17.6422934   8.6706971  69.7873165  17.3968976   7.7669301  69.9853375
  17.8118849   8.6724121  68.8452643  23.3865707  15.1389924  66.2523844
  22.8139674  15.7580111  65.7994316  23.9598500  15.6889285  66.7863766
  29.4541096   4.3848564  78.4370392  30.4058519   4.4846661  78.4582617
  29.2844547   3.5926832  78.9468477  27.4755476   1.4704147  78.6229793
  26.8805408   1.7509160  77.9276282  27.1905173   1.9598048  79.3946535
  26.6062966  15.4227074  67.3832426  27.5393640  15.3572635  67.5865301
  26.5186179  16.2583341  66.9246959  29.2350983  14.7392944  64.3436374
  29.1564615  14.4052808  65.2372131  30.0560650  15.2314712  64.3427846
  31.9329174   7.6054683  77.5512692  31.9005494   6.6670684  77.7372376
  32.5429798   7.6838720  76.8178517  23.7712505   6.4750736  63.5939896
  24.7171610   6.3456944  63.6628314  23.3926750   5.7365398  64.0709324
  32.0823663   4.3965727  77.5970975  31.5662711   3.6124183  77.4100904
  32.9663611   4.0684443  77.7617495  29.7434390  -1.8593258  73.5566788
  29.5459211  -2.1678169  74.4410120  30.3534095  -1.1331619  73.6864718
  37.7505724   8.6670690  76.6918729  38.4809113   8.4055978  77.2526432
  37.1412670   7.9299412  76.7320797  35.8321021   6.8078553  77.2893180
  35.1054185   6.6734518  76.6809672  35.4168308   7.1155381  78.0949898
  23.6551198  10.5268482  85.0540553  24.5754207  10.7047082  85.2480600
  23.6200781   9.5824528  84.9020252  21.9555422   4.4000713  63.5294781
  21.0486878   4.1033825  63.6057495  22.2331403   4.1030531  62.6629068
  16.6513270   8.4369517  77.6963334  16.8699280   9.3686625  77.7151368
  17.0639044   8.0777492  78.4818138  28.8786843   0.1316174  70.8141984
  28.2985512   0.7900978  70.4320036  28.6122776  -0.6906481  70.4029401
  27.3290410  -0.4678768  73.0163304  27.8290188  -0.3562233  72.2077623
  27.9726018  -0.7717715  73.6564112  21.3872406   7.4399862  85.9031145
  20.9039487   8.2400222  86.1095034  21.4733345   7.4507807  84.9498589
  14.6558365   9.2728241  73.8252964  14.6329053   9.3715929  72.8734847
  14.9659002  10.1193392  74.1470130  17.3145743  11.3304396  77.9399579
  18.2688997  11.2988339  77.8729510  17.1158267  10.8695020  78.7549805
  17.9045125   9.9005513  80.5070376  18.7238014  10.3949591  80.5305214
  18.1781933   8.9837481  80.4787944  27.6611721   2.2916265  69.8698332
  26.7737576   2.5765915  69.6518527  28.0765710   2.1310028  69.0225609
  31.0126257   2.3162786  73.5852671  31.7886648   2.8059238  73.8577288
  30.2874392   2.7420840  74.0424541  33.4498816   3.0290405  74.6426612
  34.0443307   2.7886141  73.9319920  33.5225400   2.3097536  75.2700148
  15.6695972  16.8724016  74.9569777  15.5350440  16.1124417  74.3907775
  15.2528034  17.5964916  74.4898565  26.8054935  12.0560939  63.9646352
  27.5090785  12.2610942  64.5804007  26.0817584  12.6237701  64.2295435
  27.6352745   7.8070801  70.0848622  27.5787947   8.2639352  69.2456254
  28.1881088   7.0461485  69.9071465  31.4457551   3.5960533  70.9098742
  31.1894485   3.1957168  71.7406949  30.8210419   4.3104327  70.7848881
  35.7569889   6.3356606  73.4170033  35.1969447   6.4049795  74.1901595
  35.1513392   6.1597590  72.6969529  18.8265098  17.7693333  75.1688219
  18.7097482  18.7138765  75.0666909  18.0057544  17.4666895  75.5574018
  28.7141632  12.4943469  66.0144812  29.5487236  12.0624667  65.8322287
  28.5525975  12.3225482  66.9421706  28.3687524   8.9975582  67.3801151
  28.3136328   8.8319853  66.4389595  27.7433580   9.7051615  67.5363341
  25.6833432  11.3024494  86.7054714  26.5524591  11.4765146  86.3441349
  25.2040183  12.1218911  86.5830443  19.8519612  18.4221595  78.3844148
  20.7546859  18.4545205  78.7010643  19.6256982  17.4922046  78.3990483
  21.6073214  17.1752581  75.0454226  20.6568845  17.1754443  74.9318599
  21.9105700  16.4285316  74.5290261  37.3425907  23.0113120  76.1099989
  37.9804317  22.8919867  75.4063329  37.2246750  23.9593964  76.1687941
  34.1515614  22.9640548  76.0461513  33.8134125  22.8481613  75.1582048
  35.0205382  22.5631713  76.0262519  30.0102429  24.8176024  72.0358404
  29.4467294  24.7265961  71.2674692  29.8954824  23.9975929  72.5160897
  34.6335397  24.1175400  82.0047719  34.6224037  23.7228198  81.1328223
  34.7956036  23.3841472  82.5981490  27.5566861  26.3127216  74.8742625
  28.3488153  25.9718041  74.4588924  27.7963511  26.4222191  75.7944778
  35.5901988  28.4846992  67.3472869  34.9389968  29.0701072  66.9606883
  36.3846351  29.0153187  67.4067907  29.5157615  25.5736129  67.7460004
  30.2888491  25.0265116  67.6072879  29.8683014  26.4380378  67.9574465
  31.3542658  26.9012511  80.9526903  31.0632524  27.8058142  80.8373569
  31.9899642  26.9429039  81.6670972  32.2798865  24.2789360  77.5428263
  32.8762437  24.0545382  76.8285225  32.3373836  23.5374105  78.1453710
  31.8523893  21.7328795  65.3778453  32.1049414  21.2110317  64.6161916
  30.9148452  21.5694941  65.4805137  36.8967176  20.7364574  73.1853197
  37.6830265  20.3183997  72.8343614  37.1605880  21.6410666  73.3534845
  37.0677253  26.1737424  67.8841854  36.4323086  26.2472050  68.5962758
  36.7374660  26.7631023  67.2060933  42.2975603  20.6739807  74.0886175
  43.0300775  20.1039024  74.3224005  41.5414959  20.2861407  74.5292681
  31.5720182  23.6356901  67.5802828  31.4556440  22.9601805  68.2483913
  31.6822442  23.1489275  66.7634981  33.9151723  23.0967048  71.2849518
  33.5509930  22.5697669  71.9962439  34.7718839  22.7065517  71.1116003
  39.8201023  14.3861381  78.5480784  39.4884348  15.2556792  78.3241999
  39.2246637  14.0697665  79.2274814  33.5557210  18.1256948  66.2810866
  33.7231612  18.9937184  66.6481337  33.3654379  18.2884230  65.3572155
  36.3132543  26.5873927  77.9476697  36.0133266  27.4898966  77.8392504
  35.9683602  26.3206110  78.7997849  29.7645024  23.0387724  73.9813401
  28.8395521  22.9063938  74.1891093  30.0129438  23.8181943  74.4783343
  39.7129687  19.1056467  75.6274134  38.8046564  19.0371876  75.3332895
  39.6617282  19.5828412  76.4555959  33.5346431  20.5814606  67.2657533
  33.4146056  21.0271656  68.1043013  32.8399019  20.9299923  66.7071071
  27.1253835  22.6820997  74.8157190  27.2546217  22.9355476  75.7296602
  26.4451287  23.2748705  74.4961845  31.2953323  33.3518247  70.9147664
  31.2177352  34.3026072  70.9936145  30.6914966  33.0064120  71.5722591
  33.7870552  20.5246113  83.5709031  33.0103886  21.0840033  83.5611896
  34.4261115  21.0102896  84.0923901  41.5791333  17.3072906  77.4052008
  40.9365713  17.6005439  76.7591802  41.0746262  17.1925826  78.2105204
  39.2331497  21.0536079  68.0937867  40.1449353  21.2863465  67.9185565
  38.7241144  21.6373123  67.5312946  32.0416925  23.3331566  83.1326998
  32.7831609  23.8716610  82.8561822  31.3353910  23.9597855  83.2898550
  37.5172264  25.4760707  81.7299160  37.9255620  25.0343117  80.9853792
  36.7949526  24.9013334  81.9833353  33.8703334  20.4133313  79.1032717
  34.7164530  20.8372727  79.2467366  33.8101972  19.7566938  79.7971280
  37.8401079  26.0361897  75.4851449  37.2109941  26.2007611  74.7827516
  37.4526741  26.4503507  76.2562413  41.7190311  26.9716335  72.8395812
  41.0341349  27.3515236  72.2892846  41.8034160  27.5811662  73.5727760
  37.0202780  18.0737682  80.7613890  36.7763712  18.8279742  80.2248166
  37.2962710  18.4523029  81.5961137  38.9741242  24.6176294  79.4391156
  39.1858138  25.2608054  78.7625537  38.9270991  23.7838611  78.9713086
  36.5767471  17.2294115  76.3427728  35.7151950  17.5275368  76.6344466
  36.6029906  17.4464514  75.4108761  33.3929041  25.7736305  72.7501534
  33.8567386  26.0524008  71.9606156  33.1285839  24.8719750  72.5674624
  30.2853122  25.3207787  75.6881297  30.8554479  25.7495055  75.0498781
  30.8761234  25.0390372  76.3865483  32.3297927  21.8959458  69.5591099
  33.0321970  22.3480501  70.0265025  31.9978555  21.2543276  70.1870992
  30.7778288  20.4871214  83.9342308  30.1476949  21.1687495  84.1677705
  30.6714376  20.3754296  82.9895446  26.0723261  20.1543010  74.8608232
  25.2822315  20.4100539  74.3848343  26.5634508  20.9691348  74.9660273
  40.0887070  27.4948249  77.6113513  40.9104514  27.0928437  77.3296195
  40.0849473  27.3916484  78.5629629  28.0238006  20.5187590  71.8191709
  27.2269170  20.6306284  72.3375205  27.7963598  20.8574242  70.9532600
  33.8543674  27.0432293  79.7674224  33.9188106  27.5052700  80.6032395
  33.1454598  26.4129658  79.8956533  24.3560964  20.4073501  77.2923223
  24.6069002  21.2920511  77.5580799  24.8920512  20.2278102  76.5198315
  48.1793063  23.8386998  73.9598485  47.4256772  23.2694396  73.8042489
  48.3140605  23.8049662  74.9069119  33.5691692  28.7100400  69.6353204
  33.4337366  29.5551936  70.0638052  34.1101504  28.9119678  68.8719138
  30.0559031  14.7891980  86.2967559  29.6625977  14.2358179  86.9715203
  30.8725171  15.1002559  86.6874077  27.0221089  26.2275838  70.2081129
  27.5345609  27.0219089  70.3586694  27.6743802  25.5302129  70.1414731
  28.8315974  29.3441595  72.2903882  29.0082602  30.2659559  72.1024866
  29.6272807  29.0300014  72.7198262  32.9726992  16.2049859  83.8887816
  33.7136706  16.8057012  83.8092278  33.2044915  15.4627497  83.3305858
  28.1168330  21.3906226  82.1666045  28.0021845  20.4891484  82.4673144
  27.2612848  21.6369923  81.8150862  35.1960168  29.3323967  83.7653546
  34.7524022  28.5460345  83.4474451  35.8577381  29.5203117  83.0997437
  29.9547289  30.8619768  78.2914225  30.5054714  30.7336832  77.5191219
  29.1158765  31.1614657  77.9409117  37.2941406  29.6126767  81.7934947
  37.2759881  30.4335648  81.3015216  38.2161326  29.4880842  82.0185088
  33.7514460  27.1270896  82.6358456  34.2842797  26.3659184  82.4057764
  33.2228541  26.8344548  83.3782610  36.9184155  12.2330962  78.1652097
  36.5748424  13.1232604  78.0891208  37.2863118  12.0432620  77.3021682
  24.9870006  24.5564493  70.9840700  25.8245228  24.9661501  70.7674407
  25.1648273  23.6163935  70.9540893  36.8834438  22.2239573  66.6724533
  36.3681061  22.9944178  66.9112920  36.6111746  21.5504709  67.2957594
  34.4681549  17.0689274  71.7309771  33.6123145  16.6796124  71.5515410
  34.8808501  17.1481235  70.8709556  35.9980695  14.6035617  76.1301331
  35.4945491  14.5665752  75.3169136  36.2911302  15.5128360  76.1897987
  32.2423581  14.6874347  75.1367512  33.1076578  14.4917156  74.7773402
  32.3101090  14.4584699  76.0636869  41.8568712  24.9771928  68.6077706
  41.0798155  24.6383087  68.1632868  42.5360193  24.9824551  67.9332671
  36.6720741  20.0966665  68.4984314  36.3670877  20.4112815  69.3494457
  37.6251183  20.1748085  68.5411647  35.1167173  26.2556889  70.1477268
  34.5888534  25.5209648  69.8350505  34.6154676  27.0331565  69.9017236
  40.0960019  24.4505909  75.2644314  39.4383693  25.1405171  75.3524443
  40.9000418  24.8402341  75.6078300  29.8485900  16.9176555  72.5083879
  30.4229652  16.6951736  71.7757072  30.4356883  16.9865249  73.2612481
  38.9065478  22.8050282  73.3148256  39.4197359  23.4380274  73.8169965
  39.5566702  22.2051477  72.9491616  30.1755488  18.9481016  66.5279764
  29.3392800  19.2855703  66.8489039  30.0360257  18.8129996  65.5906901
  32.1508568  13.7917804  71.2358949  31.4972980  13.4766821  70.6115563
  32.1089042  13.1693544  71.9618772  33.2619773  24.0737099  63.1512241
  32.3546835  23.8426352  63.3503390  33.7590805  23.2774718  63.3386222
  36.1687852  32.7834606  66.0708927  35.4949551  33.0866303  66.6793885
  36.5553674  33.5863686  65.7214384  35.3846309  20.2799737  75.5606596
  34.4668870  20.5014684  75.4028284  35.8006452  20.3546048  74.7018304
  36.1681356  21.6791153  70.6909277  36.9153175  22.1912550  70.3816399
  36.4372946  21.3575206  71.5513670  34.4408006  24.1749694  67.6736231
  33.5319226  23.8908727  67.7708701  34.4703090  24.5948772  66.8139538
  39.6727274  27.7856283  71.4427398  39.2189601  26.9447193  71.4992589
  39.0421241  28.4217682  71.7802179  38.6160193  18.7148269  72.6728066
  37.8782950  18.2025656  73.0038308  38.8686967  18.2748651  71.8611343
  38.1160213  29.6232780  72.3777217  38.4083187  30.1837837  71.6589582
  38.6258834  29.9161341  73.1330376  38.7171821  11.4924521  73.2669835
  39.0230698  10.6321885  72.9795750  39.4424426  12.0842142  73.0668829
  25.0096177  21.8955208  71.6551433  24.8120577  21.3024569  70.9302500
  24.4542841  21.5907418  72.3727372  32.9892900  21.7878314  73.7746026
  33.0441510  20.8352151  73.6988503  32.1784103  21.9437753  74.2587325
  34.1384094  25.7158437  65.0124309  33.7003524  24.9994296  64.5529947
  34.8794535  25.9434552  64.4509401  30.9285260  20.4055374  71.5336405
  30.1153126  20.7049545  71.9401597  31.4244255  20.0111063  72.2510887
  33.0793838  30.4013131  73.4670670  33.0370017  30.6273977  72.5379202
  33.9956537  30.1676506  73.6156471  36.5259472  20.8697199  80.3651299
  36.8808860  21.0968672  81.2245765  37.1731603  21.2015575  79.7428554
  42.2557209  23.9915634  71.0700628  42.1175108  24.1817230  70.1421817
  41.8993428  24.7535017  71.5268679  30.4199335  17.9773730  77.1497640
  31.0598714  17.8362489  76.4520603  29.5876866  17.6908243  76.7736242
  42.2826589  26.0592162  76.0811899  42.7163095  25.9667451  76.9294954
  42.9958169  26.0349662  75.4431915  31.1959639  27.2776160  73.2632632
  31.9900238  26.7826480  73.0615207  30.4851331  26.7494023  72.9000338
  36.0154484  29.6594256  77.6145000  36.0691506  30.2285192  78.3822716
  35.1469265  29.8296141  77.2499037  27.5042403  21.4219242  69.3392385
  26.5739991  21.3603697  69.5562347  27.5999875  20.8995195  68.5429026
  27.4227952  17.9474055  71.9270627  27.6834769  18.8619388  71.8179787
  28.2445124  17.4798497  72.0767240  28.8952877  19.3611812  79.0969451
  29.5675930  19.1529174  78.4482100  28.0682663  19.1633898  78.6574684
  43.1442138  26.1015862  78.6144785  43.3378028  27.0061673  78.8604060
  43.0442756  25.6423281  79.4483370  34.7978449  15.9873753  81.1135112
  34.1506364  16.6863702  81.0199589  35.5679464  16.4209897  81.4811360
  38.2057247  26.2522605  84.1885665  38.0542753  26.0233157  83.2715749
  38.1961926  27.2093206  84.2017011  34.9742583  23.8254518  79.1731932
  35.9034643  23.9765677  79.0000899  34.5533613  23.9138538  78.3180578
  33.7730915  27.8505182  76.9430470  33.6342001  27.4823966  77.8156408
  32.9845511  28.3652821  76.7714427  34.3679067  32.9514279  68.2856006
  34.5430823  32.4802322  69.1001629  33.6811855  33.5780045  68.5137267
  35.3236130  27.2286785  74.3319307  34.9885963  27.1887555  75.2276957
  34.8240076  26.5631501  73.8589718  29.2980374  22.6354415  79.8571888
  29.1600172  21.9034654  80.4583428  30.2085298  22.5463315  79.5756076
  38.2595322  24.5742819  64.6056367  37.6424493  23.8489647  64.5089420
  37.7911810  25.3352179  64.2623441  31.9262675  22.3474374  79.3455568
  32.6362293  21.7067566  79.3042187  31.8831983  22.5987269  80.2681749
  39.9149454  29.2841727  82.2662147  39.8562000  28.6000948  81.5992730
  40.3168972  30.0260717  81.8142773  30.6391609  19.3339592  81.1651208
  30.1028966  18.8830330  81.8172804  30.0508317  19.4685501  80.4221672
  28.9340152  36.1003641  75.0595866  29.1736751  36.7322165  75.7374885
  28.0909349  35.7491681  75.3461226  30.0493868  18.7928243  63.7277671
  29.1723334  18.6717044  63.3639918  30.5251621  18.0014322  63.4756560
  39.9166861  27.2481311  80.4976127  39.0293640  26.9107233  80.6202526
  40.4865412  26.5164343  80.7344892  21.5696008  23.5805403  73.8219178
  22.2567048  23.2667133  73.2340194  21.4144137  24.4846768  73.5486430
  26.3730730  18.4695600  78.2504202  26.2888919  17.8621269  77.5154612
  25.5513436  18.9604618  78.2513698  33.4468014  31.9082764  77.4637370
  33.3738186  32.7137735  77.9756675  33.0045407  32.1074730  76.6385392
  33.2357794  31.1454534  70.9740192  32.4525316  31.6876214  71.0678416
  33.9350539  31.6628513  71.3734433  36.5454444  16.9549163  73.6174397
  37.0423143  16.2019126  73.2975467  35.7741425  16.9913480  73.0517606
  44.3984201  22.6589529  75.2592689  44.3874078  23.5414244  74.8886622
  43.5301581  22.3061080  75.0647226  35.9066698  31.8069598  79.6195529
  36.6194670  32.4417063  79.5471430  35.4156726  31.9033464  78.8035531
  37.6284225  25.7120850  71.1912821  36.6940503  25.8322313  71.0217525
  37.8060893  24.8093317  70.9272830  33.1289413  19.0966546  73.3446082
  32.7587200  18.5437587  74.0326987  33.6248505  18.4924680  72.7921082
  41.0156776  21.5538170  71.7262855  41.4817228  22.3866161  71.6523157
  41.4664276  21.0883151  72.4308113  30.9578611  29.5564041  80.4401100
  31.6588071  30.1900524  80.5930494  30.4873726  29.8978773  79.6796739
  39.0833007  27.8981991  68.7249007  39.3592851  27.7838586  69.6342881
  38.2137506  27.4999476  68.6861180  38.9873439  13.9218757  75.7653756
  38.0736519  14.1522984  75.9335963  39.4166540  14.0057201  76.6167788
  38.7579897  22.1108649  78.2653650  38.1051347  22.3584556  77.6106103
  39.1360277  21.2972787  77.9316127  35.7187071  32.1468342  72.3681820
  35.9009466  31.3289998  72.8309573  36.5420057  32.3636034  71.9306710
  36.0529237  31.0736527  69.6296869  36.5817003  30.5628982  69.0167031
  36.3157456  30.7579057  70.4942402  34.8067470  22.8528460  84.7519687
  34.1308107  22.7522589  85.4222062  35.6295104  22.6967673  85.2155684
  26.5546329  29.0900396  77.3732202  27.1399766  28.3444084  77.5060107
  26.3571168  29.4004353  78.2568866  29.4084985  32.1251644  72.3894645
  28.7395360  32.6097771  71.9058685  29.2697854  32.3720864  73.3038023
  21.1463984  21.6605996  76.0936646  21.1848084  21.1269587  76.8873764
  20.6404277  21.1341202  75.4747623  33.5490253  34.1595387  78.9877303
  34.1008561  34.3227009  79.7526388  33.8896447  34.7499825  78.3157328
  28.5254746  16.5070537  79.5899188  28.5896073  17.3685368  79.1776586
  28.4621867  15.8944539  78.8571546  28.0007019  18.5793670  83.2372222
  28.6279058  18.1970747  83.8509746  27.1434938  18.3607871  83.6027915
  38.4001127  28.9856645  84.8425958  38.9441031  29.5986603  84.3480912
  37.8187972  29.5436223  85.3592971  24.7772562  20.3870099  69.1690577
  25.0726003  19.4780777  69.1157631  23.8760597  20.3657838  68.8471579
  36.6858640  32.1077363  75.9740985  36.5609780  31.3067103  75.4651931
  37.3437732  32.6023556  75.4854955  28.3066809  18.4626095  75.1518126
  27.5853394  19.0762063  75.0125599  29.0960064  18.9983860  75.0734771
  38.7493549  29.9086383  77.6020535  37.8023884  29.7891734  77.5298862
  39.0976322  29.0208881  77.6846797  31.1093122  15.7980522  81.4258777
  31.6327524  16.0442818  82.1885087  30.8905455  16.6300557  81.0061915
  26.5060403  18.0684196  69.2929902  26.1773109  17.1881575  69.1105008
  26.8599774  18.0131865  70.1806291  35.7539982  29.7039099  73.8024888
  35.6064945  28.7755806  73.9832458  36.5793476  29.7259190  73.3181963
  29.6202226  18.3557166  69.6605380  29.9598299  18.8843087  68.9383988
  30.0674347  18.6937572  70.4363946  39.3574104  30.5267658  74.8889760
  40.2820651  30.3210519  74.7514212  39.1889407  30.2784059  75.7979102
  32.3145667  16.7394217  79.1108448  31.9742488  15.9402030  79.5129128
  31.6084673  17.0395928  78.5385281  32.9662139  13.8243529  77.5635771
  33.7888208  13.3504007  77.4414661  33.2100203  14.6034013  78.0634457
  31.6070374  16.8531788  67.8598673  32.3278736  17.2313040  67.3562389
  30.9835678  17.5720665  67.9633650  35.7501496  17.5576937  68.7957005
  35.9665111  18.4401575  68.4945833  35.2695564  17.1663150  68.0662647
  30.4900718  20.5162650  75.3727749  30.3445298  20.8302953  76.2652031
  30.0125921  21.1347550  74.8198648  32.3497101  17.5065198  75.4208639
  32.3358669  16.6106291  75.0840937  33.0669529  17.5135862  76.0546925
  34.2023231  17.9402538  77.4661766  33.9441009  18.8619609  77.4646097
  33.6708272  17.5432973  78.1562231  39.1469420  31.0453325  70.2451852
  39.3206298  30.4799748  69.4925704  39.6398311  31.8454220  70.0631342
  24.9646380  23.0567994  78.3115411  24.4199848  23.8327802  78.4435685
  25.8425730  23.4038799  78.1534532  31.7533997  16.3879578  70.6896209
  31.8749908  15.4596224  70.8887097  31.4636039  16.4018264  69.7774525
  34.6225187  14.0734489  73.8262929  34.6446884  14.1373822  72.8714909
  35.0393246  13.2338997  74.0203435  45.0008811  23.8089748  71.8642152
  45.4439957  23.0597073  71.4661275  44.1235322  23.7999885  71.4815884
  40.1344593  30.3620090  67.3448750  40.8295497  30.9826782  67.5636065
  40.4767743  29.5115441  67.6201128  25.7512402  22.1837891  81.2045567
  25.0094138  22.3320526  81.7910198  25.4305146  22.4446156  80.3412317
  42.0336016  27.8119795  68.8736081  42.5587340  28.1507068  68.1485401
  41.9458368  26.8766810  68.6899215  33.6956064  31.7253869  81.0025958
  34.0043191  31.4803016  81.8748657  34.4931546  31.9300507  80.5144828
  33.7176676  33.8791778  73.2331334  33.2781667  33.3868157  73.9264191
  34.4684793  33.3364746  72.9923409  26.1969015  30.0703319  73.2355962
  27.0227035  29.7707091  72.8554606  25.8463067  29.3010942  73.6845751
  31.1650549  29.4229788  75.3053636  30.5430558  28.7600493  75.0055864
  31.8355416  29.4490919  74.6227284  24.3977621  27.9889646  74.1944896
  23.5609529  27.5611820  74.0128897  24.3701266  28.1822089  75.1315687
  31.2375076  17.9011576  84.8986142  31.2863232  18.7773698  84.5163911
  31.7797590  17.3588969  84.3257785  41.7229922  28.4452699  84.1787279
  40.9325466  28.4276838  83.6391778  41.4863276  28.9840992  84.9336315
  41.8427797  25.2945165  81.4920007  41.8925802  25.1295173  82.4335530
  41.7341720  24.4272424  81.1017888  30.7264056  27.9733711  68.7812096
  30.8752176  28.6569175  68.1278769  31.5330499  27.9538801  69.2961552
  39.1331559  21.2776093  82.8079314  40.0341422  21.1382558  82.5163312
  39.2079534  21.4430548  83.7477492  33.4674365  18.6542948  81.6532500
  32.5977674  18.9476514  81.3815089  33.7033845  19.2383393  82.3739764
  43.3445994  27.7142107  81.7362029  43.0530802  28.0772087  82.5725490
  42.7318125  27.0009115  81.5575361  44.5441676  25.2794986  74.2564599
  45.3788567  25.7184791  74.4202159  44.6800805  24.8033640  73.4372845
  41.5933182  22.8374721  80.2042087  42.0687304  23.0302368  79.3960938
  40.6698747  22.8933907  79.9585471  28.4816689  23.9998888  69.7873165
  28.2362730  23.0961218  69.9853375  28.6512603  24.0016039  68.8452643
  36.1713398  14.8722565  79.1697921  36.6895342  15.6083592  78.8444409
  35.8168531  15.1786558  80.0044680  27.7512336  19.7327246  67.2859327
  27.0581581  19.8071601  66.6299363  27.5064088  18.9687590  67.8080844
  36.4225993  11.2922847  74.6898817  36.7027746  10.6246036  75.3159244
  37.2076600  11.4851943  74.1773481  34.2259461  30.4681841  66.2523844
  33.6533428  31.0872028  65.7994316  34.7992255  31.0181203  66.7863766
  40.2934851  19.7140481  78.4370392  41.2452274  19.8138579  78.4582617
  40.1238301  18.9218750  78.9468477  38.3149230  16.7996065  78.6229793
  37.7199163  17.0801077  77.9276282  38.0298927  17.2889966  79.3946535
  37.4456721  30.7518991  67.3832426  38.3787394  30.6864553  67.5865301
  37.3579934  31.5875258  66.9246959  40.0744738  30.0684862  64.3436374
  39.9958369  29.7344725  65.2372131  40.8954404  30.5606630  64.3427846
  42.7722929  22.9346601  77.5512692  42.7399249  21.9962602  77.7372376
  43.3823552  23.0130638  76.8178517  34.6106260  21.8042654  63.5939896
  35.5565364  21.6748862  63.6628314  34.2320505  21.0657316  64.0709324
  42.9217417  19.7257645  77.5970975  42.4056466  18.9416101  77.4100904
  43.8057366  19.3976361  77.7617495  40.5828144  13.4698660  73.5566788
  40.3852965  13.1613748  74.4410120  41.1927850  14.1960299  73.6864718
  48.5899479  23.9962608  76.6918729  49.3202867  23.7347896  77.2526432
  47.9806424  23.2591330  76.7320797  46.6714776  22.1370470  77.2893180
  45.9447939  22.0026435  76.6809672  46.2562063  22.4447299  78.0949898
  34.4944952  25.8560400  85.0540553  35.4147962  26.0338999  85.2480600
  34.4594535  24.9116446  84.9020252  32.7949177  19.7292630  63.5294781
  31.8880632  19.4325743  63.6057495  33.0725158  19.4322449  62.6629068
  23.7127117  21.0498994  73.9793828  23.3929901  20.1964302  73.6868202
  23.1660545  21.2647572  74.7351795  27.4907025  23.7661435  77.6963334
  27.7093034  24.6978543  77.7151368  27.9032798  23.4069409  78.4818138
  34.4111242  14.2729520  69.6839023  33.6011971  13.9276605  70.0594269
  35.0995659  13.9637064  70.2726634  36.3401791  13.3507567  71.3063319
  36.8932829  13.7703020  71.9653342  36.5771877  12.4243315  71.3486275
  32.3634890  19.3394641  87.0866083  32.2631617  20.2888998  87.0178174
  32.1456432  19.0112880  86.2142153  31.5647961  16.5879566  63.6706761
  32.4267125  16.9134464  63.9302578  31.7498306  15.8011062  63.1579826
  23.5815377  24.6701905  75.9486949  22.8878849  24.2555858  75.4356904
  24.3288368  24.7122442  75.3520368  39.7180598  15.4608092  70.8141984
  39.1379267  16.1192896  70.4320036  39.4516531  14.6385437  70.4029401
  38.1684164  14.8613150  73.0163304  38.6683943  14.9729684  72.2077623
  38.8119772  14.5574203  73.6564112  32.2266160  22.7691779  85.9031145
  31.7433242  23.5692140  86.1095034  32.3127099  22.7799724  84.9498589
  25.4952120  24.6020159  73.8252964  25.4722808  24.7007846  72.8734847
  25.8052756  25.4485310  74.1470130  28.1539498  26.6596314  77.9399579
  29.1082751  26.6280256  77.8729510  27.9552021  26.1986938  78.7549805
  28.7438880  25.2297430  80.5070376  29.5631769  25.7241509  80.5305214
  29.0175687  24.3129398  80.4787944  38.5005476  17.6208182  69.8698332
  37.6131331  17.9057833  69.6518527  38.9159465  17.4601946  69.0225609
  41.8520012  17.6454703  73.5852671  42.6280402  18.1351156  73.8577288
  41.1268146  18.0712758  74.0424541  44.2892571  18.3582323  74.6426612
  44.8837061  18.1178059  73.9319920  44.3619154  17.6389453  75.2700148
  26.5089726  32.2015934  74.9569777  26.3744194  31.4416335  74.3907775
  26.0921789  32.9256833  74.4898565  37.6448689  27.3852857  63.9646352
  38.3484539  27.5902860  64.5804007  36.9211338  27.9529619  64.2295435
  38.4746500  23.1362718  70.0848622  38.4181701  23.5931270  69.2456254
  39.0274842  22.3753403  69.9071465  42.2851306  18.9252450  70.9098742
  42.0288240  18.5249086  71.7406949  41.6604174  19.6396244  70.7848881
  46.5963643  21.6648524  73.4170033  46.0363201  21.7341713  74.1901595
  45.9907147  21.4889508  72.6969529  29.6658852  33.0985251  75.1688219
  29.5491236  34.0430683  75.0666909  28.8451298  32.7958812  75.5574018
  39.5535387  27.8235386  66.0144812  40.3880991  27.3916585  65.8322287
  39.3919730  27.6517400  66.9421706  39.2081279  24.3267500  67.3801151
  39.1530083  24.1611771  66.4389595  38.5827334  25.0343533  67.5363341
  23.9973794  19.5635564  81.2062573  24.6432657  19.0534518  81.6949799
  23.7890945  20.3004246  81.7805999  36.5227186  26.6316412  86.7054714
  37.3918346  26.8057064  86.3441349  36.0433938  27.4510828  86.5830443
  32.5177404  13.8275609  66.9586470  32.5056074  14.7717449  67.1154740
  33.4100826  13.6445754  66.6645931  30.6913366  33.7513513  78.3844148
  31.5940613  33.7837123  78.7010643  30.4650736  32.8213963  78.3990483
  32.4466968  32.5044499  75.0454226  31.4962599  32.5046361  74.9318599
  32.7499454  31.7577234  74.5290261  36.3329524  10.4218385  71.2132406
  35.5661920   9.8676872  71.3589089  36.7440229  10.4940254  72.0746558
  28.3371285  16.7103181  85.3037588  29.2002746  16.3539986  85.5140912
  27.7636696  16.3717076  85.9912992  48.1819662  38.3405037  76.1099989
  48.8198072  38.2211785  75.4063329  48.0640505  39.2885881  76.1687941
  44.9909368  38.2932466  76.0461513  44.6527880  38.1773530  75.1582048
  45.8599136  37.8923631  76.0262519  45.4729151  39.4467317  82.0047719
  45.4617792  39.0520116  81.1328223  45.6349791  38.7133390  82.5981490
  42.1936412  42.2304429  80.9526903  41.9026278  43.1350060  80.8373569
  42.8293397  42.2720957  81.6670972  43.1192619  39.6081278  77.5428263
  43.7156191  39.3837300  76.8285225  43.1767591  38.8666023  78.1453710
  42.6917647  37.0620713  65.3778453  42.9443168  36.5402234  64.6161916
  41.7542207  36.8986858  65.4805137  47.7360930  36.0656491  73.1853197
  48.5224020  35.6475914  72.8343614  47.9999635  36.9702584  73.3534845
  53.1369357  36.0031725  74.0886175  53.8694529  35.4330941  74.3224005
  52.3808713  35.6153325  74.5292681  50.6594778  29.7153299  78.5480784
  50.3278103  30.5848710  78.3241999  50.0640391  29.3989583  79.2274814
  44.3950964  33.4548866  66.2810866  44.5625366  34.3229102  66.6481337
  44.2048133  33.6176147  65.3572155  47.1526297  41.9165845  77.9476697
  46.8527020  42.8190883  77.8392504  46.8077357  41.6498028  78.7997849
  40.6038779  38.3679641  73.9813401  39.6789275  38.2355856  74.1891093
  40.8523192  39.1473861  74.4783343  50.5523441  34.4348385  75.6274134
  49.6440318  34.3663793  75.3332895  50.5011037  34.9120330  76.4555959
  44.3740185  35.9106523  67.2657533  44.2539810  36.3563574  68.1043013
  43.6792773  36.2591841  66.7071071  37.9647590  38.0112915  74.8157190
  38.0939971  38.2647394  75.7296602  37.2845041  38.6040623  74.4961845
  44.6264307  35.8538030  83.5709031  43.8497641  36.4131951  83.5611896
  45.2654870  36.3394813  84.0923901  52.4185088  32.6364823  77.4052008
  51.7759468  32.9297356  76.7591802  51.9140016  32.5217744  78.2105204
  50.0725251  36.3827996  68.0937867  50.9843107  36.6155383  67.9185565
  49.5634898  36.9665041  67.5312946  42.8810679  38.6623484  83.1326998
  43.6225364  39.2008528  82.8561822  42.1747665  39.2889773  83.2898550
  48.3566019  40.8052624  81.7299160  48.7649375  40.3635035  80.9853792
  47.6343280  40.2305252  81.9833353  44.7097089  35.7425231  79.1032717
  45.5558284  36.1664645  79.2467366  44.6495727  35.0858855  79.7971280
  47.8596534  33.4029599  80.7613890  47.6157466  34.1571660  80.2248166
  48.1356465  33.7814947  81.5961137  49.8134997  39.9468212  79.4391156
  50.0251892  40.5899972  78.7625537  49.7664745  39.1130528  78.9713086
  47.4161226  32.5586032  76.3427728  46.5545705  32.8567286  76.6344466
  47.4423661  32.7756431  75.4108761  41.1246876  40.6499704  75.6881297
  41.6948233  41.0786973  75.0498781  41.7154988  40.3682289  76.3865483
  43.1691681  37.2251375  69.5591099  43.8715725  37.6772419  70.0265025
  42.8372310  36.5835194  70.1870992  41.6172043  35.8163132  83.9342308
  40.9870704  36.4979413  84.1677705  41.5108131  35.7046214  82.9895446
  36.9117015  35.4834928  74.8608232  36.1216069  35.7392457  74.3848343
  37.4028263  36.2983266  74.9660273  50.9280825  42.8240167  77.6113513
  51.7498269  42.4220354  77.3296195  50.9243228  42.7208401  78.5629629
  38.8631761  35.8479507  71.8191709  38.0662924  35.9598201  72.3375205
  38.6357353  36.1866159  70.9532600  44.6937428  42.3724210  79.7674224
  44.7581861  42.8344618  80.6032395  43.9848352  41.7421575  79.8956533
  35.1954718  35.7365418  77.2923223  35.4462757  36.6212428  77.5580799
  35.7314267  35.5570020  76.5198315  59.0186818  39.1678916  73.9598485
  58.2650526  38.5986314  73.8042489  59.1534359  39.1341580  74.9069119
  40.8952786  30.1183898  86.2967559  40.5019731  29.5650096  86.9715203
  41.7118926  30.4294476  86.6874077  43.8120747  31.5341777  83.8887816
  44.5530460  32.1348930  83.8092278  44.0438669  30.7919415  83.3305858
  38.9562085  36.7198144  82.1666045  38.8415600  35.8183401  82.4673144
  38.1006602  36.9661841  81.8150862  46.0353922  44.6615884  83.7653546
  45.5917777  43.8752263  83.4474451  46.6971136  44.8495035  83.0997437
  48.1335160  44.9418684  81.7934947  48.1153636  45.7627565  81.3015216
  49.0555081  44.8172760  82.0185088  44.5908215  42.4562814  82.6358456
  45.1236551  41.6951102  82.4057764  44.0622296  42.1636466  83.3782610
  47.7577910  27.5622880  78.1652097  47.4142179  28.4524521  78.0891208
  48.1256872  27.3724537  77.3021682  47.7228192  37.5531491  66.6724533
  47.2074816  38.3236096  66.9112920  47.4505501  36.8796627  67.2957594
  45.3075303  32.3981192  71.7309771  44.4516900  32.0088042  71.5515410
  45.7202255  32.4773153  70.8709556  46.8374450  29.9327535  76.1301331
  46.3339246  29.8957670  75.3169136  47.1305057  30.8420278  76.1897987
  43.0817336  30.0166265  75.1367512  43.9470333  29.8209073  74.7773402
  43.1494845  29.7876616  76.0636869  47.5114495  35.4258583  68.4984314
  47.2064631  35.7404732  69.3494457  48.4644938  35.5040003  68.5411647
  50.9353773  39.7797827  75.2644314  50.2777448  40.4697088  75.3524443
  51.7394173  40.1694259  75.6078300  40.6879655  32.2468473  72.5083879
  41.2623407  32.0243654  71.7757072  41.2750637  32.3157167  73.2612481
  49.7459232  38.1342200  73.3148256  50.2591114  38.7672191  73.8169965
  50.3960456  37.5343395  72.9491616  41.0149242  34.2772934  66.5279764
  40.1786554  34.6147620  66.8489039  40.8754012  34.1421913  65.5906901
  42.9902323  29.1209722  71.2358949  42.3366735  28.8058739  70.6115563
  42.9482797  28.4985462  71.9618772  44.1013528  39.4029017  63.1512241
  43.1940589  39.1718270  63.3503390  44.5984559  38.6066636  63.3386222
  46.2240063  35.6091655  75.5606596  45.3062624  35.8306602  75.4028284
  46.6400207  35.6837966  74.7018304  47.0075111  37.0083071  70.6909277
  47.7546930  37.5204468  70.3816399  47.2766700  36.6867123  71.5513670
  49.4553948  34.0440187  72.6728066  48.7176705  33.5317573  73.0038308
  49.7080721  33.6040569  71.8611343  49.5565575  26.8216439  73.2669835
  49.8624452  25.9613802  72.9795750  50.2818180  27.4134059  73.0668829
  35.8489931  37.2247126  71.6551433  35.6514331  36.6316486  70.9302500
  35.2936595  36.9199336  72.3727372  43.8286655  37.1170232  73.7746026
  43.8835265  36.1644068  73.6988503  43.0177857  37.2729671  74.2587325
  41.7679015  35.7347292  71.5336405  40.9546880  36.0341462  71.9401597
  42.2638009  35.3402981  72.2510887  47.3653227  36.1989116  80.3651299
  47.7202614  36.4260589  81.2245765  48.0125358  36.5307493  79.7428554
  53.0950964  39.3207552  71.0700628  52.9568862  39.5109148  70.1421817
  52.7387182  40.0826935  71.5268679  41.2593090  33.3065647  77.1497640
  41.8992469  33.1654406  76.4520603  40.4270620  33.0200161  76.7736242
  53.1220343  41.3884079  76.0811899  53.5556850  41.2959368  76.9294954
  53.8351924  41.3641580  75.4431915  46.8548238  44.9886173  77.6145000
  46.9085260  45.5577110  78.3822716  45.9863019  45.1588058  77.2499037
  38.3436157  36.7511159  69.3392385  37.4133745  36.6895615  69.5562347
  38.4393629  36.2287112  68.5429026  38.2621706  33.2765972  71.9270627
  38.5228523  34.1911306  71.8179787  39.0838878  32.8090415  72.0767240
  39.7346631  34.6903729  79.0969451  40.4069685  34.4821092  78.4482100
  38.9076418  34.4925815  78.6574684  53.9835893  41.4307780  78.6144785
  54.1771783  42.3353590  78.8604060  53.8836511  40.9715199  79.4483370
  45.6372203  31.3165670  81.1135112  44.9900118  32.0155620  81.0199589
  46.4073219  31.7501814  81.4811360  49.0451001  41.5814523  84.1885665
  48.8936508  41.3525074  83.2715749  49.0355681  42.5385124  84.2017011
  45.8136338  39.1546435  79.1731932  46.7428398  39.3057595  79.0000899
  45.3927368  39.2430456  78.3180578  44.6124670  43.1797100  76.9430470
  44.4735755  42.8115884  77.8156408  43.8239266  43.6944739  76.7714427
  40.1374129  37.9646332  79.8571888  39.9993927  37.2326571  80.4583428
  41.0479052  37.8755233  79.5756076  42.7656429  37.6766292  79.3455568
  43.4756048  37.0359484  79.3042187  42.7225738  37.9279187  80.2681749
  50.7543208  44.6133645  82.2662147  50.6955754  43.9292865  81.5992730
  51.1562726  45.3552635  81.8142773  41.4785363  34.6631510  81.1651208
  40.9422720  34.2122248  81.8172804  40.8902072  34.7977419  80.4221672
  40.8887622  34.1220161  63.7277671  40.0117089  34.0008962  63.3639918
  41.3645375  33.3306239  63.4756560  50.7560615  42.5773229  80.4976127
  49.8687394  42.2399151  80.6202526  51.3259166  41.8456260  80.7344892
  32.4089762  38.9097321  73.8219178  33.0960802  38.5959051  73.2340194
  32.2537891  39.8138685  73.5486430  37.2124485  33.7987517  78.2504202
  37.1282673  33.1913187  77.5154612  36.3907191  34.2896536  78.2513698
  47.3848198  32.2841081  73.6174397  47.8816898  31.5311043  73.2975467
  46.6135180  32.3205398  73.0517606  55.2377956  37.9881446  75.2592689
  55.2267832  38.8706162  74.8886622  54.3695335  37.6352997  75.0647226
  46.7460452  47.1361515  79.6195529  47.4588424  47.7708980  79.5471430
  46.2550481  47.2325381  78.8035531  43.9683167  34.4258464  73.3446082
  43.5980955  33.8729504  74.0326987  44.4642260  33.8216597  72.7921082
  51.8550530  36.8830087  71.7262855  52.3210983  37.7158079  71.6523157
  52.3058031  36.4175069  72.4308113  41.7972366  44.8855959  80.4401100
  42.4981825  45.5192442  80.5930494  41.3267481  45.2270690  79.6796739
  49.8267193  29.2510674  75.7653756  48.9130273  29.4814901  75.9335963
  50.2560295  29.3349118  76.6167788  49.5973652  37.4400566  78.2653650
  48.9445102  37.6876474  77.6106103  49.9754032  36.6264705  77.9316127
  45.6461225  38.1820377  84.7519687  44.9701862  38.0814507  85.4222062
  46.4688859  38.0259591  85.2155684  37.3940084  44.4192314  77.3732202
  37.9793521  43.6736002  77.5060107  37.1964922  44.7296271  78.2568866
  31.9857739  36.9897914  76.0936646  32.0241838  36.4561505  76.8873764
  31.4798031  36.4633120  75.4747623  39.3648501  31.8362455  79.5899188
  39.4289827  32.6977286  79.1776586  39.3015621  31.2236456  78.8571546
  38.8400773  33.9085587  83.2372222  39.4672812  33.5262665  83.8509746
  37.9828692  33.6899789  83.6027915  49.2394882  44.3148562  84.8425958
  49.7834786  44.9278521  84.3480912  48.6581727  44.8728141  85.3592971
  35.6166316  35.7162016  69.1690577  35.9119757  34.8072695  69.1157631
  34.7154352  35.6949756  68.8471579  39.1460563  33.7918013  75.1518126
  38.4247149  34.4053981  75.0125599  39.9353819  34.3275778  75.0734771
  49.5887303  45.2378300  77.6020535  48.6417639  45.1183652  77.5298862
  49.9370076  44.3500799  77.6846797  41.9486877  31.1272439  81.4258777
  42.4721278  31.3734736  82.1885087  41.7299210  31.9592474  81.0061915
  37.3454158  33.3976114  69.2929902  37.0166864  32.5173493  69.1105008
  37.6993528  33.3423783  70.1806291  40.4595981  33.6849084  69.6605380
  40.7992053  34.2135005  68.9383988  40.9068101  34.0229490  70.4363946
  43.1539422  32.0686135  79.1108448  42.8136242  31.2693948  79.5129128
  42.4478428  32.3687845  78.5385281  43.8055893  29.1535447  77.5635771
  44.6281963  28.6795925  77.4414661  44.0493957  29.9325931  78.0634457
  42.4464128  32.1823705  67.8598673  43.1672490  32.5604958  67.3562389
  41.8229432  32.9012582  67.9633650  46.5895251  32.8868854  68.7957005
  46.8058865  33.7693492  68.4945833  46.1089318  32.4955068  68.0662647
  41.3294472  35.8454568  75.3727749  41.1839053  36.1594871  76.2652031
  40.8519676  36.4639468  74.8198648  43.1890855  32.8357116  75.4208639
  43.1752424  31.9398209  75.0840937  43.9063283  32.8427779  76.0546925
  45.0416986  33.2694456  77.4661766  44.7834764  34.1911526  77.4646097
  44.5102026  32.8724890  78.1562231  35.8040134  38.3859912  78.3115411
  35.2593602  39.1619720  78.4435685  36.6819484  38.7330716  78.1534532
  42.5927751  31.7171496  70.6896209  42.7143662  30.7888142  70.8887097
  42.3029793  31.7310182  69.7774525  45.4618941  29.4026406  73.8262929
  45.4840638  29.4665739  72.8714909  45.8787000  28.5630915  74.0203435
  55.8402566  39.1381666  71.8642152  56.2833712  38.3888991  71.4661275
  54.9629076  39.1291802  71.4815884  36.5906156  37.5129808  81.2045567
  35.8487892  37.6612444  81.7910198  36.2698901  37.7738074  80.3412317
  44.5349819  47.0545786  81.0025958  44.8436945  46.8094933  81.8748657
  45.3325301  47.2592425  80.5144828  35.2371375  43.3181563  74.1944896
  34.4003283  42.8903738  74.0128897  35.2095020  43.5114007  75.1315687
  42.0768831  33.2303493  84.8986142  42.1256986  34.1065616  84.5163911
  42.6191345  32.6880886  84.3257785  52.5623676  43.7744616  84.1787279
  51.7719220  43.7568755  83.6391778  52.3257031  44.3132910  84.9336315
  52.6821551  40.6237083  81.4920007  52.7319556  40.4587090  82.4335530
  52.5735475  39.7564342  81.1017888  49.9725314  36.6068011  82.8079314
  50.8735176  36.4674476  82.5163312  50.0473288  36.7722466  83.7477492
  44.3068119  33.9834866  81.6532500  43.4371428  34.2768432  81.3815089
  44.5427599  34.5675311  82.3739764  52.4326936  38.1666639  80.2042087
  52.9081058  38.3594285  79.3960938  51.5092502  38.2225825  79.9585471
  47.0107153  30.2014483  79.1697921  47.5289097  30.9375509  78.8444409
  46.6562286  30.5078476  80.0044680  38.5906091  35.0619164  67.2859327
  37.8975335  35.1363519  66.6299363  38.3457842  34.2979507  67.8080844
  47.2619747  26.6214765  74.6898817  47.5421501  25.9537954  75.3159244
  48.0470354  26.8143861  74.1773481  51.1328605  35.0432399  78.4370392
  52.0846028  35.1430497  78.4582617  50.9632056  34.2510668  78.9468477
  49.1542985  32.1287982  78.6229793  48.5592917  32.4092995  77.9276282
  48.8692682  32.6181883  79.3946535  53.6116683  38.2638519  77.5512692
  53.5793003  37.3254519  77.7372376  54.2217307  38.3422555  76.8178517
  45.4500014  37.1334572  63.5939896  46.3959119  37.0040780  63.6628314
  45.0714259  36.3949234  64.0709324  53.7611172  35.0549562  77.5970975
  53.2450220  34.2708019  77.4100904  54.6451120  34.7268279  77.7617495
  51.4221899  28.7990578  73.5566788  51.2246720  28.4905666  74.4410120
  52.0321604  29.5252217  73.6864718  59.4293233  39.3254526  76.6918729
  60.1596622  39.0639814  77.2526432  58.8200179  38.5883248  76.7320797
  57.5108530  37.4662388  77.2893180  56.7841694  37.3318353  76.6809672
  57.0955817  37.7739217  78.0949898  45.3338707  41.1852318  85.0540553
  46.2541716  41.3630917  85.2480600  45.2988290  40.2408363  84.9020252
  43.6342931  35.0584548  63.5294781  42.7274387  34.7617661  63.6057495
  43.9118912  34.7614366  62.6629068  34.5520872  36.3790912  73.9793828
  34.2323656  35.5256220  73.6868202  34.0054300  36.5939490  74.7351795
  38.3300779  39.0953353  77.6963334  38.5486789  40.0270460  77.7151368
  38.7426553  38.7361327  78.4818138  45.2504997  29.6021438  69.6839023
  44.4405725  29.2568523  70.0594269  45.9389414  29.2928982  70.2726634
  47.1795545  28.6799485  71.3063319  47.7326584  29.0994938  71.9653342
  47.4165632  27.7535233  71.3486275  43.2028644  34.6686558  87.0866083
  43.1025371  35.6180915  87.0178174  42.9850187  34.3404797  86.2142153
  42.4041716  31.9171483  63.6706761  43.2660880  32.2426382  63.9302578
  42.5892060  31.1302979  63.1579826  34.4209132  39.9993823  75.9486949
  33.7272603  39.5847776  75.4356904  35.1682123  40.0414360  75.3520368
  50.5574352  30.7900010  70.8141984  49.9773021  31.4484814  70.4320036
  50.2910285  29.9677354  70.4029401  49.0077919  30.1905068  73.0163304
  49.5077697  30.3021602  72.2077623  49.6513527  29.8866120  73.6564112
  43.0659915  38.0983697  85.9031145  42.5826996  38.8984057  86.1095034
  43.1520854  38.1091642  84.9498589  36.3345874  39.9312077  73.8252964
  36.3116562  40.0299764  72.8734847  36.6446511  40.7777228  74.1470130
  38.9933252  41.9888232  77.9399579  39.9476506  41.9572174  77.8729510
  38.7945776  41.5278856  78.7549805  39.5832634  40.5589348  80.5070376
  40.4025523  41.0533427  80.5305214  39.8569442  39.6421316  80.4787944
  49.3399230  32.9500100  69.8698332  48.4525085  33.2349751  69.6518527
  49.7553219  32.7893864  69.0225609  52.6913766  32.9746621  73.5852671
  53.4674157  33.4643074  73.8577288  51.9661901  33.4004675  74.0424541
  55.1286325  33.6874240  74.6426612  55.7230816  33.4469976  73.9319920
  55.2012909  32.9681371  75.2700148  49.3140254  38.4654636  70.0848622
  49.2575455  38.9223188  69.2456254  49.8668597  37.7045321  69.9071465
  53.1245060  34.2544368  70.9098742  52.8681994  33.8541004  71.7406949
  52.4997928  34.9688162  70.7848881  57.4357398  36.9940441  73.4170033
  56.8756956  37.0633631  74.1901595  56.8300901  36.8181426  72.6969529
  34.8367548  34.8927482  81.2062573  35.4826412  34.3826436  81.6949799
  34.6284699  35.6296163  81.7805999  47.3620941  41.9608329  86.7054714
  48.2312100  42.1348982  86.3441349  46.8827692  42.7802746  86.5830443
  43.3571159  29.1567526  66.9586470  43.3449829  30.1009366  67.1154740
  44.2494581  28.9737672  66.6645931  47.1723278  25.7510303  71.2132406
  46.4055674  25.1968790  71.3589089  47.5833983  25.8232172  72.0746558
  39.1765039  32.0395099  85.3037588  40.0396501  31.6831904  85.5140912
  38.6030450  31.7008994  85.9912992  51.7346540  45.4475815  86.2967559
  51.3413486  44.8942014  86.9715203  52.5512680  45.7586394  86.6874077
  55.4301969  57.7854732  82.6358456  55.9630306  57.0243020  82.4057764
  54.9016050  57.4928383  83.3782610  58.5971664  42.8914797  78.1652097
  58.2535933  43.7816439  78.0891208  58.9650627  42.7016455  77.3021682
  60.3959330  42.1508357  73.2669835  60.7018207  41.2905720  72.9795750
  61.1211935  42.7425977  73.0668829  64.8229647  56.7599698  78.6144785
  65.0165537  57.6645508  78.8604060  64.7230265  56.3007117  79.4483370
  59.8844756  56.9106440  84.1885665  59.7330262  56.6816992  83.2715749
  59.8749435  57.8677042  84.2017011  61.5954370  57.9065147  80.4976127
  60.7081149  57.5691069  80.6202526  62.1652921  57.1748178  80.7344892
  52.6366120  60.2147877  80.4401100  53.3375580  60.8484360  80.5930494
  52.1661235  60.5562608  79.6796739  56.4854979  53.5112295  84.7519687
  55.8095616  53.4106424  85.4222062  57.3082613  53.3551509  85.2155684
  49.6794528  49.2377505  83.2372222  50.3066567  48.8554582  83.8509746
  48.8222447  49.0191707  83.6027915  52.9162585  48.5595411  84.8986142
  52.9650741  49.4357534  84.5163911  53.4585099  48.0172804  84.3257785
  63.4017431  59.1036534  84.1787279  62.6112974  59.0860673  83.6391778
  63.1650785  59.6424828  84.9336315  63.5215306  55.9529001  81.4920007
  63.5713311  55.7879008  82.4335530  63.4129229  55.0856260  81.1017888
  65.0233503  58.3725942  81.7362029  64.7318311  58.7355923  82.5725490
  64.4105634  57.6592950  81.5575361  70.2686988  54.6546443  76.6918729
  70.9990376  54.3931731  77.2526432  69.6593933  53.9175165  76.7320797
  56.1732461  56.5144236  85.0540553  57.0935471  56.6922835  85.2480600
  56.1382044  55.5700281  84.9020252  54.0422399  49.9978476  87.0866083
  53.9419126  50.9472833  87.0178174  53.8243941  49.6696715  86.2142153
  53.9053669  53.4275615  85.9031145  53.4220751  54.2275975  86.1095034
  53.9914608  53.4383560  84.9498589  58.2014695  57.2900247  86.7054714
  59.0705855  57.4640899  86.3441349  57.7221447  58.1094664  86.5830443
  50.0158794  47.3687016  85.3037588  50.8790255  47.0123821  85.5140912
  49.4424205  47.0300911  85.9912992  68.1083251  74.4722745  67.3472869
  67.4571231  75.0576825  66.9606883  68.9027614  75.0028940  67.4067907
  63.8134586  79.3394000  70.9147664  63.7358616  80.2901825  70.9936145
  63.2096230  78.9939873  71.5722591  74.2371574  72.9592088  72.8395812
  73.5522612  73.3390989  72.2892846  74.3215424  73.5687415  73.5727760
  71.4922506  70.6052047  79.4391156  71.7039401  71.2483807  78.7625537
  71.4452254  69.7714364  78.9713086  72.6068334  73.4824003  77.6113513
  73.4285778  73.0804190  77.3296195  72.6030737  73.3792237  78.5629629
  80.6974327  69.8262751  73.9598485  79.9438035  69.2570149  73.8042489
  80.8321868  69.7925415  74.9069119  66.0872955  74.6976153  69.6353204
  65.9518630  75.5427689  70.0638052  66.6282768  74.8995431  68.8719138
  69.4365419  58.2206715  78.1652097  69.0929688  59.1108357  78.0891208
  69.8044381  58.0308373  77.3021682  74.3749975  70.9647681  68.6077706
  73.5979418  70.6258840  68.1632868  75.0541456  70.9700304  67.9332671
  68.6869115  78.7710359  66.0708927  68.0130814  79.0742056  66.6793885
  69.0734937  79.5739439  65.7214384  72.1908537  73.7732036  71.4427398
  71.7370864  72.9322946  71.4992589  71.5602504  74.4093435  71.7802179
  70.6341477  75.6108533  72.3777217  70.9264451  76.1713590  71.6589582
  71.1440097  75.9037094  73.1330376  71.2353084  57.4800274  73.2669835
  71.5411961  56.6197638  72.9795750  71.9605689  58.0717895  73.0668829
  69.0440736  66.8572952  80.3651299  69.3990123  67.0844425  81.2245765
  69.6912867  67.1891328  79.7428554  74.7738473  69.9791388  71.0700628
  74.6356371  70.1692984  70.1421817  74.4174691  70.7410770  71.5268679
  74.8007852  72.0467915  76.0811899  75.2344359  71.9543204  76.9294954
  75.5139433  72.0225415  75.4431915  75.6623402  72.0891615  78.6144785
  75.8559292  72.9937426  78.8604060  75.5624020  71.6299034  79.4483370
  66.8860331  78.9390032  68.2856006  67.0612086  78.4678075  69.1001629
  66.1993119  79.5655798  68.5137267  65.7539057  77.1330287  70.9740192
  64.9706579  77.6751967  71.0678416  66.4531802  77.6504266  71.3734433
  76.9165465  68.6465282  75.2592689  76.9055341  69.5289997  74.8886622
  76.0482844  68.2936833  75.0647226  73.5338039  67.5413923  71.7262855
  73.9998492  68.3741914  71.6523157  73.9845540  67.0758904  72.4308113
  71.6014271  73.8857744  68.7249007  71.8774114  73.7714339  69.6342881
  70.7318769  73.4875229  68.6861180  71.2761161  68.0984402  78.2653650
  70.6232611  68.3460309  77.6106103  71.6541541  67.2848540  77.9316127
  68.2368335  78.1344095  72.3681820  68.4190729  77.3165751  72.8309573
  69.0601321  78.3511787  71.9306710  68.5710500  77.0612280  69.6296869
  69.0998266  76.5504735  69.0167031  68.8338720  76.7454810  70.4942402
  61.9266248  78.1127397  72.3894645  61.2576623  78.5973524  71.9058685
  61.7879118  78.3596617  73.3038023  71.8755367  76.5143411  74.8889760
  72.8001915  76.3086272  74.7514212  71.7070671  76.2659812  75.7979102
  71.6650684  77.0329078  70.2451852  71.8387561  76.4675501  69.4925704
  72.1579575  77.8329973  70.0631342  72.6525856  76.3495843  67.3448750
  73.3476761  76.9702535  67.5636065  72.9949006  75.4991194  67.6201128
  74.5517279  73.7995548  68.8736081  75.0768603  74.1382821  68.1485401
  74.4639632  72.8642563  68.6899215  77.0622939  71.2670739  74.2564599
  77.8969831  71.7060544  74.4202159  77.1982068  70.7909393  73.4372845
  74.1114445  68.8250474  80.2042087  74.5868567  69.0178121  79.3960938
  73.1880011  68.8809660  79.9585471  68.6894662  60.8598318  79.1697921
  69.2076606  61.5959345  78.8444409  68.3349795  61.1662311  80.0044680
  66.7440725  76.4557594  66.2523844  66.1714692  77.0747781  65.7994316
  67.3173518  77.0056956  66.7863766  70.8330494  62.7871818  78.6229793
  70.2380426  63.0676830  77.9276282  70.5480191  63.2765719  79.3946535
  69.9637984  76.7394744  67.3832426  70.8968657  76.6740306  67.5865301
  69.8761197  77.5751011  66.9246959  72.5926001  76.0560615  64.3436374
  72.5139633  75.7220478  65.2372131  73.4135668  76.5482383  64.3427846
  75.2904192  68.9222354  77.5512692  75.2580512  67.9838355  77.7372376
  75.9004816  69.0006391  76.8178517  81.1080742  69.9838361  76.6918729
  81.8384131  69.7223649  77.2526432  80.4987688  69.2467083  76.7320797
  79.1896039  68.1246224  77.2893180  78.4629203  67.9902188  76.6809672
  78.7743326  68.4323052  78.0949898  79.1144907  67.6524277  73.4170033
  78.5544465  67.7217466  74.1901595  78.5088410  67.4765261  72.6969529
  72.0716650  73.8111139  66.0144812  72.9062254  73.3792338  65.8322287
  71.9100993  73.6393153  66.9421706  80.7000925  84.3280791  76.1099989
  81.3379335  84.2087538  75.4063329  80.5821768  85.2761634  76.1687941
  77.5090632  84.2808219  76.0461513  77.1709143  84.1649283  75.1582048
  78.3780400  83.8799384  76.0262519  73.3677447  86.1343695  72.0358404
  72.8042312  86.0433632  71.2674692  73.2529842  85.3143599  72.5160897
  77.9910415  85.4343070  82.0047719  77.9799055  85.0395869  81.1328223
  78.1531054  84.7009143  82.5981490  70.9141879  87.6294887  74.8742625
  71.7063171  87.2885711  74.4588924  71.1538529  87.7389862  75.7944778
  78.9477006  89.8014663  67.3472869  78.2964986  90.3868743  66.9606883
  79.7421369  90.3320858  67.4067907  72.8732633  86.8903800  67.7460004
  73.6463509  86.3432787  67.6072879  73.2258032  87.7548049  67.9574465
  74.7117676  88.2180182  80.9526903  74.4207542  89.1225813  80.8373569
  75.3474660  88.2596710  81.6670972  75.6373883  85.5957031  77.5428263
  76.2337455  85.3713053  76.8285225  75.6948854  84.8541776  78.1453710
  75.2098911  83.0496466  65.3778453  75.4624432  82.5277987  64.6161916
  74.2723470  82.8862611  65.4805137  80.2542194  82.0532244  73.1853197
  81.0405283  81.6351668  72.8343614  80.5180898  82.9578337  73.3534845
  80.4252271  87.4905095  67.8841854  79.7898104  87.5639721  68.5962758
  80.0949678  88.0798694  67.2060933  85.6550621  81.9907478  74.0886175
  86.3875793  81.4206694  74.3224005  84.8989977  81.6029078  74.5292681
  74.9295200  84.9524572  67.5802828  74.8131458  84.2769475  68.2483913
  75.0397460  84.4656946  66.7634981  77.2726741  84.4134719  71.2849518
  76.9084948  83.8865340  71.9962439  78.1293857  84.0233188  71.1116003
  83.1776041  75.7029052  78.5480784  82.8459366  76.5724463  78.3241999
  82.5821655  75.3865336  79.2274814  76.9132228  79.4424619  66.2810866
  77.0806630  80.3104855  66.6481337  76.7229397  79.6051900  65.3572155
  79.6707561  87.9041598  77.9476697  79.3708284  88.8066636  77.8392504
  79.3258620  87.6373781  78.7997849  73.1220042  84.3555395  73.9813401
  72.1970539  84.2231609  74.1891093  73.3704455  85.1349614  74.4783343
  83.0704705  80.4224138  75.6274134  82.1621582  80.3539546  75.3332895
  83.0192300  80.8996083  76.4555959  76.8921448  81.8982276  67.2657533
  76.7721074  82.3439327  68.1043013  76.1974037  82.2467594  66.7071071
  70.4828853  83.9988668  74.8157190  70.6121234  84.2523147  75.7296602
  69.8026305  84.5916376  74.4961845  74.6528341  94.6685918  70.9147664
  74.5752370  95.6193743  70.9936145  74.0489984  94.3231791  71.5722591
  77.1445570  81.8413783  83.5709031  76.3678904  82.4007704  83.5611896
  77.7836133  82.3270566  84.0923901  84.9366351  78.6240576  77.4052008
  84.2940731  78.9173109  76.7591802  84.4321279  78.5093497  78.2105204
  82.5906515  82.3703749  68.0937867  83.5024371  82.6031136  67.9185565
  82.0816162  82.9540794  67.5312946  75.3991943  84.6499237  83.1326998
  76.1406627  85.1884281  82.8561822  74.6928928  85.2765526  83.2898550
  80.8747282  86.7928377  81.7299160  81.2830638  86.3510788  80.9853792
  80.1524544  86.2181005  81.9833353  77.2278352  81.7300984  79.1032717
  78.0739548  82.1540398  79.2467366  77.1676990  81.0734608  79.7971280
  81.1976097  87.3529568  75.4851449  80.5684959  87.5175282  74.7827516
  80.8101759  87.7671177  76.2562413  85.0765329  88.2884006  72.8395812
  84.3916367  88.6682907  72.2892846  85.1609178  88.8979332  73.5727760
  80.3777798  79.3905352  80.7613890  80.1338730  80.1447413  80.2248166
  80.6537728  79.7690700  81.5961137  82.3316260  85.9343965  79.4391156
  82.5433156  86.5775725  78.7625537  82.2846009  85.1006281  78.9713086
  79.9342489  78.5461785  76.3427728  79.0726968  78.8443039  76.6344466
  79.9604924  78.7632184  75.4108761  76.7504059  87.0903976  72.7501534
  77.2142404  87.3691679  71.9606156  76.4860857  86.1887421  72.5674624
  73.6428140  86.6375458  75.6881297  74.2129497  87.0662726  75.0498781
  74.2336252  86.3558042  76.3865483  75.6872945  83.2127128  69.5591099
  76.3896988  83.6648172  70.0265025  75.3553573  82.5710947  70.1870992
  69.4298279  81.4710681  74.8608232  68.6397333  81.7268210  74.3848343
  69.9209526  82.2859019  74.9660273  83.4462088  88.8115920  77.6113513
  84.2679532  88.4096107  77.3296195  83.4424491  88.7084154  78.5629629
  71.3813024  81.8355260  71.8191709  70.5844187  81.9473955  72.3375205
  71.1538616  82.1741912  70.9532600  77.2118692  88.3599963  79.7674224
  77.2763124  88.8220371  80.6032395  76.5029616  87.7297328  79.8956533
  91.5368081  85.1554669  73.9598485  90.7831790  84.5862067  73.8042489
  91.6715623  85.1217333  74.9069119  76.9266709  90.0268071  69.6353204
  76.7912384  90.8719607  70.0638052  77.4676522  90.2287349  68.8719138
  70.3796107  87.5443509  70.2081129  70.8920627  88.3386759  70.3586694
  71.0318820  86.8469799  70.1414731  72.1890992  90.6609265  72.2903882
  72.3657620  91.5827230  72.1024866  72.9847825  90.3467684  72.7198262
  76.3302010  77.5217530  83.8887816  77.0711723  78.1224683  83.8092278
  76.5619933  76.7795168  83.3305858  78.5535186  90.6491637  83.7653546
  78.1099040  89.8628016  83.4474451  79.2152399  90.8370788  83.0997437
  73.3122307  92.1787439  78.2914225  73.8629732  92.0504502  77.5191219
  72.4733783  92.4782328  77.9409117  80.6516424  90.9294437  81.7934947
  80.6334899  91.7503318  81.3015216  81.5736344  90.8048513  82.0185088
  77.1089478  88.4438567  82.6358456  77.6417815  87.6826855  82.4057764
  76.5803559  88.1512219  83.3782610  80.2759173  73.5498633  78.1652097
  79.9323442  74.4400275  78.0891208  80.6438136  73.3600290  77.3021682
  68.3445024  85.8732163  70.9840700  69.1820246  86.2829172  70.7674407
  68.5223291  84.9331605  70.9540893  80.2409456  83.5407244  66.6724533
  79.7256079  84.3111849  66.9112920  79.9686764  82.8672380  67.2957594
  77.8256567  78.3856945  71.7309771  76.9698163  77.9963795  71.5515410
  78.2383519  78.4648906  70.8709556  79.3555713  75.9203288  76.1301331
  78.8520509  75.8833423  75.3169136  79.6486320  76.8296031  76.1897987
  75.5998599  76.0042018  75.1367512  76.4651596  75.8084826  74.7773402
  75.6676108  75.7752369  76.0636869  85.2143730  86.2939599  68.6077706
  84.4373173  85.9550758  68.1632868  85.8935211  86.2992222  67.9332671
  80.0295759  81.4134336  68.4984314  79.7245895  81.7280485  69.3494457
  80.9826201  81.4915756  68.5411647  78.4742191  87.5724559  70.1477268
  77.9463552  86.8377319  69.8350505  77.9729694  88.3499236  69.9017236
  83.4535037  85.7673580  75.2644314  82.7958711  86.4572841  75.3524443
  84.2575436  86.1570012  75.6078300  73.2060918  78.2344226  72.5083879
  73.7804670  78.0119407  71.7757072  73.7931901  78.3032920  73.2612481
  82.2640496  84.1217953  73.3148256  82.7772377  84.7547944  73.8169965
  82.9141720  83.5219148  72.9491616  73.5330506  80.2648687  66.5279764
  72.6967818  80.6023373  66.8489039  73.3935275  80.1297666  65.5906901
  75.5083586  75.1085475  71.2358949  74.8547998  74.7934492  70.6115563
  75.4664060  74.4861215  71.9618772  76.6194791  85.3904770  63.1512241
  75.7121853  85.1594023  63.3503390  77.1165823  84.5942389  63.3386222
  79.5262870  94.1002277  66.0708927  78.8524569  94.4033974  66.6793885
  79.9128692  94.9031357  65.7214384  78.7421326  81.5967408  75.5606596
  77.8243888  81.8182355  75.4028284  79.1581470  81.6713719  74.7018304
  79.5256374  82.9958824  70.6909277  80.2728193  83.5080221  70.3816399
  79.7947964  82.6742876  71.5513670  77.7983024  85.4917364  67.6736231
  76.8894244  85.2076397  67.7708701  77.8278108  85.9116443  66.8139538
  83.0302292  89.1023954  71.4427398  82.5764619  88.2614864  71.4992589
  82.3996259  89.7385352  71.7802179  81.9735211  80.0315940  72.6728066
  81.2357968  79.5193326  73.0038308  82.2261985  79.5916322  71.8611343
  81.4735231  90.9400451  72.3777217  81.7658205  91.5005508  71.6589582
  81.9833852  91.2329012  73.1330376  82.0746839  72.8092192  73.2669835
  82.3805716  71.9489555  72.9795750  82.7999444  73.4009812  73.0668829
  68.3671195  83.2122879  71.6551433  68.1695595  82.6192239  70.9302500
  67.8117859  82.9075089  72.3727372  76.3467918  83.1045985  73.7746026
  76.4016528  82.1519821  73.6988503  75.5359120  83.2605424  74.2587325
  77.4959112  87.0326108  65.0124309  77.0578542  86.3161967  64.5529947
  78.2369553  87.2602223  64.4509401  74.2860278  81.7223045  71.5336405
  73.4728144  82.0217215  71.9401597  74.7819273  81.3278734  72.2510887
  76.4368856  91.7180802  73.4670670  76.3945035  91.9441648  72.5379202
  77.3531555  91.4844176  73.6156471  79.8834490  82.1864869  80.3651299
  80.2383878  82.4136342  81.2245765  80.5306621  82.5183246  79.7428554
  85.6132227  85.3083305  71.0700628  85.4750126  85.4984901  70.1421817
  85.2568446  86.0702688  71.5268679  73.7774353  79.2941400  77.1497640
  74.4173732  79.1530159  76.4520603  72.9451884  79.0075914  76.7736242
  85.6401607  87.3759832  76.0811899  86.0738113  87.2835121  76.9294954
  86.3533187  87.3517333  75.4431915  74.5534657  88.5943831  73.2632632
  75.3475256  88.0994151  73.0615207  73.8426349  88.0661694  72.9000338
  79.3729502  90.9761926  77.6145000  79.4266524  91.5452863  78.3822716
  78.5044283  91.1463811  77.2499037  70.8617421  82.7386913  69.3392385
  69.9315009  82.6771368  69.5562347  70.9574892  82.2162865  68.5429026
  70.7802970  79.2641725  71.9270627  71.0409787  80.1787059  71.8179787
  71.6020142  78.7966168  72.0767240  86.5017156  87.4183533  78.6144785
  86.6953046  88.3229343  78.8604060  86.4017774  86.9590952  79.4483370
  78.1553467  77.3041423  81.1135112  77.5081382  78.0031373  81.0199589
  78.9254482  77.7377567  81.4811360  81.5632265  87.5690276  84.1885665
  81.4117771  87.3400827  83.2715749  81.5536944  88.5260877  84.2017011
  78.3317601  85.1422188  79.1731932  79.2609661  85.2933348  79.0000899
  77.9108631  85.2306209  78.3180578  77.1305933  89.1672853  76.9430470
  76.9917019  88.7991637  77.8156408  76.3420529  89.6820492  76.7714427
  77.7254085  94.2681949  68.2856006  77.9005841  93.7969992  69.1001629
  77.0386873  94.8947715  68.5137267  78.6811148  88.5454455  74.3319307
  78.3460981  88.5055225  75.2276957  78.1815094  87.8799171  73.8589718
  81.6170340  85.8910490  64.6056367  80.9999510  85.1657318  64.5089420
  81.1486828  86.6519850  64.2623441  75.2837693  83.6642045  79.3455568
  75.9937311  83.0235237  79.3042187  75.2407001  83.9154940  80.2681749
  83.2724471  90.6009398  82.2662147  83.2137018  89.9168618  81.5992730
  83.6743990  91.3428388  81.8142773  72.2915170  97.4171312  75.0595866
  72.5311769  98.0489836  75.7374885  71.4484367  97.0659352  75.3461226
  73.4068886  80.1095914  63.7277671  72.5298352  79.9884715  63.3639918
  73.8826639  79.3181992  63.4756560  83.2741879  88.5648982  80.4976127
  82.3868658  88.2274904  80.6202526  83.8440430  87.8332013  80.7344892
  64.9271026  84.8973074  73.8219178  65.6142066  84.5834804  73.2340194
  64.7719155  85.8014438  73.5486430  76.8043032  93.2250434  77.4637370
  76.7313204  94.0305406  77.9756675  76.3620425  93.4242400  76.6385392
  76.5932812  92.4622204  70.9740192  75.8100334  93.0043885  71.0678416
  77.2925557  92.9796184  71.3734433  79.9029462  78.2716834  73.6174397
  80.3998161  77.5186796  73.2975467  79.1316443  78.3081151  73.0517606
  87.7559219  83.9757199  75.2592689  87.7449096  84.8581915  74.8886622
  86.8876599  83.6228750  75.0647226  79.2641716  93.1237268  79.6195529
  79.9769688  93.7584733  79.5471430  78.7731744  93.2201134  78.8035531
  80.9859243  87.0288521  71.1912821  80.0515521  87.1489984  71.0217525
  81.1635911  86.1260988  70.9272830  76.4864431  80.4134217  73.3446082
  76.1162218  79.8605257  74.0326987  76.9823523  79.8092350  72.7921082
  84.3731794  82.8705840  71.7262855  84.8392246  83.7033832  71.6523157
  84.8239294  82.4050822  72.4308113  74.3153629  90.8731712  80.4401100
  75.0163089  91.5068195  80.5930494  73.8448744  91.2146443  79.6796739
  82.4408025  89.2149662  68.7249007  82.7167869  89.1006256  69.6342881
  81.5712524  88.8167147  68.6861180  82.3448457  75.2386427  75.7653756
  81.4311536  75.4690654  75.9335963  82.7741558  75.3224871  76.6167788
  82.1154915  83.4276319  78.2653650  81.4626365  83.6752227  77.6106103
  82.4935295  82.6140458  77.9316127  79.0762089  93.4636013  72.3681820
  79.2584484  92.6457668  72.8309573  79.8995075  93.6803705  71.9306710
  79.4104255  92.3904198  69.6296869  79.9392021  91.8796652  69.0167031
  79.6732474  92.0746728  70.4942402  78.1642488  84.1696130  84.7519687
  77.4883125  84.0690260  85.4222062  78.9870122  84.0135344  85.2155684
  69.9121347  90.4068067  77.3732202  70.4974784  89.6611755  77.5060107
  69.7146186  90.7172024  78.2568866  72.7660002  93.4419314  72.3894645
  72.0970378  93.9265442  71.9058685  72.6272872  93.6888535  73.3038023
  76.9065271  95.4763058  78.9877303  77.4583579  95.6394679  79.7526388
  77.2471465  96.0667496  78.3157328  81.7576145  90.3024315  84.8425958
  82.3016049  90.9154274  84.3480912  81.1762990  90.8603894  85.3592971
  68.1347580  81.7037769  69.1690577  68.4301021  80.7948448  69.1157631
  67.2335615  81.6825509  68.8471579  80.0433658  93.4245033  75.9740985
  79.9184798  92.6234773  75.4651931  80.7012749  93.9191227  75.4854955
  71.6641827  79.7793766  75.1518126  70.9428412  80.3929734  75.0125599
  72.4535082  80.3151531  75.0734771  82.1068567  91.2254054  77.6020535
  81.1598902  91.1059405  77.5298862  82.4551340  90.3376552  77.6846797
  74.4668140  77.1148192  81.4258777  74.9902542  77.3610489  82.1885087
  74.2480473  77.9468227  81.0061915  69.8635421  79.3851867  69.2929902
  69.5348127  78.5049246  69.1105008  70.2174792  79.3299536  70.1806291
  79.1115000  91.0206770  73.8024888  78.9639962  90.0923477  73.9832458
  79.9368494  91.0426860  73.3181963  72.9777244  79.6724837  69.6605380
  73.3173317  80.2010758  68.9383988  73.4249365  80.0105243  70.4363946
  82.7149122  91.8435328  74.8889760  83.6395669  91.6378190  74.7514212
  82.5464425  91.5951730  75.7979102  75.6720685  78.0561888  79.1108448
  75.3317506  77.2569701  79.5129128  74.9659691  78.3563598  78.5385281
  76.3237157  75.1411200  77.5635771  77.1463226  74.6671678  77.4414661
  76.5675221  75.9201684  78.0634457  74.9645391  78.1699458  67.8598673
  75.6853754  78.5480711  67.3562389  74.3410696  78.8888335  67.9633650
  79.1076514  78.8744607  68.7957005  79.3240129  79.7569245  68.4945833
  78.6270581  78.4830821  68.0662647  73.8475736  81.8330321  75.3727749
  73.7020316  82.1470624  76.2652031  73.3700939  82.4515221  74.8198648
  75.7072119  78.8232869  75.4208639  75.6933687  77.9273962  75.0840937
  76.4244547  78.8303532  76.0546925  77.5598249  79.2570209  77.4661766
  77.3016027  80.1787279  77.4646097  77.0283290  78.8600643  78.1562231
  82.5044438  92.3620996  70.2451852  82.6781316  91.7967418  69.4925704
  82.9973329  93.1621891  70.0631342  75.1109015  77.7047249  70.6896209
  75.2324926  76.7763895  70.8887097  74.8211057  77.7185935  69.7774525
  77.9800205  75.3902159  73.8262929  78.0021902  75.4541492  72.8714909
  78.3968264  74.5506668  74.0203435  88.3583829  85.1257419  71.8642152
  88.8014975  84.3764744  71.4661275  87.4810340  85.1167555  71.4815884
  83.4919611  91.6787760  67.3448750  84.1870515  92.2994453  67.5636065
  83.8342761  90.8283112  67.6201128  85.3911034  89.1287466  68.8736081
  85.9162358  89.4674739  68.1485401  85.3033386  88.1934481  68.6899215
  77.0531082  93.0421539  81.0025958  77.3618209  92.7970686  81.8748657
  77.8506564  93.2468178  80.5144828  77.0751694  95.1959449  73.2331334
  76.6356685  94.7035828  73.9264191  77.8259811  94.6532417  72.9923409
  69.5544033  91.3870990  73.2355962  70.3802053  91.0874762  72.8554606
  69.2038085  90.6178612  73.6845751  74.5225567  90.7397458  75.3053636
  73.9005576  90.0768163  75.0055864  75.1930433  90.7658590  74.6227284
  67.7552638  89.3057316  74.1944896  66.9184547  88.8779491  74.0128897
  67.7276284  89.4989760  75.1315687  85.0804940  89.7620369  84.1787279
  84.2900483  89.7444508  83.6391778  84.8438294  90.3008663  84.9336315
  85.2002815  86.6112836  81.4920007  85.2500820  86.4462843  82.4335530
  85.0916738  85.7440095  81.1017888  74.0839074  89.2901382  68.7812096
  74.2327194  89.9736846  68.1278769  74.8905517  89.2706472  69.2961552
  82.4906577  82.5943764  82.8079314  83.3916440  82.4550229  82.5163312
  82.5654552  82.7598219  83.7477492  76.8249383  79.9710619  81.6532500
  75.9552692  80.2644185  81.3815089  77.0608863  80.5551064  82.3739764
  86.7021012  89.0309777  81.7362029  86.4105820  89.3939758  82.5725490
  86.0893143  88.3176786  81.5575361  87.9016694  86.5962657  74.2564599
  88.7363585  87.0352461  74.4202159  88.0375823  86.1201310  73.4372845
  84.9508200  84.1542392  80.2042087  85.4262321  84.3470038  79.3960938
  84.0273765  84.2101578  79.9585471  71.8391706  85.3166559  69.7873165
  71.5937748  84.4128889  69.9853375  72.0087621  85.3183710  68.8452643
  79.5288416  76.1890236  79.1697921  80.0470360  76.9251262  78.8444409
  79.1743549  76.4954229  80.0044680  71.1087354  81.0494917  67.2859327
  70.4156599  81.1239272  66.6299363  70.8639106  80.2855260  67.8080844
  79.7801011  72.6090518  74.6898817  80.0602764  71.9413707  75.3159244
  80.5651617  72.8019614  74.1773481  77.5834479  91.7849512  66.2523844
  77.0108446  92.4039699  65.7994316  78.1567273  92.3348874  66.7863766
  83.6509869  81.0308152  78.4370392  84.6027292  81.1306250  78.4582617
  83.4813319  80.2386421  78.9468477  81.6724248  78.1163735  78.6229793
  81.0774180  78.3968748  77.9276282  81.3873945  78.6057636  79.3946535
  80.8031739  92.0686662  67.3832426  81.7362412  92.0032224  67.5865301
  80.7154952  92.9042929  66.9246959  83.4319755  91.3852532  64.3436374
  83.3533387  91.0512396  65.2372131  84.2529422  91.8774300  64.3427846
  86.1297947  84.2514272  77.5512692  86.0974267  83.3130273  77.7372376
  86.7398570  84.3298308  76.8178517  77.9681278  83.1210325  63.5939896
  78.9140382  82.9916533  63.6628314  77.5895522  82.3824987  64.0709324
  86.2792435  81.0425315  77.5970975  85.7631484  80.2583772  77.4100904
  87.1632384  80.7144032  77.7617495  83.9403162  74.7866331  73.5566788
  83.7427983  74.4781419  74.4410120  84.5502868  75.5127970  73.6864718
  91.9474497  85.3130279  76.6918729  92.6777885  85.0515567  77.2526432
  91.3381442  84.5759001  76.7320797  90.0289794  83.4538141  77.2893180
  89.3022957  83.3194106  76.6809672  89.6137081  83.7614970  78.0949898
  77.8519970  87.1728071  85.0540553  78.7722980  87.3506670  85.2480600
  77.8169553  86.2284116  84.9020252  76.1524195  81.0460301  63.5294781
  75.2455650  80.7493414  63.6057495  76.4300176  80.7490119  62.6629068
  70.8482043  85.0829106  77.6963334  71.0668052  86.0146213  77.7151368
  71.2607816  84.7237080  78.4818138  77.7686260  75.5897191  69.6839023
  76.9586989  75.2444276  70.0594269  78.4570677  75.2804735  70.2726634
  79.6976809  74.6675238  71.3063319  80.2507847  75.0870691  71.9653342
  79.9346895  73.7410986  71.3486275  75.7209908  80.6562311  87.0866083
  75.6206635  81.6056668  87.0178174  75.5031450  80.3280550  86.2142153
  74.9222979  77.9047236  63.6706761  75.7842143  78.2302135  63.9302578
  75.1073323  77.1178732  63.1579826  66.9390395  85.9869576  75.9486949
  66.2453866  85.5723529  75.4356904  67.6863386  86.0290113  75.3520368
  83.0755616  76.7775763  70.8141984  82.4954285  77.4360567  70.4320036
  82.8091548  75.9553107  70.4029401  81.5259182  76.1780821  73.0163304
  82.0258961  76.2897355  72.2077623  82.1694790  75.8741873  73.6564112
  75.5841178  84.0859450  85.9031145  75.1008260  84.8859810  86.1095034
  75.6702117  84.0967395  84.9498589  68.8527138  85.9187830  73.8252964
  68.8297826  86.0175517  72.8734847  69.1627774  86.7652981  74.1470130
  71.5114515  87.9763985  77.9399579  72.4657769  87.9447927  77.8729510
  71.3127039  87.5154609  78.7549805  72.1013898  86.5465101  80.5070376
  72.9206787  87.0409180  80.5305214  72.3750705  85.6297069  80.4787944
  81.8580494  78.9375853  69.8698332  80.9706349  79.2225504  69.6518527
  82.2734483  78.7769617  69.0225609  85.2095030  78.9622374  73.5852671
  85.9855420  79.4518827  73.8577288  84.4843164  79.3880428  74.0424541
  87.6467589  79.6749993  74.6426612  88.2412079  79.4345729  73.9319920
  87.7194172  78.9557124  75.2700148  69.8664744  93.5183604  74.9569777
  69.7319212  92.7584005  74.3907775  69.4496807  94.2424504  74.4898565
  81.0023707  88.7020528  63.9646352  81.7059557  88.9070530  64.5804007
  80.2786356  89.2697290  64.2295435  81.8321518  84.4530389  70.0848622
  81.7756719  84.9098941  69.2456254  82.3849860  83.6921074  69.9071465
  85.6426323  80.2420121  70.9098742  85.3863258  79.8416757  71.7406949
  85.0179191  80.9563915  70.7848881  89.9538661  82.9816194  73.4170033
  89.3938219  83.0509384  74.1901595  89.3482165  82.8057179  72.6969529
  73.0233870  94.4152921  75.1688219  72.9066254  95.3598354  75.0666909
  72.2026316  94.1126483  75.5574018  82.9110405  89.1403057  66.0144812
  83.7456009  88.7084256  65.8322287  82.7494748  88.9685071  66.9421706
  82.5656297  85.6435170  67.3801151  82.5105101  85.4779442  66.4389595
  81.9402352  86.3511203  67.5363341  79.8802204  87.9484082  86.7054714
  80.7493364  88.1224735  86.3441349  79.4008956  88.7678499  86.5830443
  75.8752422  75.1443279  66.9586470  75.8631092  76.0885119  67.1154740
  76.7675844  74.9613425  66.6645931  74.0488384  95.0681183  78.3844148
  74.9515631  95.1004794  78.7010643  73.8225754  94.1381634  78.3990483
  75.8041986  93.8212170  75.0454226  74.8537617  93.8214031  74.9318599
  76.1074472  93.0744904  74.5290261  91.5394680  99.6572708  76.1099989
  92.1773090  99.5379456  75.4063329  91.4215523 100.6053552  76.1687941
  88.3484386  99.6100136  76.0461513  88.0102898  99.4941201  75.1582048
  89.2174154  99.2091301  76.0262519  84.2071202 101.4635613  72.0358404
  83.6436067 101.3725550  71.2674692  84.0923597 100.6435517  72.5160897
  88.8304169 100.7634988  82.0047719  88.8192810 100.3687786  81.1328223
  88.9924809 100.0301061  82.5981490  81.7535634 102.9586804  74.8742625
  82.5456926 102.6177629  74.4588924  81.9932284 103.0681779  75.7944778
  89.7870760 105.1306580  67.3472869  89.1358740 105.7160661  66.9606883
  90.5815123 105.6612775  67.4067907  83.7126388 102.2195718  67.7460004
  84.4857264 101.6724705  67.6072879  84.0651786 103.0839967  67.9574465
  85.5511430 103.5472100  80.9526903  85.2601296 104.4517731  80.8373569
  86.1868415 103.5888627  81.6670972  86.4767637 100.9248948  77.5428263
  87.0731209 100.7004971  76.8285225  86.5342609 100.1833694  78.1453710
  86.0492665  98.3788384  65.3778453  86.3018186  97.8569905  64.6161916
  85.1117225  98.2154529  65.4805137  91.0935948  97.3824162  73.1853197
  91.8799037  96.9643585  72.8343614  91.3574653  98.2870254  73.3534845
  91.2646026 102.8197012  67.8841854  90.6291859 102.8931639  68.5962758
  90.9343432 103.4090611  67.2060933  96.4944375  97.3199395  74.0886175
  97.2269547  96.7498612  74.3224005  95.7383731  96.9320996  74.5292681
  85.7688954 100.2816490  67.5802828  85.6525212  99.6061393  68.2483913
  85.8791214  99.7948864  66.7634981  88.1120495  99.7426637  71.2849518
  87.7478702  99.2157258  71.9962439  88.9687611  99.3525106  71.1116003
  94.0169796  91.0320969  78.5480784  93.6853121  91.9016380  78.3241999
  93.4215409  90.7157253  79.2274814  87.7525982  94.7716536  66.2810866
  87.9200384  95.6396773  66.6481337  87.5623151  94.9343818  65.3572155
  90.5101315 103.2333515  77.9476697  90.2102038 104.1358554  77.8392504
  90.1652375 102.9665699  78.7997849  83.9613797  99.6847312  73.9813401
  83.0364293  99.5523526  74.1891093  84.2098210 100.4641531  74.4783343
  93.9098459  95.7516056  75.6274134  93.0015336  95.6831464  75.3332895
  93.8586055  96.2288000  76.4555959  87.7315203  97.2274194  67.2657533
  87.6114828  97.6731245  68.1043013  87.0367791  97.5759512  66.7071071
  81.3222608  99.3280586  74.8157190  81.4514989  99.5815065  75.7296602
  80.6420059  99.9208294  74.4961845  85.4922095 109.9977836  70.9147664
  85.4146125 110.9485661  70.9936145  84.8883739 109.6523708  71.5722591
  87.9839325  97.1705701  83.5709031  87.2072659  97.7299621  83.5611896
  88.6229888  97.6562484  84.0923901  95.7760105  93.9532494  77.4052008
  95.1334486  94.2465027  76.7591802  95.2715034  93.8385414  78.2105204
  93.4300269  97.6995667  68.0937867  94.3418125  97.9323054  67.9185565
  92.9209916  98.2832711  67.5312946  86.2385697  99.9791154  83.1326998
  86.9800382 100.5176198  82.8561822  85.5322683 100.6057443  83.2898550
  91.7141037 102.1220295  81.7299160  92.1224393 101.6802705  80.9853792
  90.9918298 101.5472922  81.9833353  88.0672107  97.0592902  79.1032717
  88.9133302  97.4832315  79.2467366  88.0070744  96.4026526  79.7971280
  92.0369851 102.6821486  75.4851449  91.4078714 102.8467200  74.7827516
  91.6495514 103.0963095  76.2562413  95.9159083 103.6175923  72.8395812
  95.2310121 103.9974825  72.2892846  96.0002933 104.2271250  73.5727760
  91.2171552  94.7197270  80.7613890  90.9732484  95.4739331  80.2248166
  91.4931483  95.0982618  81.5961137  93.1710015 101.2635882  79.4391156
  93.3826910 101.9067642  78.7625537  93.1239763 100.4298199  78.9713086
  90.7736244  93.8753703  76.3427728  89.9120723  94.1734957  76.6344466
  90.7998679  94.0924102  75.4108761  87.5897813 102.4195894  72.7501534
  88.0536159 102.6983597  71.9606156  87.3254611 101.5179338  72.5674624
  84.4821894 101.9667375  75.6881297  85.0523251 102.3954644  75.0498781
  85.0730006 101.6849960  76.3865483  86.5266699  98.5419046  69.5591099
  87.2290743  98.9940090  70.0265025  86.1947328  97.9002865  70.1870992
  84.9747061  97.1330803  83.9342308  84.3445721  97.8147084  84.1677705
  84.8683149  97.0213884  82.9895446  80.2692033  96.8002599  74.8608232
  79.4791087  97.0560127  74.3848343  80.7603281  97.6150937  74.9660273
  94.2855843 104.1407838  77.6113513  95.1073287 103.7388025  77.3296195
  94.2818246 104.0376072  78.5629629  82.2206779  97.1647178  71.8191709
  81.4237942  97.2765872  72.3375205  81.9932371  97.5033830  70.9532600
  88.0512446 103.6891881  79.7674224  88.1156879 104.1512288  80.6032395
  87.3423370 103.0589246  79.8956533  78.5529736  97.0533089  77.2923223
  78.8037775  97.9380099  77.5580799  79.0889285  96.8737691  76.5198315
 102.3761836 100.4846586  73.9598485 101.6225544  99.9153984  73.8042489
 102.5109377 100.4509251  74.9069119  87.7660464 105.3559989  69.6353204
  87.6306139 106.2011524  70.0638052  88.3070276 105.5579266  68.8719138
  84.2527804  91.4351568  86.2967559  83.8594749  90.8817767  86.9715203
  85.0693944  91.7462147  86.6874077  81.2189861 102.8735427  70.2081129
  81.7314382 103.6678677  70.3586694  81.8712574 102.1761717  70.1414731
  83.0284746 105.9901183  72.2903882  83.2051374 106.9119148  72.1024866
  83.8241580 105.6759602  72.7198262  87.1695765  92.8509448  83.8887816
  87.9105478  93.4516601  83.8092278  87.4013687  92.1087085  83.3305858
  82.3137103  98.0365815  82.1666045  82.1990618  97.1351072  82.4673144
  81.4581620  98.2829512  81.8150862  89.3928940 105.9783555  83.7653546
  88.9492795 105.1919934  83.4474451  90.0546154 106.1662706  83.0997437
  84.1516062 107.5079357  78.2914225  84.7023487 107.3796420  77.5191219
  83.3127537 107.8074246  77.9409117  91.4910178 106.2586355  81.7934947
  91.4728654 107.0795236  81.3015216  92.4130098 106.1340430  82.0185088
  87.9483233 103.7730485  82.6358456  88.4811569 103.0118773  82.4057764
  87.4197314 103.4804136  83.3782610  91.1152928  88.8790551  78.1652097
  90.7717197  89.7692192  78.0891208  91.4831890  88.6892208  77.3021682
  79.1838778 101.2024081  70.9840700  80.0214000 101.6121089  70.7674407
  79.3617046 100.2623523  70.9540893  91.0803210  98.8699162  66.6724533
  90.5649834  99.6403766  66.9112920  90.8080519  98.1964298  67.2957594
  88.6650321  93.7148862  71.7309771  87.8091918  93.3255713  71.5515410
  89.0777273  93.7940823  70.8709556  90.1949468  91.2495206  76.1301331
  89.6914264  91.2125341  75.3169136  90.4880075  92.1587948  76.1897987
  86.4392354  91.3333935  75.1367512  87.3045351  91.1376744  74.7773402
  86.5069863  91.1044287  76.0636869  96.0537484 101.6231516  68.6077706
  95.2766927 101.2842676  68.1632868  96.7328965 101.6284139  67.9332671
  90.8689513  96.7426254  68.4984314  90.5639649  97.0572403  69.3494457
  91.8219956  96.8207674  68.5411647  89.3135945 102.9016477  70.1477268
  88.7857307 102.1669237  69.8350505  88.8123448 103.6791153  69.9017236
  94.2928791 101.0965498  75.2644314  93.6352466 101.7864759  75.3524443
  95.0969191 101.4861929  75.6078300  84.0454673  93.5636143  72.5083879
  84.6198425  93.3411325  71.7757072  84.6325655  93.6324838  73.2612481
  93.1034250  99.4509870  73.3148256  93.6166132 100.0839862  73.8169965
  93.7535474  98.8511066  72.9491616  84.3724260  95.5940604  66.5279764
  83.5361572  95.9315291  66.8489039  84.2329030  95.4589584  65.5906901
  86.3477341  90.4377392  71.2358949  85.6941753  90.1226409  70.6115563
  86.3057815  89.8153133  71.9618772  87.4588545 100.7196687  63.1512241
  86.5515607 100.4885941  63.3503390  87.9559577  99.9234307  63.3386222
  90.3656624 109.4294194  66.0708927  89.6918323 109.7325891  66.6793885
  90.7522446 110.2323275  65.7214384  89.5815081  96.9259326  75.5606596
  88.6637642  97.1474273  75.4028284  89.9975225  97.0005636  74.7018304
  90.3650129  98.3250741  70.6909277  91.1121948  98.8372139  70.3816399
  90.6341718  98.0034794  71.5513670  88.6376779 100.8209282  67.6736231
  87.7287998 100.5368315  67.7708701  88.6671863 101.2408361  66.8139538
  93.8696046 104.4315872  71.4427398  93.4158373 103.5906782  71.4992589
  93.2390013 105.0677270  71.7802179  92.8128966  95.3607858  72.6728066
  92.0751723  94.8485244  73.0038308  93.0655739  94.9208239  71.8611343
  92.3128986 106.2692368  72.3777217  92.6051960 106.8297425  71.6589582
  92.8227606 106.5620929  73.1330376  92.9140593  88.1384110  73.2669835
  93.2199470  87.2781473  72.9795750  93.6393198  88.7301730  73.0668829
  79.2064949  98.5414796  71.6551433  79.0089349  97.9484157  70.9302500
  78.6511613  98.2367006  72.3727372  87.1861673  98.4337903  73.7746026
  87.2410283  97.4811739  73.6988503  86.3752875  98.5897342  74.2587325
  88.3352867 102.3618026  65.0124309  87.8972297 101.6453885  64.5529947
  89.0763308 102.5894141  64.4509401  85.1254033  97.0514963  71.5336405
  84.3121898  97.3509133  71.9401597  85.6213027  96.6570651  72.2510887
  87.2762611 107.0472719  73.4670670  87.2338790 107.2733566  72.5379202
  88.1925310 106.8136094  73.6156471  90.7228245  97.5156787  80.3651299
  91.0777632  97.7428260  81.2245765  91.3700376  97.8475164  79.7428554
  96.4525981 100.6375223  71.0700628  96.3143880 100.8276819  70.1421817
  96.0962200 101.3994606  71.5268679  84.6168108  94.6233318  77.1497640
  85.2567487  94.4822077  76.4520603  83.7845638  94.3367831  76.7736242
  96.4795361 102.7051750  76.0811899  96.9131868 102.6127039  76.9294954
  97.1926942 102.6809250  75.4431915  85.3928412 103.9235748  73.2632632
  86.1869010 103.4286069  73.0615207  84.6820104 103.3953612  72.9000338
  90.2123256 106.3053844  77.6145000  90.2660278 106.8744780  78.3822716
  89.3438037 106.4755729  77.2499037  81.7011175  98.0678830  69.3392385
  80.7708763  98.0063286  69.5562347  81.7968647  97.5454783  68.5429026
  81.6196724  94.5933643  71.9270627  81.8803541  95.5078976  71.8179787
  82.4413896  94.1258086  72.0767240  83.0921649  96.0071400  79.0969451
  83.7644703  95.7988762  78.4482100  82.2651436  95.8093486  78.6574684
  97.3410911 102.7475451  78.6144785  97.5346801 103.6521261  78.8604060
  97.2411529 102.2882870  79.4483370  88.9947221  92.6333341  81.1135112
  88.3475136  93.3323291  81.0199589  89.7648237  93.0669485  81.4811360
  92.4026019 102.8982193  84.1885665  92.2511526 102.6692745  83.2715749
  92.3930699 103.8552795  84.2017011  89.1711356 100.4714106  79.1731932
  90.1003416 100.6225266  79.0000899  88.7502386 100.5598127  78.3180578
  87.9699688 104.4964770  76.9430470  87.8310773 104.1283555  77.8156408
  87.1814284 105.0112410  76.7714427  88.5647839 109.5973867  68.2856006
  88.7399595 109.1261910  69.1001629  87.8780628 110.2239633  68.5137267
  89.5204903 103.8746373  74.3319307  89.1854735 103.8347143  75.2276957
  89.0208848 103.2091089  73.8589718  83.4949147  99.2814003  79.8571888
  83.3568945  98.5494242  80.4583428  84.4054070  99.1922903  79.5756076
  92.4564094 101.2202407  64.6056367  91.8393265 100.4949236  64.5089420
  91.9880583 101.9811768  64.2623441  86.1231447  98.9933963  79.3455568
  86.8331066  98.3527155  79.3042187  86.0800755  99.2446857  80.2681749
  94.1118226 105.9301316  82.2662147  94.0530772 105.2460536  81.5992730
  94.5137744 106.6720306  81.8142773  84.8360381  95.9799180  81.1651208
  84.2997738  95.5289919  81.8172804  84.2477090  96.1145089  80.4221672
  83.1308925 112.7463230  75.0595866  83.3705523 113.3781754  75.7374885
  82.2878121 112.3951270  75.3461226  84.2462640  95.4387832  63.7277671
  83.3692107  95.3176633  63.3639918  84.7220393  94.6473910  63.4756560
  94.1135633 103.8940900  80.4976127  93.2262412 103.5566822  80.6202526
  94.6834184 103.1623931  80.7344892  75.7664780 100.2264992  73.8219178
  76.4535820  99.9126722  73.2340194  75.6112909 101.1306356  73.5486430
  80.5699503  95.1155188  78.2504202  80.4857691  94.5080858  77.5154612
  79.7482209  95.6064206  78.2513698  87.6436787 108.5542352  77.4637370
  87.5706958 109.3597324  77.9756675  87.2014180 108.7534318  76.6385392
  87.4326566 107.7914122  70.9740192  86.6494088 108.3335802  71.0678416
  88.1319311 108.3088102  71.3734433  90.7423216  93.6008752  73.6174397
  91.2391916  92.8478714  73.2975467  89.9710198  93.6373068  73.0517606
  98.5952974  99.3049117  75.2592689  98.5842850 100.1873833  74.8886622
  97.7270353  98.9520668  75.0647226  90.1035470 108.4529186  79.6195529
  90.8163442 109.0876651  79.5471430  89.6125499 108.5493052  78.8035531
  91.8252997 102.3580439  71.1912821  90.8909276 102.4781901  71.0217525
  92.0029666 101.4552906  70.9272830  87.3258185  95.7426135  73.3446082
  86.9555973  95.1897175  74.0326987  87.8217278  95.1384268  72.7921082
  95.2125548  98.1997758  71.7262855  95.6786001  99.0325750  71.6523157
  95.6633049  97.7342740  72.4308113  85.1547384 106.2023630  80.4401100
  85.8556843 106.8360113  80.5930494  84.6842499 106.5438361  79.6796739
  93.2801780 104.5441579  68.7249007  93.5561623 104.4298174  69.6342881
  92.4106278 104.1459064  68.6861180  93.1842211  90.5678345  75.7653756
  92.2705291  90.7982572  75.9335963  93.6135313  90.6516789  76.6167788
  92.9548670  98.7568237  78.2653650  92.3020120  99.0044145  77.6106103
  93.3329050  97.9432375  77.9316127  89.9155844 108.7927930  72.3681820
  90.0978238 107.9749586  72.8309573  90.7388830 109.0095622  71.9306710
  90.2498009 107.7196115  69.6296869  90.7785775 107.2088570  69.0167031
  90.5126229 107.4038646  70.4942402  89.0036243  99.4988048  84.7519687
  88.3276880  99.3982177  85.4222062  89.8263877  99.3427262  85.2155684
  80.7515102 105.7359985  77.3732202  81.3368539 104.9903673  77.5060107
  80.5539940 106.0463941  78.2568866  83.6053757 108.7711232  72.3894645
  82.9364132 109.2557360  71.9058685  83.4666627 109.0180453  73.3038023
  75.3432756  98.3065585  76.0936646  75.3816856  97.7729176  76.8873764
  74.8373049  97.7800790  75.4747623  87.7459026 110.8054976  78.9877303
  88.2977334 110.9686597  79.7526388  88.0865219 111.3959413  78.3157328
  82.7223519  93.1530125  79.5899188  82.7864845  94.0144956  79.1776586
  82.6590639  92.5404127  78.8571546  82.1975791  95.2253258  83.2372222
  82.8247830  94.8430335  83.8509746  81.3403710  95.0067460  83.6027915
  92.5969900 105.6316233  84.8425958  93.1409804 106.2446191  84.3480912
  92.0156745 106.1895811  85.3592971  78.9741334  97.0329687  69.1690577
  79.2694775  96.1240365  69.1157631  78.0729370  97.0117426  68.8471579
  90.8827413 108.7536951  75.9740985  90.7578552 107.9526691  75.4651931
  91.5406504 109.2483144  75.4854955  82.5035581  95.1085684  75.1518126
  81.7822167  95.7221651  75.0125599  83.2928837  95.6443448  75.0734771
  92.9462321 106.5545971  77.6020535  91.9992657 106.4351322  77.5298862
  93.2945094 105.6668469  77.6846797  85.3061895  92.4440110  81.4258777
  85.8296296  92.6902407  82.1885087  85.0874228  93.2760145  81.0061915
  80.7029176  94.7143785  69.2929902  80.3741882  93.8341164  69.1105008
  81.0568546  94.6591453  70.1806291  89.9508755 106.3498687  73.8024888
  89.8033717 105.4215395  73.9832458  90.7762248 106.3718778  73.3181963
  83.8170999  95.0016754  69.6605380  84.1567071  95.5302676  68.9383988
  84.2643119  95.3397161  70.4363946  93.5542876 107.1727246  74.8889760
  94.4789424 106.9670107  74.7514212  93.3858180 106.9243647  75.7979102
  86.5114440  93.3853805  79.1108448  86.1711260  92.5861618  79.5129128
  85.8053446  93.6855516  78.5385281  87.1630911  90.4703118  77.5635771
  87.9856981  89.9963596  77.4414661  87.4068975  91.2493601  78.0634457
  85.8039146  93.4991376  67.8598673  86.5247508  93.8772629  67.3562389
  85.1804450  94.2180253  67.9633650  89.9470269  94.2036525  68.7957005
  90.1633883  95.0861163  68.4945833  89.4664336  93.8122738  68.0662647
  84.6869490  97.1622238  75.3727749  84.5414071  97.4762541  76.2652031
  84.2094694  97.7807139  74.8198648  86.5465873  94.1524786  75.4208639
  86.5327442  93.2565880  75.0840937  87.2638301  94.1595450  76.0546925
  88.3992004  94.5862126  77.4661766  88.1409782  95.5079197  77.4646097
  87.8677044  94.1892561  78.1562231  93.3438193 107.6912914  70.2451852
  93.5175070 107.1259336  69.4925704  93.8367084 108.4913808  70.0631342
  79.1615152  99.7027583  78.3115411  78.6168620 100.4787391  78.4435685
  80.0394502 100.0498387  78.1534532  85.9502769  93.0339167  70.6896209
  86.0718680  92.1055813  70.8887097  85.6604811  93.0477853  69.7774525
  88.8193959  90.7194077  73.8262929  88.8415656  90.7833410  72.8714909
  89.2362018  89.8798586  74.0203435  99.1977584 100.4549337  71.8642152
  99.6408730  99.7056662  71.4661275  98.3204094 100.4459473  71.4815884
  94.3313365 107.0079678  67.3448750  95.0264270 107.6286371  67.5636065
  94.6736515 106.1575029  67.6201128  79.9481174  98.8297479  81.2045567
  79.2062910  98.9780114  81.7910198  79.6273919  99.0905745  80.3412317
  96.2304788 104.4579384  68.8736081  96.7556112 104.7966656  68.1485401
  96.1427141 103.5226399  68.6899215  87.8924837 108.3713457  81.0025958
  88.2011963 108.1262604  81.8748657  88.6900319 108.5760096  80.5144828
  87.9145449 110.5251367  73.2331334  87.4750439 110.0327745  73.9264191
  88.6653566 109.9824334  72.9923409  80.3937788 106.7162908  73.2355962
  81.2195808 106.4166680  72.8554606  80.0431840 105.9470530  73.6845751
  85.3619321 106.0689376  75.3053636  84.7399330 105.4060081  75.0055864
  86.0324188 106.0950508  74.6227284  78.5946393 104.6349234  74.1944896
  77.7578301 104.2071408  74.0128897  78.5670038 104.8281677  75.1315687
  85.4343849  94.5471164  84.8986142  85.4832004  95.4233287  84.5163911
  85.9766363  94.0048557  84.3257785  95.9198694 105.0912287  84.1787279
  95.1294238 105.0736426  83.6391778  95.6832049 105.6300581  84.9336315
  96.0396569 101.9404754  81.4920007  96.0894574 101.7754761  82.4335530
  95.9310493 101.0732013  81.1017888  84.9232828 104.6193299  68.7812096
  85.0720948 105.3028764  68.1278769  85.7299271 104.5998389  69.2961552
  93.3300332  97.9235682  82.8079314  94.2310194  97.7842146  82.5163312
  93.4048306  98.0890136  83.7477492  87.6643137  95.3002536  81.6532500
  86.7946446  95.5936102  81.3815089  87.9002617  95.8842981  82.3739764
  97.5414766 104.3601695  81.7362029  97.2499574 104.7231676  82.5725490
  96.9286897 103.6468703  81.5575361  98.7410448 101.9254575  74.2564599
  99.5757340 102.3644379  74.4202159  98.8769577 101.4493228  73.4372845
  95.7901954  99.4834310  80.2042087  96.2656076  99.6761956  79.3960938
  94.8667520  99.5393496  79.9585471  82.6785461 100.6458477  69.7873165
  82.4331503  99.7420807  69.9853375  82.8481376 100.6475627  68.8452643
  90.3682171  91.5182153  79.1697921  90.8864115  92.2543180  78.8444409
  90.0137304  91.8246147  80.0044680  81.9481109  96.3786834  67.2859327
  81.2550353  96.4531189  66.6299363  81.7032860  95.6147178  67.8080844
  90.6194765  87.9382436  74.6898817  90.8996519  87.2705625  75.3159244
  91.4045372  88.1311531  74.1773481  88.4228234 107.1141430  66.2523844
  87.8502201 107.7331617  65.7994316  88.9961027 107.6640791  66.7863766
  94.4903623  96.3600070  78.4370392  95.4421046  96.4598167  78.4582617
  94.3207074  95.5678338  78.9468477  92.5118003  93.4455653  78.6229793
  91.9167935  93.7260666  77.9276282  92.2267700  93.9349554  79.3946535
  91.6425493 107.3978580  67.3832426  92.5756166 107.3324141  67.5865301
  91.5548706 108.2334847  66.9246959  94.2713510 106.7144450  64.3436374
  94.1927142 106.3804314  65.2372131  95.0923177 107.2066218  64.3427846
  96.9691701  99.5806189  77.5512692  96.9368021  98.6422190  77.7372376
  97.5792325  99.6590226  76.8178517  88.8075032  98.4502242  63.5939896
  89.7534137  98.3208451  63.6628314  88.4289277  97.7116904  64.0709324
  97.1186190  96.3717233  77.5970975  96.6025238  95.5875690  77.4100904
  98.0026138  96.0435950  77.7617495  94.7796917  90.1158248  73.5566788
  94.5821738  89.8073337  74.4410120  95.3896622  90.8419887  73.6864718
 102.7868251 100.6422196  76.6918729 103.5171639 100.3807484  77.2526432
 102.1775196  99.9050918  76.7320797 100.8683548  98.7830059  77.2893180
 100.1416712  98.6486024  76.6809672 100.4530835  99.0906887  78.0949898
  88.6913725 102.5019989  85.0540553  89.6116734 102.6798588  85.2480600
  88.6563308 101.5576034  84.9020252  86.9917949  96.3752219  63.5294781
  86.0849405  96.0785332  63.6057495  87.2693930  96.0782037  62.6629068
  77.9095890  97.6958582  73.9793828  77.5898674  96.8423890  73.6868202
  77.3629318  97.9107160  74.7351795  81.6875797 100.4121023  77.6963334
  81.9061807 101.3438131  77.7151368  82.1001571 100.0528998  78.4818138
  88.6080015  90.9189109  69.6839023  87.7980743  90.5736194  70.0594269
  89.2964432  90.6096652  70.2726634  90.5370563  89.9967155  71.3063319
  91.0901602  90.4162609  71.9653342  90.7740650  89.0702903  71.3486275
  86.5603662  95.9854229  87.0866083  86.4600389  96.9348586  87.0178174
  86.3425204  95.6572468  86.2142153  85.7616734  93.2339154  63.6706761
  86.6235898  93.5594052  63.9302578  85.9467078  92.4470650  63.1579826
  77.7784150 101.3161494  75.9486949  77.0847621 100.9015447  75.4356904
  78.5257141 101.3582030  75.3520368  93.9149370  92.1067680  70.8141984
  93.3348039  92.7652485  70.4320036  93.6485303  91.2845025  70.4029401
  92.3652937  91.5072738  73.0163304  92.8652715  91.6189273  72.2077623
  93.0088545  91.2033791  73.6564112  86.4234932  99.4151368  85.9031145
  85.9402014 100.2151728  86.1095034  86.5095872  99.4259313  84.9498589
  79.6920892 101.2479747  73.8252964  79.6691580 101.3467435  72.8734847
  80.0021529 102.0944898  74.1470130  82.3508270 103.3055903  77.9399579
  83.3051524 103.2739845  77.8729510  82.1520794 102.8446526  78.7549805
  82.9407652 101.8757019  80.5070376  83.7600541 102.3701097  80.5305214
  83.2144460 100.9588987  80.4787944  92.6974248  94.2667771  69.8698332
  91.8100103  94.5517422  69.6518527  93.1128237  94.1061534  69.0225609
  96.0488784  94.2914292  73.5852671  96.8249175  94.7810744  73.8577288
  95.3236919  94.7172346  74.0424541  98.4861343  95.0041911  74.6426612
  99.0805834  94.7637647  73.9319920  98.5587927  94.2849042  75.2700148
  80.7058499 108.8475522  74.9569777  80.5712967 108.0875923  74.3907775
  80.2890561 109.5716422  74.4898565  91.8417462 104.0312446  63.9646352
  92.5453312 104.2362448  64.5804007  91.1180111 104.5989207  64.2295435
  92.6715272  99.7822307  70.0848622  92.6150473 100.2390858  69.2456254
  93.2243615  99.0212991  69.9071465  96.4820078  95.5712039  70.9098742
  96.2257012  95.1708674  71.7406949  95.8572946  96.2855833  70.7848881
 100.7932416  98.3108112  73.4170033 100.2331974  98.3801301  74.1901595
 100.1875919  98.1349097  72.6969529  83.8627625 109.7444839  75.1688219
  83.7460009 110.6890272  75.0666909  83.0420071 109.4418401  75.5574018
  93.7504159 104.4694975  66.0144812  94.5849763 104.0376173  65.8322287
  93.5888502 104.2976988  66.9421706  93.4050051 100.9727088  67.3801151
  93.3498855 100.8071359  66.4389595  92.7796107 101.6803121  67.5363341
  78.1942566  96.2095152  81.2062573  78.8401430  95.6994106  81.6949799
  77.9859717  96.9463834  81.7805999  90.7195959 103.2776000  86.7054714
  91.5887118 103.4516652  86.3441349  90.2402710 104.0970417  86.5830443
  86.7146177  90.4735197  66.9586470  86.7024847  91.4177037  67.1154740
  87.6069599  90.2905342  66.6645931  84.8882139 110.3973101  78.3844148
  85.7909385 110.4296711  78.7010643  84.6619509 109.4673552  78.3990483
  86.6435741 109.1504087  75.0454226  85.6931372 109.1505949  74.9318599
  86.9468227 108.4036822  74.5290261  90.5298296  87.0677974  71.2132406
  89.7630692  86.5136460  71.3589089  90.9409001  87.1399842  72.0746558
  82.5340057  93.3562770  85.3037588  83.3971519  92.9999574  85.5140912
  81.9605468  93.0176664  85.9912992 102.3788434 114.9864626  76.1099989
 103.0166844 114.8671373  75.4063329 102.2609277 115.9345470  76.1687941
  99.1878141 114.9392054  76.0461513  98.8496652 114.8233119  75.1582048
 100.0567909 114.5383219  76.0262519  95.0464956 116.7927530  72.0358404
  94.4829821 116.7017467  71.2674692  94.9317351 115.9727435  72.5160897
  99.6697924 116.0926906  82.0047719  99.6586564 115.6979704  81.1328223
  99.8318563 115.3592978  82.5981490  92.5929388 118.2878722  74.8742625
  93.3850680 117.9469547  74.4588924  92.8326038 118.3973697  75.7944778
  94.5520142 117.5487635  67.7460004  95.3251018 117.0016622  67.6072879
  94.9045541 118.4131885  67.9574465  96.3905185 118.8764017  80.9526903
  96.0995051 119.7809648  80.8373569  97.0262169 118.9180545  81.6670972
  97.3161392 116.2540866  77.5428263  97.9124964 116.0296888  76.8285225
  97.3736363 115.5125611  78.1453710  96.8886420 113.7080301  65.3778453
  97.1411941 113.1861823  64.6161916  95.9510979 113.5446447  65.4805137
 101.9329703 112.7116080  73.1853197 102.7192792 112.2935503  72.8343614
 102.1968407 113.6162172  73.3534845 102.1039780 118.1488930  67.8841854
 101.4685613 118.2223557  68.5962758 101.7737187 118.7382529  67.2060933
 107.3338130 112.6491313  74.0886175 108.0663302 112.0790530  74.3224005
 106.5777486 112.2612913  74.5292681  96.6082709 115.6108407  67.5802828
  96.4918967 114.9353311  68.2483913  96.7184969 115.1240781  66.7634981
  98.9514250 115.0718554  71.2849518  98.5872457 114.5449175  71.9962439
  99.8081366 114.6817023  71.1116003 104.8563550 106.3612887  78.5480784
 104.5246875 107.2308298  78.3241999 104.2609164 106.0449171  79.2274814
  98.5919737 110.1008454  66.2810866  98.7594139 110.9688691  66.6481337
  98.4016906 110.2635736  65.3572155 101.3495070 118.5625433  77.9476697
 101.0495793 119.4650472  77.8392504 101.0046129 118.2957616  78.7997849
  94.8007551 115.0139230  73.9813401  93.8758048 114.8815444  74.1891093
  95.0491964 115.7933449  74.4783343 104.7492214 111.0807973  75.6274134
 103.8409091 111.0123382  75.3332895 104.6979809 111.5579918  76.4555959
  98.5708957 112.5566112  67.2657533  98.4508583 113.0023162  68.1043013
  97.8761546 112.9051429  66.7071071  92.1616362 114.6572503  74.8157190
  92.2908743 114.9106982  75.7296602  91.4813814 115.2500211  74.4961845
  98.8233079 112.4997619  83.5709031  98.0466413 113.0591539  83.5611896
  99.4623642 112.9854402  84.0923901 106.6153860 109.2824412  77.4052008
 105.9728240 109.5756945  76.7591802 106.1108788 109.1677332  78.2105204
 104.2694024 113.0287585  68.0937867 105.1811880 113.2614972  67.9185565
 103.7603671 113.6124629  67.5312946  97.0779452 115.3083072  83.1326998
  97.8194136 115.8468116  82.8561822  96.3716437 115.9349361  83.2898550
 102.5534791 117.4512213  81.7299160 102.9618147 117.0094623  80.9853792
 101.8312053 116.8764840  81.9833353  98.9065861 112.3884819  79.1032717
  99.7527057 112.8124233  79.2467366  98.8464499 111.7318444  79.7971280
 102.8763606 118.0113403  75.4851449 102.2472468 118.1759117  74.7827516
 102.4889268 118.4255013  76.2562413 102.0565307 110.0489188  80.7613890
 101.8126239 110.8031248  80.2248166 102.3325237 110.4274535  81.5961137
 104.0103769 116.5927800  79.4391156 104.2220665 117.2359560  78.7625537
 103.9633518 115.7590117  78.9713086 101.6129998 109.2045621  76.3427728
 100.7514477 109.5026874  76.6344466 101.6392433 109.4216020  75.4108761
  98.4291568 117.7487811  72.7501534  98.8929913 118.0275514  71.9606156
  98.1648366 116.8471256  72.5674624  95.3215649 117.2959293  75.6881297
  95.8917006 117.7246561  75.0498781  95.9123761 117.0141878  76.3865483
  97.3660454 113.8710964  69.5591099  98.0684497 114.3232007  70.0265025
  97.0341082 113.2294783  70.1870992  95.8140815 112.4622720  83.9342308
  95.1839476 113.1439001  84.1677705  95.7076903 112.3505802  82.9895446
  91.1085788 112.1294516  74.8608232  90.3184842 112.3852045  74.3848343
  91.5997035 112.9442854  74.9660273  93.0600533 112.4939096  71.8191709
  92.2631696 112.6057790  72.3375205  92.8326125 112.8325748  70.9532600
  98.8906201 119.0183799  79.7674224  98.9550633 119.4804206  80.6032395
  98.1817125 118.3881164  79.8956533  89.3923491 112.3825007  77.2923223
  89.6431529 113.2672017  77.5580799  89.9283039 112.2029608  76.5198315
  98.6054218 120.6851906  69.6353204  98.4699893 121.5303442  70.0638052
  99.1464031 120.8871184  68.8719138  95.0921558 106.7643486  86.2967559
  94.6988504 106.2109685  86.9715203  95.9087698 107.0754065  86.6874077
  92.0583616 118.2027344  70.2081129  92.5708136 118.9970595  70.3586694
  92.7106329 117.5053635  70.1414731  93.8678501 121.3193101  72.2903882
  94.0445129 122.2411065  72.1024866  94.6635334 121.0051520  72.7198262
  98.0089519 108.1801365  83.8887816  98.7499232 108.7808518  83.8092278
  98.2407442 107.4379003  83.3305858  93.1530857 113.3657733  82.1666045
  93.0384372 112.4642990  82.4673144  92.2975375 113.6121429  81.8150862
  94.9909816 122.8371274  78.2914225  95.5417241 122.7088338  77.5191219
  94.1521292 123.1366163  77.9409117  98.7876987 119.1022402  82.6358456
  99.3205324 118.3410690  82.4057764  98.2591068 118.8096054  83.3782610
 101.9546682 104.2082468  78.1652097 101.6110951 105.0984110  78.0891208
 102.3225645 104.0184126  77.3021682  90.0232533 116.5315999  70.9840700
  90.8607755 116.9413007  70.7674407  90.2010800 115.5915441  70.9540893
 101.9196965 114.1991079  66.6724533 101.4043588 114.9695684  66.9112920
 101.6474273 113.5256215  67.2957594  99.5044076 109.0440780  71.7309771
  98.6485672 108.6547630  71.5515410  99.9171028 109.1232741  70.8709556
 101.0343222 106.5787123  76.1301331 100.5308018 106.5417259  75.3169136
 101.3273829 107.4879866  76.1897987  97.2786108 106.6625853  75.1367512
  98.1439105 106.4668662  74.7773402  97.3463617 106.4336205  76.0636869
 101.7083268 112.0718171  68.4984314 101.4033404 112.3864321  69.3494457
 102.6613710 112.1499591  68.5411647 100.1529700 118.2308395  70.1477268
  99.6251061 117.4961154  69.8350505  99.6517203 119.0083071  69.9017236
  94.8848427 108.8928061  72.5083879  95.4592179 108.6703242  71.7757072
  95.4719410 108.9616756  73.2612481 103.9428005 114.7801788  73.3148256
 104.4559886 115.4131780  73.8169965 104.5929228 114.1802983  72.9491616
  95.2118014 110.9232522  66.5279764  94.3755327 111.2607209  66.8489039
  95.0722784 110.7881502  65.5906901  97.1871095 105.7669310  71.2358949
  96.5335507 105.4518327  70.6115563  97.1451569 105.1445050  71.9618772
  98.2982300 116.0488605  63.1512241  97.3909362 115.8177858  63.3503390
  98.7953332 115.2526224  63.3386222 100.4208835 112.2551243  75.5606596
  99.5031397 112.4766190  75.4028284 100.8368979 112.3297554  74.7018304
 101.2043883 113.6542659  70.6909277 101.9515702 114.1664056  70.3816399
 101.4735473 113.3326712  71.5513670  99.4770533 116.1501200  67.6736231
  98.5681753 115.8660233  67.7708701  99.5065617 116.5700278  66.8139538
 103.6522720 110.6899775  72.6728066 102.9145477 110.1777162  73.0038308
 103.9049494 110.2500157  71.8611343 103.7534348 103.4676027  73.2669835
 104.0593225 102.6073391  72.9795750 104.4786953 104.0593648  73.0668829
  90.0458704 113.8706714  71.6551433  89.8483104 113.2776075  70.9302500
  89.4905368 113.5658924  72.3727372  98.0255427 113.7629820  73.7746026
  98.0804037 112.8103657  73.6988503  97.2146629 113.9189260  74.2587325
  99.1746621 117.6909944  65.0124309  98.7366051 116.9745802  64.5529947
  99.9157062 117.9186058  64.4509401  95.9647787 112.3806880  71.5336405
  95.1515653 112.6801051  71.9401597  96.4606782 111.9862569  72.2510887
 101.5621999 112.8448705  80.3651299 101.9171387 113.0720178  81.2245765
 102.2094130 113.1767081  79.7428554  95.4561862 109.9525236  77.1497640
  96.0961241 109.8113995  76.4520603  94.6239393 109.6659749  76.7736242
  96.2322166 119.2527666  73.2632632  97.0262765 118.7577986  73.0615207
  95.5213858 118.7245529  72.9000338  92.5404929 113.3970748  69.3392385
  91.6102518 113.3355203  69.5562347  92.6362401 112.8746701  68.5429026
  92.4590479 109.9225561  71.9270627  92.7197296 110.8370894  71.8179787
  93.2807651 109.4550003  72.0767240  93.9315404 111.3363318  79.0969451
  94.6038457 111.1280680  78.4482100  93.1045190 111.1385404  78.6574684
  99.8340976 107.9625259  81.1135112  99.1868891 108.6615208  81.0199589
 100.6041991 108.3961403  81.4811360 100.0105110 115.8006024  79.1731932
 100.9397170 115.9517183  79.0000899  99.5896140 115.8890044  78.3180578
  98.8093442 119.8256688  76.9430470  98.6704528 119.4575473  77.8156408
  98.0208038 120.3404328  76.7714427 100.3598657 119.2038291  74.3319307
 100.0248490 119.1639061  75.2276957  99.8602603 118.5383007  73.8589718
  94.3342901 114.6105921  79.8571888  94.1962699 113.8786160  80.4583428
  95.2447825 114.5214821  79.5756076 103.2957849 116.5494325  64.6056367
 102.6787019 115.8241153  64.5089420 102.8274337 117.3103685  64.2623441
  96.9625202 114.3225880  79.3455568  97.6724820 113.6819072  79.3042187
  96.9194510 114.5738775  80.2681749  95.6754136 111.3091098  81.1651208
  95.1391493 110.8581837  81.8172804  95.0870844 111.4437007  80.4221672
  95.0856395 110.7679749  63.7277671  94.2085861 110.6468550  63.3639918
  95.5614148 109.9765828  63.4756560  86.6058535 115.5556909  73.8219178
  87.2929575 115.2418639  73.2340194  86.4506664 116.4598274  73.5486430
  91.4093257 110.4447106  78.2504202  91.3251446 109.8372775  77.5154612
  90.5875963 110.9356124  78.2513698 101.5816971 108.9300669  73.6174397
 102.0785670 108.1770632  73.2975467 100.8103952 108.9664986  73.0517606
 102.6646752 117.6872357  71.1912821 101.7303030 117.8073819  71.0217525
 102.8423420 116.7844823  70.9272830  98.1651940 111.0718052  73.3446082
  97.7949727 110.5189093  74.0326987  98.6611032 110.4676186  72.7921082
 106.0519303 113.5289676  71.7262855 106.5179755 114.3617667  71.6523157
 106.5026803 113.0634657  72.4308113  95.9941138 121.5315547  80.4401100
  96.6950598 122.1652030  80.5930494  95.5236253 121.8730279  79.6796739
 104.0235966 105.8970263  75.7653756 103.1099045 106.1274490  75.9335963
 104.4529067 105.9808707  76.6167788 103.7942424 114.0860155  78.2653650
 103.1413874 114.3336062  77.6106103 104.1722804 113.2724293  77.9316127
  99.8429997 114.8279966  84.7519687  99.1670634 114.7274095  85.4222062
 100.6657631 114.6719180  85.2155684  91.5908856 121.0651902  77.3732202
  92.1762293 120.3195590  77.5060107  91.3933695 121.3755859  78.2568866
  94.4447511 124.1003150  72.3894645  93.7757887 124.5849277  71.9058685
  94.3060381 124.3472370  73.3038023  86.1826511 113.6357503  76.0936646
  86.2210610 113.1021093  76.8873764  85.6766804 113.1092708  75.4747623
  93.5617273 108.4822043  79.5899188  93.6258600 109.3436874  79.1776586
  93.4984394 107.8696045  78.8571546  93.0369546 110.5545176  83.2372222
  93.6641585 110.1722253  83.8509746  92.1797465 110.3359378  83.6027915
  89.8135089 112.3621605  69.1690577  90.1088530 111.4532283  69.1157631
  88.9123124 112.3409344  68.8471579  93.3429336 110.4377601  75.1518126
  92.6215921 111.0513569  75.0125599  94.1322591 110.9735366  75.0734771
  96.1455649 107.7732028  81.4258777  96.6690051 108.0194324  82.1885087
  95.9267982 108.6052063  81.0061915  91.5422930 110.0435702  69.2929902
  91.2135636 109.1633081  69.1105008  91.8962301 109.9883371  70.1806291
  94.6564753 110.3308672  69.6605380  94.9960826 110.8594593  68.9383988
  95.1036874 110.6689078  70.4363946  97.3508194 108.7145723  79.1108448
  97.0105014 107.9153536  79.5129128  96.6447200 109.0147434  78.5385281
  98.0024666 105.7995035  77.5635771  98.8250735 105.3255514  77.4414661
  98.2462729 106.5785519  78.0634457  96.6432900 108.8283294  67.8598673
  97.3641263 109.2064547  67.3562389  96.0198205 109.5472171  67.9633650
 100.7864023 109.5328443  68.7957005 101.0027638 110.4153081  68.4945833
 100.3058090 109.1414656  68.0662647  95.5263245 112.4914156  75.3727749
  95.3807825 112.8054459  76.2652031  95.0488448 113.1099056  74.8198648
  97.3859628 109.4816704  75.4208639  97.3721196 108.5857797  75.0840937
  98.1032056 109.4887368  76.0546925  99.2385758 109.9154044  77.4661766
  98.9803536 110.8371115  77.4646097  98.7070799 109.5184479  78.1562231
  90.0008907 115.0319500  78.3115411  89.4562375 115.8079308  78.4435685
  90.8788257 115.3790305  78.1534532  96.7896524 108.3631084  70.6896209
  96.9112435 107.4347730  70.8887097  96.4998566 108.3769770  69.7774525
  99.6587714 106.0485995  73.8262929  99.6809411 106.1125328  72.8714909
 100.0755773 105.2090503  74.0203435  90.7874929 114.1589397  81.2045567
  90.0456665 114.3072032  81.7910198  90.4667673 114.4197662  80.3412317
  91.2331542 122.0454825  73.2355962  92.0589562 121.7458597  72.8554606
  90.8825594 121.2762448  73.6845751  96.2013076 121.3981294  75.3053636
  95.5793085 120.7351999  75.0055864  96.8717942 121.4242425  74.6227284
  89.4340147 119.9641152  74.1944896  88.5972056 119.5363326  74.0128897
  89.4063793 120.1573595  75.1315687  96.2737603 109.8763082  84.8986142
  96.3225759 110.7525204  84.5163911  96.8160117 109.3340475  84.3257785
  95.7626582 119.9485217  68.7812096  95.9114703 120.6320681  68.1278769
  96.5693026 119.9290307  69.2961552 104.1694086 113.2527599  82.8079314
 105.0703949 113.1134064  82.5163312 104.2442061 113.4182054  83.7477492
  98.5036892 110.6294454  81.6532500  97.6340201 110.9228020  81.3815089
  98.7396372 111.2134899  82.3739764 106.6295709 114.8126227  80.2042087
 107.1049830 115.0053874  79.3960938 105.7061274 114.8685413  79.9585471
  93.5179215 115.9750395  69.7873165  93.2725257 115.0712725  69.9853375
  93.6875130 115.9767545  68.8452643 101.2075925 106.8474071  79.1697921
 101.7257869 107.5835098  78.8444409 100.8531058 107.1538064  80.0044680
  92.7874863 111.7078752  67.2859327  92.0944108 111.7823107  66.6299363
  92.5426615 110.9439096  67.8080844 101.4588520 103.2674353  74.6898817
 101.7390273 102.5997543  75.3159244 102.2439126 103.4603449  74.1773481
 105.3297378 111.6891987  78.4370392 106.2814801 111.7890085  78.4582617
 105.1600828 110.8970256  78.9468477 103.3511757 108.7747571  78.6229793
 102.7561689 109.0552583  77.9276282 103.0661454 109.2641472  79.3946535
  99.6468787 113.7794160  63.5939896 100.5927891 113.6500368  63.6628314
  99.2683031 113.0408822  64.0709324 107.9579944 111.7009151  77.5970975
 107.4418993 110.9167607  77.4100904 108.8419893 111.3727867  77.7617495
 105.6190671 105.4450166  73.5566788 105.4215492 105.1365254  74.4410120
 106.2290377 106.1711805  73.6864718  99.5307479 117.8311906  85.0540553
 100.4510489 118.0090505  85.2480600  99.4957062 116.8867952  84.9020252
  97.8311704 111.7044136  63.5294781  96.9243159 111.4077249  63.6057495
  98.1087685 111.4073955  62.6629068  88.7489644 113.0250500  73.9793828
  88.4292428 112.1715808  73.6868202  88.2023072 113.2399078  74.7351795
  92.5269552 115.7412941  77.6963334  92.7455561 116.6730049  77.7151368
  92.9395325 115.3820915  78.4818138  99.4473769 106.2481026  69.6839023
  98.6374498 105.9028111  70.0594269 100.1358186 105.9388570  70.2726634
 101.3764318 105.3259073  71.3063319 101.9295356 105.7454526  71.9653342
 101.6134404 104.3994821  71.3486275  97.3997417 111.3146147  87.0866083
  97.2994144 112.2640504  87.0178174  97.1818959 110.9864386  86.2142153
  96.6010488 108.5631072  63.6706761  97.4629652 108.8885970  63.9302578
  96.7860832 107.7762568  63.1579826  88.6177904 116.6453411  75.9486949
  87.9241375 116.2307364  75.4356904  89.3650895 116.6873948  75.3520368
 104.7543125 107.4359598  70.8141984 104.1741794 108.0944402  70.4320036
 104.4879057 106.6136943  70.4029401 103.2046691 106.8364656  73.0163304
 103.7046469 106.9481190  72.2077623 103.8482299 106.5325709  73.6564112
  97.2628687 114.7443286  85.9031145  96.7795769 115.5443646  86.1095034
  97.3489626 114.7551230  84.9498589  90.5314647 116.5771665  73.8252964
  90.5085335 116.6759352  72.8734847  90.8415283 117.4236816  74.1470130
  93.1902024 118.6347820  77.9399579  94.1445278 118.6031763  77.8729510
  92.9914548 118.1738444  78.7549805  93.7801407 117.2048936  80.5070376
  94.5994296 117.6993015  80.5305214  94.0538214 116.2880904  80.4787944
 103.5368003 109.5959689  69.8698332 102.6493858 109.8809339  69.6518527
 103.9521992 109.4353452  69.0225609 106.8882539 109.6206210  73.5852671
 107.6642929 110.1102662  73.8577288 106.1630673 110.0464264  74.0424541
 109.3255098 110.3333829  74.6426612 109.9199588 110.0929565  73.9319920
 109.3981681 109.6140959  75.2700148  91.5452253 124.1767440  74.9569777
  91.4106721 123.4167841  74.3907775  91.1284316 124.9008340  74.4898565
 103.5109027 115.1114224  70.0848622 103.4544228 115.5682776  69.2456254
 104.0637369 114.3504909  69.9071465 107.3213832 110.9003956  70.9098742
 107.0650767 110.5000592  71.7406949 106.6966700 111.6147750  70.7848881
 104.2443806 116.3019006  67.3801151 104.1892610 116.1363277  66.4389595
 103.6189861 117.0095039  67.5363341  89.0336321 111.5387070  81.2062573
  89.6795184 111.0286024  81.6949799  88.8253472 112.2755752  81.7805999
  97.5539931 105.8027115  66.9586470  97.5418601 106.7468955  67.1154740
  98.4463353 105.6197260  66.6645931 101.3692051 102.3969891  71.2132406
 100.6024447 101.8428378  71.3589089 101.7802756 102.4691760  72.0746558
  93.3733812 108.6854687  85.3037588  94.2365273 108.3291492  85.5140912
  92.7999222 108.3468582  85.9912992  37.3425909   0.0175242  62.8345295
  37.9804319  -0.1018010  62.1308635  37.2246751   0.9656086  62.8933247
  34.1515615  -0.0297329  62.7706820  33.8134126  -0.1456265  61.8827355
  35.0205383  -0.4306164  62.7507826  30.0102431   1.8238147  58.7603711
  29.4467296   1.7328084  57.9919999  29.8954826   1.0038051  59.2406203
  34.6335398   1.1237522  68.7293026  34.6224039   0.7290321  67.8573529
  34.7956037   0.3903595  69.3226797  27.5566862   3.3189339  61.5987931
  28.3488154   2.9780163  61.1834231  27.7963513   3.4284314  62.5190085
  35.5901989   5.4909115  54.0718176  34.9389969   6.0763195  53.6852190
  36.3846352   6.0215310  54.1313213  29.5157616   2.5798252  54.4705310
  30.2888492   2.0327239  54.3318186  29.8683015   3.4442501  54.6819772
  31.3542659   3.9074634  67.6772209  31.0632525   4.8120265  67.5618876
  31.9899643   3.9491162  68.3916279  32.2798866   1.2851483  64.2673569
  32.8762438   1.0607505  63.5530532  32.3373837   0.5436228  64.8699017
  31.8523894  -1.2609082  52.1023760  32.1049415  -1.7827561  51.3407223
  30.9148453  -1.4242937  52.2050444  36.8967177  -2.2573304  59.9098503
  37.6830266  -2.6753881  59.5588920  37.1605881  -1.3527212  60.0780152
  37.0677254   3.1799547  54.6087160  36.4323087   3.2534173  55.3208065
  36.7374661   3.7693145  53.9306239  42.2975604  -2.3198071  60.8131482
  43.0300776  -2.8898854  61.0469311  41.5414960  -2.7076470  61.2537987
  31.5720183   0.6419024  54.3048135  31.4556441  -0.0336073  54.9729219
  31.6822443   0.1551398  53.4880288  33.9151724   0.1029171  58.0094824
  33.5509931  -0.4240208  58.7207746  34.7718840  -0.2872360  57.8361310
  39.8201025  -8.6076496  65.2726090  39.4884349  -7.7381085  65.0487305
  39.2246638  -8.9240212  65.9520121  33.5557211  -4.8680929  53.0056173
  33.7231613  -4.0000693  53.3726644  33.3654380  -4.7053648  52.0817462
  36.3132544   3.5936050  64.6722003  36.0133267   4.4961088  64.5637810
  35.9683604   3.3268233  65.5243156  29.7645026   0.0449846  60.7058708
  28.8395522  -0.0873940  60.9136399  30.0129439   0.8244066  61.2028650
  39.7129688  -3.8881410  62.3519440  38.8046565  -3.9566002  62.0578201
  39.6617284  -3.4109465  63.1801266  33.5346432  -2.4123272  53.9902840
  33.4146057  -1.9666221  54.8288320  32.8399020  -2.0637954  53.4316378
  27.1253837  -0.3116880  61.5402497  27.2546218  -0.0582401  62.4541908
  26.4451288   0.2810828  61.2207152  31.2953324  10.3580370  57.6392971
  31.2177354  11.3088195  57.7181451  30.6914967  10.0126242  58.2967897
  33.7870554  -2.4691765  70.2954338  33.0103888  -1.9097845  70.2857202
  34.4261117  -1.9834982  70.8169208  41.5791334  -5.6864972  64.1297314
  40.9365715  -5.3932439  63.4837109  41.0746263  -5.8012052  64.9350511
  39.2331498  -1.9401799  54.8183174  40.1449354  -1.7074412  54.6430871
  38.7241145  -1.3564754  54.2558252  32.0416926   0.3393689  69.8572305
  32.7831610   0.8778733  69.5807128  31.3353911   0.9659977  70.0143857
  37.5172266   2.4822829  68.4544466  37.9255622   2.0405240  67.7099099
  36.7949527   1.9075457  68.7078659  33.8703336  -2.5804564  65.8278023
  34.7164531  -2.1565151  65.9712672  33.8101973  -3.2370940  66.5216586
  37.8401080   3.0424020  62.2096755  37.2109943   3.2069734  61.5072823
  37.4526742   3.4565629  62.9807719  41.7190312   3.9778458  59.5641119
  41.0341350   4.3577359  59.0138152  41.8034161   4.5873784  60.2973067
  37.0202781  -4.9200196  67.4859197  36.7763713  -4.1658135  66.9493473
  37.2962711  -4.5414848  68.3206444  38.9741244   1.6238417  66.1636462
  39.1858139   2.2670177  65.4870844  38.9270992   0.7900733  65.6958393
  36.5767473  -5.7643763  63.0673035  35.7151952  -5.4662509  63.3589772
  36.6029907  -5.5473364  62.1354067  33.3929042   2.7798428  59.4746840
  33.8567388   3.0586131  58.6851463  33.1285840   1.8781872  59.2919931
  30.2853123   2.3269909  62.4126603  30.8554480   2.7557178  61.7744088
  30.8761235   2.0452494  63.1110789  32.3297928  -1.0978420  56.2836405
  33.0321972  -0.6457376  56.7510332  31.9978557  -1.7394601  56.9116299
  30.7778290  -2.5066663  70.6587615  30.1476950  -1.8250382  70.8923012
  30.6714378  -2.6183582  69.7140753  40.0887072   4.5010372  64.3358820
  40.9104515   4.0990559  64.0541501  40.0849475   4.3978606  65.2874936
  33.8543675   4.0494415  66.4919530  33.9188108   4.5114823  67.3277702
  33.1454599   3.4191780  66.6201840  48.1793065   0.8449121  60.6843791
  47.4256773   0.2756519  60.5287796  48.3140606   0.8111785  61.6314426
  33.5691693   5.7162523  56.3598511  33.4337368   6.5614059  56.7883358
  34.1101505   5.9181801  55.5964444  27.0221090   3.2337961  56.9326436
  27.5345611   4.0281211  57.0832000  27.6743803   2.5364251  56.8660037
  28.8315975   6.3503717  59.0149189  29.0082603   7.2721682  58.8270173
  29.6272808   6.0362136  59.4443569  35.1960169   6.3386089  70.4898853
  34.7524023   5.5522468  70.1719757  35.8577383   6.5265240  69.8242743
  29.9547290   7.8681891  65.0159531  30.5054715   7.7398954  64.2436525
  29.1158766   8.1676780  64.6654424  37.2941407   6.6188889  68.5180254
  37.2759883   7.4397770  68.0260523  38.2161327   6.4942965  68.7430395
  33.7514461   4.1333019  69.3603762  34.2842798   3.3721307  69.1303070
  33.2228542   3.8406671  70.1027917  36.8834439  -0.7698304  53.3969839
  36.3681063   0.0006300  53.6358227  36.6111748  -1.4433168  54.0202901
  41.8568713   1.9834050  55.3323013  41.0798156   1.6445210  54.8878175
  42.5360194   1.9886674  54.6577978  36.6720742  -2.8971212  55.2229620
  36.3670878  -2.5825063  56.0739764  37.6251184  -2.8189792  55.2656953
  35.1167174   3.2619011  56.8722574  34.5888536   2.5271771  56.5595812
  34.6154677   4.0393688  56.6262543  40.0960020   1.4568032  61.9889621
  39.4383695   2.1467293  62.0769749  40.9000419   1.8464464  62.3323607
  38.9065479  -0.1887596  60.0393562  39.4197361   0.4442396  60.5415272
  39.5566703  -0.7886400  59.6736922  33.2619774   1.0799222  49.8757547
  32.3546836   0.8488475  50.0748696  33.7590806   0.2836841  50.0631529
  36.1687853   9.7896729  52.7954234  35.4949552  10.0928425  53.4039191
  36.5553675  10.5925809  52.4459691  35.3846310  -2.7138140  62.2851903
  34.4668871  -2.4923193  62.1273591  35.8006453  -2.6391830  61.4263610
  36.1681358  -1.3146724  57.4154583  36.9153176  -0.8025327  57.1061705
  36.4372947  -1.6362672  58.2758977  34.4408008   1.1811816  54.3981537
  33.5319227   0.8970849  54.4954007  34.4703092   1.6010895  53.5384844
  39.6727275   4.7918406  58.1672705  39.2189602   3.9509316  58.2237896
  39.0421242   5.4279804  58.5047485  38.6160195  -4.2789608  59.3973372
  37.8782951  -4.7912222  59.7283615  38.8686968  -4.7189226  58.5856649
  38.1160214   6.6294903  59.1022523  38.4083189   7.1899960  58.3834889
  38.6258835   6.9223464  59.8575682  32.9892902  -1.2059563  60.4991333
  33.0441512  -2.1585727  60.4233809  32.1784104  -1.0500124  60.9832631
  34.1384096   2.7220560  51.7369616  33.7003525   2.0056419  51.2775253
  34.8794536   2.9496675  51.1754707  30.9285262  -2.5882503  58.2581712
  30.1153127  -2.2888333  58.6646904  31.4244256  -2.9826814  58.9756194
  33.0793840   7.4075254  60.1915976  33.0370018   7.6336100  59.2624508
  33.9956538   7.1738628  60.3401778  36.5259473  -2.1240679  67.0896606
  36.8808861  -1.8969206  67.9491071  37.1731605  -1.7922302  66.4673861
  42.2557210   0.9977757  57.7945935  42.1175109   1.1879353  56.8667124
  41.8993429   1.7597140  58.2513986  42.2826590   3.0654284  62.8057206
  42.7163097   2.9729573  63.6540260  42.9958171   3.0411785  62.1677222
  31.1959640   4.2838283  59.9877939  31.9900239   3.7888603  59.7860514
  30.4851333   3.7556146  59.6245645  36.0154485   6.6656378  64.3390307
  36.0691507   7.2347315  65.1068023  35.1469266   6.8358263  63.9744344
  43.1442139   3.1077985  65.3390092  43.3378030   4.0123795  65.5849366
  43.0442758   2.6485404  66.1728677  38.2057248   3.2584728  70.9130972
  38.0542755   3.0295279  69.9961056  38.1961928   4.2155329  70.9262317
  34.9742585   0.8316640  65.8977239  35.9034645   0.9827800  65.7246206
  34.5533615   0.9200661  65.0425885  33.7730916   4.8567305  63.6675776
  33.6342002   4.4886089  64.5401714  32.9845513   5.3714944  63.4959734
  34.3679068   9.9576401  55.0101313  34.5430824   9.4864444  55.8246935
  33.6811856  10.5842167  55.2382573  35.3236131   4.2348907  61.0564614
  34.9885964   4.1949677  61.9522264  34.8240077   3.5693623  60.5835024
  29.2980375  -0.3583463  66.5817195  29.1600173  -1.0903224  67.1828734
  30.2085299  -0.4474563  66.3001383  38.2595323   1.5804942  51.3301674
  37.6424494   0.8551770  51.2334726  37.7911812   2.3414302  50.9868748
  31.9262676  -0.6463503  66.0700875  32.6362295  -1.2870311  66.0287493
  31.8831984  -0.3950608  66.9927056  39.9149455   6.2903850  68.9907454
  39.8562001   5.6063070  68.3238037  40.3168973   7.0322840  68.5388080
  28.9340154  13.1065764  61.7841173  29.1736752  13.7384288  62.4620191
  28.0909350  12.7553804  62.0706532  39.9166862   4.2543434  67.2221434
  39.0293641   3.9169356  67.3447833  40.4865413   3.5226465  67.4590199
  33.4468015   8.9144886  64.1882677  33.3738187   9.7199858  64.7001981
  33.0045409   9.1136852  63.3630698  33.2357795   8.1516656  57.6985498
  32.4525317   8.6938337  57.7923723  33.9350540   8.6690636  58.0979740
  36.5454445  -6.0388714  60.3419704  37.0423145  -6.7918752  60.0220774
  35.7741427  -6.0024398  59.7762913  44.3984203  -0.3348349  61.9837995
  44.3874079   0.5476367  61.6131928  43.5301582  -0.6876798  61.7892532
  35.9066699   8.8131720  66.3440836  36.6194671   9.4479185  66.2716737
  35.4156728   8.9095586  65.5280837  37.6284226   2.7182973  57.9158127
  36.6940505   2.8384436  57.7462832  37.8060894   1.8155440  57.6518137
  33.1289414  -3.8971331  60.0691388  32.7587201  -4.4500291  60.7572294
  33.6248506  -4.5013198  59.5166388  41.0156777  -1.4399708  58.4508161
  41.4817229  -0.6071716  58.3768464  41.4664278  -1.9054726  59.1553420
  30.9578613   6.5626164  67.1646406  31.6588072   7.1962647  67.3175801
  30.4873728   6.9040895  66.4042046  39.0833008   4.9044114  55.4494313
  39.3592852   4.7900708  56.3588187  38.2137507   4.5061598  55.4106486
  38.7579898  -0.8829229  64.9898957  38.1051349  -0.6353321  64.3351409
  39.1360278  -1.6965091  64.6561434  35.7187072   9.1530464  59.0927127
  35.9009467   8.3352120  59.5554879  36.5420058   9.3698157  58.6552017
  36.0529238   8.0798650  56.3542175  36.5817004   7.5691104  55.7412338
  36.3157457   7.7641180  57.2187709  34.8067471  -0.1409418  71.4764994
  34.1308109  -0.2415288  72.1467369  35.6295105  -0.2970204  71.9400991
  26.5546331   6.0962519  64.0977509  27.1399767   5.3506207  64.2305413
  26.3571169   6.4066476  64.9814173  29.4084986   9.1313766  59.1139951
  28.7395361   9.6159894  58.6303991  29.2697855   9.3782987  60.0283330
  33.5490254  11.1657510  65.7122610  34.1008562  11.3289131  66.4771695
  33.8896448  11.7561948  65.0402635  38.4001129   5.9918767  71.5671264
  38.9441033   6.6048726  71.0726219  37.8187974   6.5498346  72.0838277
  36.6858642   9.1139485  62.6986292  36.5609781   8.3129225  62.1897237
  37.3437733   9.6085679  62.2100262  38.7493550   6.9148505  64.3265842
  37.8023886   6.7953857  64.2544169  39.0976323   6.0271003  64.4092103
  35.7539983   6.7101222  60.5270194  35.6064946   5.7817929  60.7077764
  36.5793477   6.7321312  60.0427269  39.3574105   7.5329780  61.6135067
  40.2820653   7.3272642  61.4759518  39.1889409   7.2846182  62.5224408
  35.7501498  -5.4360941  55.5202311  35.9665112  -4.5536303  55.2191140
  35.2695565  -5.8274727  54.7907953  30.4900719  -2.4775228  62.0973056
  30.3445300  -2.1634924  62.9897338  30.0125923  -1.8590327  61.5443955
  39.1469421   8.0515448  56.9697158  39.3206299   7.4861870  56.2171011
  39.6398313   8.8516343  56.7876648  45.0008813   0.8151871  58.5887458
  45.4439959   0.0659196  58.1906581  44.1235323   0.8062007  58.2061190
  40.1344594   7.3682212  54.0694057  40.8295499   7.9888905  54.2881371
  40.4767744   6.5177563  54.3446435  42.0336017   4.8181918  55.5981388
  42.5587341   5.1569190  54.8730708  41.9458370   3.8828933  55.4144522
  33.6956066   8.7315991  67.7271264  34.0043192   8.4865138  68.5993964
  34.4931548   8.9362630  67.2390134  33.7176678  10.8853901  59.9576641
  33.2781668  10.3930280  60.6509497  34.4684795  10.3426869  59.7168716
  26.1969017   7.0765442  59.9601269  27.0227037   6.7769214  59.5799912
  25.8463069   6.3073064  60.4091057  31.1650550   6.4291910  62.0298942
  30.5430559   5.7662615  61.7301170  31.8355417   6.4553042  61.3472590
  24.3977622   4.9951768  60.9190202  23.5609530   4.5673943  60.7374204
  24.3701267   5.1884212  61.8560994  41.7229923   5.4514821  70.9032585
  40.9325467   5.4338960  70.3637085  41.4863278   5.9903115  71.6581622
  41.8427798   2.3007288  68.2165314  41.8925803   2.1357295  69.1580837
  41.7341721   1.4334547  67.8263195  30.7264057   4.9795833  55.5057403
  30.8752177   5.6631298  54.8524076  31.5330500   4.9600924  56.0206859
  39.1331561  -1.7161784  69.5324621  40.0341423  -1.8555319  69.2408619
  39.2079535  -1.5507329  70.4722798  33.4674366  -4.3394929  68.3777807
  32.5977675  -4.0461363  68.1060396  33.7033846  -3.7554484  69.0985071
  43.3445995   4.7204229  68.4607336  43.0530803   5.0834210  69.2970797
  42.7318126   4.0071238  68.2820668  44.5441677   2.2857109  60.9809906
  45.3788569   2.7246913  61.1447466  44.6800806   1.8095762  60.1618152
  41.5933183  -0.1563156  66.9287394  42.0687305   0.0364490  66.1206245
  40.6698749  -0.1003970  66.6830777  28.4816690   1.0061011  56.5118472
  28.2362732   0.1023341  56.7098682  28.6512604   1.0078162  55.5697950
  34.2259462   7.4743964  52.9769150  33.6533429   8.0934151  52.5239622
  34.7992256   8.0243326  53.5109072  40.2934852  -3.2797396  65.1615699
  41.2452275  -3.1799298  65.1827923  40.1238303  -4.0719127  65.6713784
  38.3149232  -6.1941813  65.3475100  37.7199164  -5.9136800  64.6521589
  38.0298928  -5.7047912  66.1191841  37.4456722   7.7581114  54.1077733
  38.3787395   7.6926676  54.3110608  37.3579935   8.5937381  53.6492265
  40.0744739   7.0746984  51.0681680  39.9958370   6.7406848  51.9617438
  40.8954406   7.5668752  51.0673153  42.7722930  -0.0591276  64.2757999
  42.7399250  -0.9975276  64.4617683  43.3823554   0.0192760  63.5423824
  34.6106261  -1.1895223  50.3185203  35.5565366  -1.3189015  50.3873621
  34.2320506  -1.9280561  50.7954631  42.9217418  -3.2680233  64.3216282
  42.4056467  -4.0521776  64.1346211  43.8057367  -3.5961516  64.4862801
  40.5828145  -9.5239217  60.2812095  40.3852967  -9.8324129  61.1655427
  41.1927851  -8.7977578  60.4110025  48.5899480   1.0024731  63.4164036
  49.3202868   0.7410019  63.9771739  47.9806425   0.2653452  63.4566104
  46.6714777  -0.8567407  64.0138487  45.9447941  -0.9911442  63.4054978
  46.2562064  -0.5490578  64.8195205  34.4944953   2.8622523  71.7785860
  35.4147963   3.0401122  71.9725906  34.4594536   1.9178568  71.6265559
  32.7949178  -3.2645247  50.2540088  31.8880633  -3.5612134  50.3302802
  33.0725159  -3.5615429  49.3874374  27.4907026   0.7723557  64.4208641
  27.7093036   1.7040665  64.4396675  27.9032800   0.4131532  65.2063445
  32.3634891  -3.6543237  73.8111390  32.2631618  -2.7048880  73.7423481
  32.1456433  -3.9824998  72.9387460  39.7180599  -7.5329785  57.5387290
  39.1379268  -6.8744981  57.1565343  39.4516532  -8.3552441  57.1274708
  38.1684165  -8.1324728  59.7408611  38.6683944  -8.0208193  58.9322929
  38.8119773  -8.4363675  60.3809419  32.2266161  -0.2246098  72.6276452
  31.7433243   0.5754262  72.8340341  32.3127100  -0.2138153  71.6743896
  25.4952121   1.6082282  60.5498271  25.4722809   1.7069969  59.5980154
  25.8052757   2.4547433  60.8715437  28.1539499   3.6658437  64.6644885
  29.1082752   3.6342379  64.5974817  27.9552022   3.2049060  65.4795111
  28.7438881   2.2359553  67.2315683  29.5631770   2.7303631  67.2550520
  29.0175689   1.3191521  67.2033251  38.5005477  -5.3729695  56.5943639
  37.6131332  -5.0880044  56.3763833  38.9159466  -5.5335932  55.7470915
  41.8520013  -5.3483174  60.3097978  42.6280403  -4.8586721  60.5822595
  41.1268147  -4.9225120  60.7669847  44.2892572  -4.6355555  61.3671918
  44.8837063  -4.8759819  60.6565227  44.3619156  -5.3548424  61.9945455
  26.5089728   9.2078056  61.6815083  26.3744195   8.4478457  61.1153081
  26.0921790   9.9318956  61.2143872  37.6448691   4.3914980  50.6891658
  38.3484541   4.5964982  51.3049314  36.9211339   4.9591742  50.9540742
  38.4746501   0.1424841  56.8093929  38.4181702   0.5993392  55.9701561
  39.0274843  -0.6184474  56.6316771  42.2851307  -4.0685427  57.6344048
  42.0288241  -4.4688791  58.4652256  41.6604175  -3.3541633  57.5094187
  46.5963645  -1.3289354  60.1415340  46.0363203  -1.2596165  60.9146902
  45.9907148  -1.5048369  59.4214836  29.6658853  10.1047373  61.8933526
  29.5491238  11.0492806  61.7912216  28.8451300   9.8020935  62.2819325
  39.5535388   4.8297509  52.7390119  40.3880992   4.3978707  52.5567593
  39.3919731   4.6579523  53.6667013  39.2081280   1.3329622  54.1046458
  39.1530084   1.1673894  53.1634902  38.5827335   2.0405655  54.2608648
  36.5227187   3.6378534  73.4300021  37.3918347   3.8119186  73.0686656
  36.0433939   4.4572951  73.3075750  30.6913368  10.7575635  65.1089454
  31.5940614  10.7899245  65.4255949  30.4650738   9.8276086  65.1235790
  32.4466970   9.5106622  61.7699533  31.4962601   9.5108483  61.6563905
  32.7499456   8.7639356  61.2535568  48.1819663  15.3467160  62.8345295
  48.8198073  15.2273907  62.1308635  48.0640506  16.2948004  62.8933247
  44.9909369  15.2994588  62.7706820  44.6527881  15.1835653  61.8827355
  45.8599138  14.8985753  62.7507826  40.8496185  17.1530065  58.7603711
  40.2861050  17.0620002  57.9919999  40.7348580  16.3329969  59.2406203
  45.4729152  16.4529440  68.7293026  45.4617793  16.0582238  67.8573529
  45.6349792  15.7195513  69.3226797  38.3960617  18.6481256  61.5987931
  39.1881909  18.3072081  61.1834231  38.6357267  18.7576231  62.5190085
  46.4295744  20.8201032  54.0718176  45.7783724  21.4055113  53.6852190
  47.2240107  21.3507227  54.1313213  40.3551371  17.9090169  54.4705310
  41.1282247  17.3619157  54.3318186  40.7076770  18.7734419  54.6819772
  42.1936413  19.2366552  67.6772209  41.9026279  20.1412183  67.5618876
  42.8293398  19.2783079  68.3916279  43.1192620  16.6143400  64.2673569
  43.7156193  16.3899423  63.5530532  43.1767592  15.8728146  64.8699017
  42.6917649  14.0682836  52.1023760  42.9443169  13.5464357  51.3407223
  41.7542208  13.9048981  52.2050444  47.7360932  13.0718614  59.9098503
  48.5224021  12.6538037  59.5588920  47.9999636  13.9764706  60.0780152
  47.9071009  18.5091464  54.6087160  47.2716842  18.5826091  55.3208065
  47.5768415  19.0985063  53.9306239  53.1369359  13.0093847  60.8131482
  53.8694531  12.4393064  61.0469311  52.3808714  12.6215448  61.2537987
  42.4113937  15.9710942  54.3048135  42.2950196  15.2955845  54.9729219
  42.5216197  15.4843315  53.4880288  44.7545478  15.4321089  58.0094824
  44.3903686  14.9051710  58.7207746  45.6112594  15.0419558  57.8361310
  50.6594779   6.7215421  65.2726090  50.3278104   7.5910832  65.0487305
  50.0640392   6.4051705  65.9520121  44.3950965  10.4610988  53.0056173
  44.5625368  11.3291225  53.3726644  44.2048134  10.6238270  52.0817462
  47.1526299  18.9227967  64.6722003  46.8527022  19.8253006  64.5637810
  46.8077358  18.6560150  65.5243156  40.6038780  15.3741764  60.7058708
  39.6789277  15.2417978  60.9136399  40.8523193  16.1535983  61.2028650
  50.5523442  11.4410507  62.3519440  49.6440320  11.3725916  62.0578201
  50.5011038  11.9182452  63.1801266  44.3740186  12.9168646  53.9902840
  44.2539811  13.3625697  54.8288320  43.6792775  13.2653963  53.4316378
  37.9647591  15.0175038  61.5402497  38.0939972  15.2709517  62.4541908
  37.2845042  15.6102746  61.2207152  42.1347078  25.6872288  57.6392971
  42.0571108  26.6380113  57.7181451  41.5308722  25.3418160  58.2967897
  44.6264308  12.8600153  70.2954338  43.8497642  13.4194073  70.2857202
  45.2654871  13.3456936  70.8169208  52.4185089   9.6426946  64.1297314
  51.7759469   9.9359479  63.4837109  51.9140017   9.5279866  64.9350511
  50.0725252  13.3890119  54.8183174  50.9843109  13.6217506  54.6430871
  49.5634899  13.9727163  54.2558252  42.8810680  15.6685606  69.8572305
  43.6225365  16.2070650  69.5807128  42.1747666  16.2951895  70.0143857
  48.3566020  17.8114747  68.4544466  48.7649376  17.3697157  67.7099099
  47.6343282  17.2367374  68.7078659  44.7097090  12.7487354  65.8278023
  45.5558285  13.1726767  65.9712672  44.6495728  12.0920978  66.5216586
  48.6794835  18.3715937  62.2096755  48.0503697  18.5361652  61.5072823
  48.2920497  18.7857547  62.9807719  52.5584067  19.3070375  59.5641119
  51.8735105  19.6869277  59.0138152  52.6427916  19.9165702  60.2973067
  47.8596535  10.4091722  67.4859197  47.6157467  11.1633782  66.9493473
  48.1356466  10.7877070  68.3206444  49.8134998  16.9530334  66.1636462
  50.0251893  17.5962094  65.4870844  49.7664746  16.1192651  65.6958393
  47.4161227   9.5648155  63.0673035  46.5545706   9.8629409  63.3589772
  47.4423662   9.7818554  62.1354067  44.2322797  18.1090346  59.4746840
  44.6961142  18.3878049  58.6851463  43.9679595  17.2073790  59.2919931
  41.1246878  17.6561827  62.4126603  41.6948235  18.0849095  61.7744088
  41.7154990  17.3744412  63.1110789  43.1691683  14.2313498  56.2836405
  43.8715726  14.6834542  56.7510332  42.8372311  13.5897317  56.9116299
  41.6172044  12.8225255  70.6587615  40.9870705  13.5041535  70.8923012
  41.5108132  12.7108336  69.7140753  36.9117017  12.4897051  61.5853539
  36.1216071  12.7454579  61.1093650  37.4028264  13.3045388  61.6905579
  50.9280826  19.8302290  64.3358820  51.7498270  19.4282477  64.0541501
  50.9243229  19.7270524  65.2874936  38.8631762  12.8541630  58.5437016
  38.0662925  12.9660324  59.0620511  38.6357354  13.1928282  57.6777906
  44.6937430  19.3786333  66.4919530  44.7581862  19.8406740  67.3277702
  43.9848354  18.7483698  66.6201840  35.1954720  12.7427541  64.0168530
  35.4462758  13.6274551  64.2826106  35.7314268  12.5632143  63.2443622
  59.0186819  16.1741038  60.6843791  58.2650528  15.6048436  60.5287796
  59.1534360  16.1403703  61.6314426  44.4085447  21.0454441  56.3598511
  44.2731122  21.8905976  56.7883358  44.9495260  21.2473718  55.5964444
  40.8952787   7.1246020  73.0212866  40.5019732   6.5712219  73.6960510
  41.7118927   7.4356599  73.4119383  37.8614845  18.5629879  56.9326436
  38.3739365  19.3573129  57.0832000  38.5137557  17.8656169  56.8660037
  39.6709729  21.6795635  59.0149189  39.8476358  22.6013600  58.8270173
  40.4666563  21.3654054  59.4443569  43.8120748   8.5403899  70.6133122
  44.5530461   9.1411053  70.5337585  44.0438671   7.7981537  70.0551165
  38.9562086  13.7260267  68.8911352  38.8415601  12.8245524  69.1918451
  38.1006604  13.9723963  68.5396169  46.0353924  21.6678007  70.4898853
  45.5917778  20.8814386  70.1719757  46.6971137  21.8557158  69.8242743
  40.7941045  23.1973809  65.0159531  41.3448470  23.0690872  64.2436525
  39.9552521  23.4968698  64.6654424  48.1335162  21.9480807  68.5180254
  48.1153637  22.7689688  68.0260523  49.0555082  21.8234882  68.7430395
  44.5908216  19.4624936  69.3603762  45.1236553  18.7013225  69.1303070
  44.0622297  19.1698588  70.1027917  47.7577911   4.5685002  64.8897404
  47.4142180   5.4586644  64.8136515  48.1256873   4.3786660  64.0266989
  35.8263761  16.8918533  57.7086006  36.6638983  17.3015541  57.4919714
  36.0042029  15.9517975  57.6786200  47.7228194  14.5593614  53.3969839
  47.2074817  15.3298218  53.6358227  47.4505502  13.8858750  54.0202901
  45.3075305   9.4043314  58.4555078  44.4516901   9.0150165  58.2760716
  45.7202256   9.4835275  57.5954863  46.8374451   6.9389658  62.8546637
  46.3339247   6.9019793  62.0414443  47.1305058   7.8482400  62.9143294
  43.0817337   7.0228387  61.8612819  43.9470334   6.8271196  61.5018709
  43.1494846   6.7938739  62.7882176  52.6962468  17.3125968  55.3323013
  51.9191910  16.9737128  54.8878175  53.3753949  17.3178591  54.6577978
  47.5114497  12.4320706  55.2229620  47.2064632  12.7466855  56.0739764
  48.4644939  12.5102126  55.2656953  45.9560929  18.5910929  56.8722574
  45.4282290  17.8563689  56.5595812  45.4548431  19.3685605  56.6262543
  50.9353775  16.7859949  61.9889621  50.2777449  17.4759211  62.0769749
  51.7394174  17.1756381  62.3323607  40.6879656   9.2530595  59.2329186
  41.2623408   9.0305777  58.5002379  41.2750639   9.3219290  59.9857787
  49.7459233  15.1404322  60.0393562  50.2591115  15.7734314  60.5415272
  50.3960457  14.5405518  59.6736922  41.0149243  11.2835056  53.2525071
  40.1786556  11.6209743  53.5734346  40.8754013  11.1484036  52.3152208
  42.9902324   6.1271844  57.9604255  42.3366736   5.8120861  57.3360870
  42.9482798   5.5047585  58.6864078  44.1013529  16.4091139  49.8757547
  43.1940591  16.1780393  50.0748696  44.5984561  15.6128758  50.0631529
  47.0081608  25.1188646  52.7954234  46.3343306  25.4220343  53.4039191
  47.3947430  25.9217727  52.4459691  46.2240064  12.6153778  62.2851903
  45.3062626  12.8368725  62.1273591  46.6400208  12.6900088  61.4263610
  47.0075112  14.0145193  57.4154583  47.7546931  14.5266591  57.1061705
  47.2766702  13.6929246  58.2758977  45.2801762  16.5103734  54.3981537
  44.3712981  16.2262767  54.4954007  45.3096846  16.9302813  53.5384844
  50.5121030  20.1210324  58.1672705  50.0583357  19.2801233  58.2237896
  49.8814996  20.7571722  58.5047485  49.4553949  11.0502310  59.3973372
  48.7176706  10.5379696  59.7283615  49.7080723  10.6102691  58.5856649
  48.9553969  21.9586820  59.1022523  49.2476943  22.5191877  58.3834889
  49.4652589  22.2515381  59.8575682  49.5565576   3.8278562  59.9915142
  49.8624453   2.9675925  59.7041057  50.2818181   4.4196182  59.7914136
  35.8489933  14.2309248  58.3796740  35.6514332  13.6378609  57.6547806
  35.2936597  13.9261458  59.0972678  43.8286656  14.1232355  60.4991333
  43.8835266  13.1706191  60.4233809  43.0177858  14.2791794  60.9832631
  44.9777850  18.0512478  51.7369616  44.5397280  17.3348337  51.2775253
  45.7188291  18.2788593  51.1754707  41.7679016  12.7409414  58.2581712
  40.9546882  13.0403585  58.6646904  42.2638010  12.3465103  58.9756194
  43.9187594  22.7367171  60.1915976  43.8763773  22.9628018  59.2624508
  44.8350293  22.5030546  60.3401778  47.3653228  13.2051239  67.0896606
  47.7202616  13.4322712  67.9491071  48.0125359  13.5369616  66.4673861
  53.0950965  16.3269675  57.7945935  52.9568863  16.5171271  56.8667124
  52.7387184  17.0889058  58.2513986  41.2593091  10.3127770  63.8742947
  41.8992470  10.1716529  63.1765910  40.4270621  10.0262283  63.4981549
  53.1220344  18.3946202  62.8057206  53.5556851  18.3021491  63.6540260
  53.8351925  18.3703702  62.1677222  42.0353395  19.6130200  59.9877939
  42.8293993  19.1180520  59.7860514  41.3245087  19.0848063  59.6245645
  46.8548239  21.9948296  64.3390307  46.9085262  22.5639232  65.1068023
  45.9863021  22.1650181  63.9744344  38.3436158  13.7573282  56.0637692
  37.4133746  13.6957738  56.2807654  38.4393630  13.2349235  55.2674333
  38.2621707  10.2828095  58.6515933  38.5228525  11.1973428  58.5425094
  39.0838880   9.8152537  58.8012546  39.7346633  11.6965852  65.8214758
  40.4069686  11.4883214  65.1727407  38.9076419  11.4987938  65.3819990
  53.9835894  18.4369902  65.3390092  54.1771784  19.3415713  65.5849366
  53.8836512  17.9777322  66.1728677  45.6372205   8.3227793  67.8380419
  44.9900120   9.0217743  67.7444895  46.4073220   8.7563937  68.2056667
  49.0451003  18.5876645  70.9130972  48.8936509  18.3587197  69.9961056
  49.0355682  19.5447247  70.9262317  45.8136339  16.1608558  65.8977239
  46.7428399  16.3119718  65.7246206  45.3927369  16.2492579  65.0425885
  44.6124671  20.1859222  63.6675776  44.4735757  19.8178007  64.5401714
  43.8239267  20.7006862  63.4959734  45.2072823  25.2868319  55.0101313
  45.3824578  24.8156362  55.8246935  44.5205611  25.9134085  55.2382573
  46.1629886  19.5640825  61.0564614  45.8279719  19.5241595  61.9522264
  45.6633832  18.8985541  60.5835024  40.1374130  14.9708455  66.5817195
  39.9993928  14.2388694  67.1828734  41.0479053  14.8817355  66.3001383
  49.0989078  16.9096859  51.3301674  48.4818248  16.1843688  51.2334726
  48.6305566  17.6706220  50.9868748  42.7656431  14.6828414  66.0700875
  43.4756049  14.0421607  66.0287493  42.7225739  14.9341309  66.9927056
  50.7543209  21.6195768  68.9907454  50.6955755  20.9354988  68.3238037
  51.1562728  22.3614758  68.5388080  41.4785365  11.6693632  67.8896514
  40.9422722  11.2184371  68.5418111  40.8902073  11.8039541  67.1466979
  39.7733908  28.4357682  61.7841173  40.0130506  29.0676206  62.4620191
  38.9303105  28.0845722  62.0706532  40.8887624  11.1282284  50.4522978
  40.0117090  11.0071084  50.0885225  41.3645377  10.3368362  50.2001867
  50.7560617  19.5835352  67.2221434  49.8687395  19.2461273  67.3447833
  51.3259168  18.8518383  67.4590199  32.4089764  15.9159443  60.5464485
  33.0960804  15.6021173  59.9585500  32.2537892  16.8200808  60.2731736
  37.2124486  10.8049640  64.9749509  37.1282675  10.1975310  64.2399919
  36.3907192  11.2958658  64.9759005  44.2861770  24.2436804  64.1882677
  44.2131941  25.0491776  64.7001981  43.8439163  24.4428770  63.3630698
  44.0751550  23.4808574  57.6985498  43.2919071  24.0230254  57.7923723
  44.7744295  23.9982554  58.0979740  47.3848200   9.2903204  60.3419704
  47.8816899   8.5373166  60.0220774  46.6135181   9.3267520  59.7762913
  55.2377957  14.9943569  61.9837995  55.2267833  15.8768284  61.6131928
  54.3695337  14.6415120  61.7892532  46.7460453  24.1423638  66.3440836
  47.4588426  24.7771103  66.2716737  46.2550482  24.2387504  65.5280837
  48.4677980  18.0474891  57.9158127  47.5334259  18.1676353  57.7462832
  48.6454649  17.1447357  57.6518137  43.9683168  11.4320586  60.0691388
  43.5980956  10.8791627  60.7572294  44.4642261  10.8278720  59.5166388
  51.8550532  13.8892210  58.4508161  52.3210984  14.7220202  58.3768464
  52.3058032  13.4237192  59.1553420  41.7972367  21.8918082  67.1646406
  42.4981826  22.5254564  67.3175801  41.3267482  22.2332813  66.4042046
  49.9226763  20.2336031  55.4494313  50.1986607  20.1192626  56.3588187
  49.0531262  19.8353516  55.4106486  49.8267194   6.2572797  62.4899063
  48.9130274   6.4877024  62.6581270  50.2560296   6.3411241  63.3413095
  49.5973653  14.4462689  64.9898957  48.9445103  14.6938596  64.3351409
  49.9754033  13.6326827  64.6561434  46.5580827  24.4822382  59.0927127
  46.7403221  23.6644038  59.5554879  47.3813813  24.6990074  58.6552017
  46.8922992  23.4090567  56.3542175  47.4210759  22.8983022  55.7412338
  47.1551212  23.0933097  57.2187709  45.6461226  15.1882500  71.4764994
  44.9701863  15.0876629  72.1467369  46.4688860  15.0321714  71.9400991
  37.3940085  21.4254437  64.0977509  37.9793522  20.6798124  64.2305413
  37.1964924  21.7358393  64.9814173  40.2478740  24.4605684  59.1139951
  39.5789116  24.9451812  58.6303991  40.1091610  24.7074904  60.0283330
  31.9857740  13.9960037  62.8181952  32.0241839  13.4623627  63.6119070
  31.4798033  13.4695242  62.1992929  44.3884009  26.4949427  65.7122610
  44.9402317  26.6581049  66.4771695  44.7290202  27.0853865  65.0402635
  39.3648502   8.8424577  66.3144494  39.4289829   9.7039408  65.9021892
  39.3015622   8.2298579  65.5816853  38.8400775  10.9147710  69.9617529
  39.4672813  10.5324787  70.5755053  37.9828693  10.6961912  70.3273221
  49.2394883  21.3210685  71.5671264  49.7834787  21.9340643  71.0726219
  48.6581728  21.8790263  72.0838277  35.6166317  12.7224139  55.8935884
  35.9119758  11.8134817  55.8402937  34.7154353  12.7011878  55.5716886
  47.5252396  24.4431403  62.6986292  47.4003536  23.6421143  62.1897237
  48.1831487  24.9377596  62.2100262  39.1460564  10.7980135  61.8763432
  38.4247150  11.4116103  61.7370905  39.9353820  11.3337900  61.7980078
  49.5887305  22.2440423  64.3265842  48.6417640  22.1245774  64.2544169
  49.9370078  21.3562921  64.4092103  41.9486878   8.1334562  68.1504084
  42.4721280   8.3796859  68.9130393  41.7299211   8.9654597  67.7307221
  37.3454159  10.4038237  56.0175209  37.0166865   9.5235616  55.8350315
  37.6993530  10.3485905  56.9051598  46.5933738  22.0393139  60.5270194
  46.4458700  21.1109847  60.7077764  47.4187231  22.0613230  60.0427269
  40.4595982  10.6911206  56.3850686  40.7992055  11.2197128  55.6629295
  40.9068103  11.0291613  57.1609253  50.1967860  22.8621698  61.6135067
  51.1214407  22.6564559  61.4759518  50.0283163  22.6138099  62.5224408
  43.1539423   9.0748257  65.8353754  42.8136243   8.2756070  66.2374434
  42.4478429   9.3749968  65.2630588  43.8055895   6.1597570  64.2881077
  44.6281964   5.6858048  64.1659968  44.0493958   6.9388053  64.7879764
  42.4464129   9.1885828  54.5843979  43.1672492   9.5667081  54.0807696
  41.8229433   9.9074705  54.6878957  46.5895252   9.8930977  55.5202311
  46.8058867  10.7755615  55.2191140  46.1089319   9.5017190  54.7907953
  41.3294474  12.8516690  62.0973056  41.1839054  13.1656993  62.9897338
  40.8519677  13.4701590  61.5443955  43.1890856   9.8419238  62.1453946
  43.1752425   8.9460331  61.8086244  43.9063285   9.8489902  62.7792232
  45.0416987  10.2756578  64.1907073  44.7834765  11.1973649  64.1891404
  44.5102027   9.8787013  64.8807537  49.9863176  23.3807365  56.9697158
  50.1600053  22.8153788  56.2171011  50.4792067  24.1808260  56.7876648
  35.8040136  15.3922035  65.0360717  35.2593604  16.1681843  65.1680992
  36.6819486  15.7392839  64.8779839  42.5927752   8.7233618  57.4141516
  42.7143664   7.7950265  57.6132403  42.3029795   8.7372304  56.5019831
  45.4618943   6.4088529  60.5508236  45.4840640   6.4727862  59.5960215
  45.8787002   5.5693038  60.7448742  55.8402567  16.1443788  58.5887458
  56.2833713  15.3951114  58.1906581  54.9629077  16.1353925  58.2061190
  50.9738348  22.6974130  54.0694057  51.6689253  23.3180823  54.2881371
  51.3161499  21.8469481  54.3446435  36.5906158  14.5191931  67.9290874
  35.8487894  14.6674566  68.5155505  36.2698902  14.7800196  67.0657624
  52.8729771  20.1473835  55.5981388  53.3981096  20.4861108  54.8730708
  52.7852124  19.2120851  55.4144522  44.5349820  24.0607909  67.7271264
  44.8436947  23.8157056  68.5993964  45.3325302  24.2654548  67.2390134
  44.5570432  26.2145819  59.9576641  44.1175423  25.7222197  60.6509497
  45.3078549  25.6718786  59.7168716  37.0362771  22.4057360  59.9601269
  37.8620791  22.1061131  59.5799912  36.6856823  21.6364982  60.4091057
  42.0044304  21.7583828  62.0298942  41.3824314  21.0954533  61.7301170
  42.6749171  21.7844960  61.3472590  35.2371376  20.3243686  60.9190202
  34.4003285  19.8965860  60.7374204  35.2095022  20.5176129  61.8560994
  42.0768832  10.2365616  71.6231448  42.1256987  11.1127739  71.2409218
  42.6191346   9.6943009  71.0503092  52.5623678  20.7806739  70.9032585
  51.7719221  20.7630878  70.3637085  52.3257032  21.3195033  71.6581622
  52.6821553  17.6299205  68.2165314  52.7319558  17.4649213  69.1580837
  52.5735476  16.7626464  67.8263195  41.5657811  20.3087751  55.5057403
  41.7145932  20.9923216  54.8524076  42.3724255  20.2892841  56.0206859
  49.9725315  13.6130133  69.5324621  50.8735178  13.4736598  69.2408619
  50.0473290  13.7784588  70.4722798  44.3068120  10.9896988  68.3777807
  43.4371430  11.2830554  68.1060396  44.5427601  11.5737433  69.0985071
  54.1839749  20.0496147  68.4607336  53.8924558  20.4126127  69.2970797
  53.5711881  19.3363155  68.2820668  55.3835432  17.6149027  60.9809906
  56.2182323  18.0538831  61.1447466  55.5194561  17.1387680  60.1618152
  52.4326938  15.1728762  66.9287394  52.9081059  15.3656408  66.1206245
  51.5092503  15.2287947  66.6830777  39.3210444  16.3352929  56.5118472
  39.0756486  15.4315259  56.7098682  39.4906359  16.3370079  55.5697950
  47.0107154   7.2076605  65.8943227  47.5289098   7.9437632  65.5689716
  46.6562287   7.5140598  66.7289987  38.5906092  12.0681286  54.0104633
  37.8975337  12.1425641  53.3544669  38.3457844  11.3041630  54.5326150
  47.2619748   3.6276888  61.4144124  47.5421502   2.9600077  62.0404551
  48.0470355   3.8205983  60.9018788  45.0653217  22.8035882  52.9769150
  44.4927184  23.4226069  52.5239622  45.6386010  23.3535243  53.5109072
  51.1328607  12.0494522  65.1615699  52.0846030  12.1492619  65.1827923
  50.9632057  11.2572790  65.6713784  49.1542986   9.1350105  65.3475100
  48.5592918   9.4155118  64.6521589  48.8692683   9.6244006  66.1191841
  48.2850477  23.0873032  54.1077733  49.2181150  23.0218593  54.3110608
  48.1973689  23.9229299  53.6492265  50.9138493  22.4038902  51.0681680
  50.8352125  22.0698766  51.9617438  51.7348160  22.8960670  51.0673153
  53.6116684  15.2700641  64.2757999  53.5793005  14.3316642  64.4617683
  54.2217308  15.3484678  63.5423824  45.4500015  14.1396694  50.3185203
  46.3959120  14.0102902  50.3873621  45.0714260  13.4011356  50.7954631
  53.7611173  12.0611685  64.3216282  53.2450222  11.2770141  64.1346211
  54.6451121  11.7330401  64.4862801  51.4221900   5.8052700  60.2812095
  51.2246721   5.4967789  61.1655427  52.0321605   6.5314339  60.4110025
  59.4293234  16.3316648  63.4164036  60.1596623  16.0701936  63.9771739
  58.8200180  15.5945370  63.4566104  57.5108531  14.4724511  64.0138487
  56.7841695  14.3380476  63.4054978  57.0955818  14.7801339  64.8195205
  45.3338708  18.1914440  71.7785860  46.2541717  18.3693039  71.9725906
  45.2988291  17.2470486  71.6265559  43.6342932  12.0646671  50.2540088
  42.7274388  11.7679783  50.3302802  43.9118913  11.7676489  49.3874374
  34.5520873  13.3853034  60.7039134  34.2323657  12.5318342  60.4113508
  34.0054301  13.6001612  61.4597102  38.3300780  16.1015475  64.4208641
  38.5486790  17.0332583  64.4396675  38.7426554  15.7423450  65.2063445
  45.2504998   6.6083560  56.4084329  44.4405727   6.2630645  56.7839575
  45.9389415   6.2991104  56.9971941  47.1795546   5.6861607  58.0308626
  47.7326585   6.1057061  58.6898649  47.4165633   4.7597355  58.0731582
  43.2028646  11.6748681  73.8111390  43.1025373  12.6243038  73.7423481
  42.9850188  11.3466920  72.9387460  42.4041717   8.9233606  50.3952067
  43.2660881   9.2488504  50.6547885  42.5892061   8.1365102  49.8825133
  34.4209133  17.0055946  62.6732256  33.7272604  16.5909898  62.1602210
  35.1682124  17.0476482  62.0765675  50.5574354   7.7962132  57.5387290
  49.9773023   8.4546936  57.1565343  50.2910286   6.9739477  57.1274708
  49.0077920   7.1967190  59.7408611  49.5077698   7.3083725  58.9322929
  49.6513528   6.8928243  60.3809419  43.0659916  15.1045820  72.6276452
  42.5826997  15.9046180  72.8340341  43.1520855  15.1153765  71.6743896
  36.3345875  16.9374199  60.5498271  36.3116563  17.0361887  59.5980154
  36.6446512  17.7839350  60.8715437  38.9933253  18.9950354  64.6644885
  39.9476507  18.9634297  64.5974817  38.7945777  18.5340978  65.4795111
  39.5832635  17.5651470  67.2315683  40.4025524  18.0595549  67.2550520
  39.8569443  16.6483439  67.2033251  49.3399232   9.9562223  56.5943639
  48.4525087  10.2411873  56.3763833  49.7553221   9.7955986  55.7470915
  52.6913768   9.9808744  60.3097978  53.4674158  10.4705196  60.5822595
  51.9661902  10.4066798  60.7669847  55.1286326  10.6936363  61.3671918
  55.7230817  10.4532099  60.6565227  55.2012910   9.9743494  61.9945455
  37.3483482  24.5369974  61.6815083  37.2137950  23.7770375  61.1153081
  36.9315544  25.2610874  61.2143872  48.4842445  19.7206897  50.6891658
  49.1878295  19.9256900  51.3049314  47.7605094  20.2883659  50.9540742
  49.3140255  15.4716759  56.8093929  49.2575457  15.9285310  55.9701561
  49.8668598  14.7107443  56.6316771  53.1245061  11.2606491  57.6344048
  52.8681995  10.8603126  58.4652256  52.4997929  11.9750285  57.5094187
  57.4357399  14.0002564  60.1415340  56.8756957  14.0695753  60.9146902
  56.8300902  13.8243548  59.4214836  40.5052608  25.4339291  61.8933526
  40.3884992  26.3784723  61.7912216  39.6845054  25.1312852  62.2819325
  50.3929142  20.1589427  52.7390119  51.2274746  19.7270625  52.5567593
  50.2313485  19.9871440  53.6667013  50.0475035  16.6621540  54.1046458
  49.9923838  16.4965811  53.1634902  49.4221090  17.3697573  54.2608648
  34.8367550  11.8989604  67.9307880  35.4826413  11.3888558  68.4195105
  34.6284701  12.6358286  68.5051305  47.3620942  18.9670452  73.4300021
  48.2312101  19.1411104  73.0686656  46.8827693  19.7864869  73.3075750
  43.3571160   6.1629649  53.6831776  43.3449830   7.1071489  53.8400047
  44.2494582   5.9799794  53.3891237  41.5307122  26.0867553  65.1089454
  42.4334369  26.1191163  65.4255949  41.3044492  25.1568004  65.1235790
  43.2860724  24.8398539  61.7699533  42.3356355  24.8400401  61.6563905
  43.5893210  24.0931274  61.2535568  47.1723280   2.7572426  57.9377713
  46.4055675   2.2030912  58.0834395  47.5833985   2.8294294  58.7991865
  39.1765041   9.0457221  72.0282894  40.0396502   8.6894026  72.2386219
  38.6030451   8.7071116  72.7158299  59.0213418  30.6759078  62.8345295
  59.6591828  30.5565825  62.1308635  58.9034260  31.6239922  62.8933247
  55.8303124  30.6286506  62.7706820  55.4921635  30.5127571  61.8827355
  56.6992892  30.2277671  62.7507826  51.6889940  32.4821982  58.7603711
  51.1254805  32.3911919  57.9919999  51.5742335  31.6621887  59.2406203
  56.3122907  31.7821358  68.7293026  56.3011548  31.3874156  67.8573529
  56.4743546  31.0487430  69.3226797  49.2354371  33.9773174  61.5987931
  50.0275663  33.6363999  61.1834231  49.4751022  34.0868149  62.5190085
  57.2689498  36.1492950  54.0718176  56.6177478  36.7347030  53.6852190
  58.0633861  36.6799145  54.1313213  51.1945125  33.2382087  54.4705310
  51.9676001  32.6911074  54.3318186  51.5470524  34.1026336  54.6819772
  53.0330168  34.5658469  67.6772209  52.7420034  35.4704100  67.5618876
  53.6687152  34.6074997  68.3916279  53.9586375  31.9435318  64.2673569
  54.5549947  31.7191340  63.5530532  54.0161346  31.2020063  64.8699017
  53.5311403  29.3974753  52.1023760  53.7836924  28.8756275  51.3407223
  52.5935962  29.2340899  52.2050444  58.5754686  28.4010532  59.9098503
  59.3617775  27.9829955  59.5588920  58.8393390  29.3056624  60.0780152
  58.7464763  33.8383382  54.6087160  58.1110596  33.9118008  55.3208065
  58.4162170  34.4276981  53.9306239  63.9763113  28.3385765  60.8131482
  64.7088285  27.7684982  61.0469311  63.2202469  27.9507365  61.2537987
  53.2507692  31.3002859  54.3048135  53.1343950  30.6247763  54.9729219
  53.3609952  30.8135233  53.4880288  55.5939233  30.7613006  58.0094824
  55.2297440  30.2343627  58.7207746  56.4506349  30.3711475  57.8361310
  61.4988534  22.0507339  65.2726090  61.1671858  22.9202750  65.0487305
  60.9034147  21.7343623  65.9520121  55.2344720  25.7902906  53.0056173
  55.4019122  26.6583142  53.3726644  55.0441889  25.9530188  52.0817462
  57.9920053  34.2519885  64.6722003  57.6920776  35.1544924  64.5637810
  57.6471113  33.9852068  65.5243156  51.4432535  30.7033682  60.7058708
  50.5183031  30.5709896  60.9136399  51.6916948  31.4827901  61.2028650
  61.3917197  26.7702425  62.3519440  60.4834074  26.7017834  62.0578201
  61.3404793  27.2474370  63.1801266  55.2133941  28.2460563  53.9902840
  55.0933566  28.6917614  54.8288320  54.5186529  28.5945881  53.4316378
  48.8041346  30.3466955  61.5402497  48.9333727  30.6001434  62.4541908
  48.1238797  30.9394663  61.2207152  52.9740833  41.0164205  57.6392971
  52.8964863  41.9672030  57.7181451  52.3702476  40.6710078  58.2967897
  55.4658063  28.1892071  70.2954338  54.6891397  28.7485991  70.2857202
  56.1048626  28.6748854  70.8169208  63.2578843  24.9718863  64.1297314
  62.6153223  25.2651397  63.4837109  62.7533772  24.8571784  64.9350511
  60.9119007  28.7182037  54.8183174  61.8236863  28.9509423  54.6430871
  60.4028654  29.3019081  54.2558252  53.7204435  30.9977524  69.8572305
  54.4619119  31.5362568  69.5807128  53.0141420  31.6243813  70.0143857
  59.1959775  33.1406665  68.4544466  59.6043131  32.6989075  67.7099099
  58.4737036  32.5659292  68.7078659  55.5490845  28.0779271  65.8278023
  56.3952040  28.5018685  65.9712672  55.4889482  27.4212896  66.5216586
  59.5188589  33.7007855  62.2096755  58.8897452  33.8653569  61.5072823
  59.1314251  34.1149465  62.9807719  63.3977821  34.6362293  59.5641119
  62.7128859  35.0161194  59.0138152  63.4821670  35.2457620  60.2973067
  58.6990290  25.7383640  67.4859197  58.4551222  26.4925700  66.9493473
  58.9750220  26.1168987  68.3206444  60.6528753  32.2822252  66.1636462
  60.8645648  32.9254012  65.4870844  60.6058501  31.4484569  65.6958393
  58.2554982  24.8940073  63.0673035  57.3939461  25.1921326  63.3589772
  58.2817416  25.1110472  62.1354067  55.0716551  33.4382263  59.4746840
  55.5354897  33.7169966  58.6851463  54.8073349  32.5365708  59.2919931
  51.9640632  32.9853745  62.4126603  52.5341989  33.4141013  61.7744088
  52.5548744  32.7036329  63.1110789  54.0085437  29.5605416  56.2836405
  54.7109480  30.0126459  56.7510332  53.6766066  28.9189234  56.9116299
  52.4565799  28.1517172  70.6587615  51.8264459  28.8333453  70.8923012
  52.3501887  28.0400254  69.7140753  47.7510771  27.8188968  61.5853539
  46.9609825  28.0746497  61.1093650  48.2422018  28.6337306  61.6905579
  61.7674581  35.1594207  64.3358820  62.5892024  34.7574395  64.0541501
  61.7636984  35.0562442  65.2874936  49.7025516  28.1833547  58.5437016
  48.9056680  28.2952242  59.0620511  49.4751109  28.5220200  57.6777906
  55.5331184  34.7078251  66.4919530  55.5975617  35.1698658  67.3277702
  54.8242108  34.0775616  66.6201840  46.0348474  28.0719459  64.0168530
  46.2856513  28.9566469  64.2826106  46.5708022  27.8924060  63.2443622
  55.2479202  36.3746358  56.3598511  55.1124877  37.2197894  56.7883358
  55.7889014  36.5765636  55.5964444  51.7346541  22.4537938  73.0212866
  51.3413487  21.9004137  73.6960510  52.5512682  22.7648517  73.4119383
  48.7008599  33.8921796  56.9326436  49.2133120  34.6865046  57.0832000
  49.3531312  33.1948087  56.8660037  50.5103484  37.0087553  59.0149189
  50.6870112  37.9305517  58.8270173  51.3060317  36.6945972  59.4443569
  54.6514502  23.8695817  70.6133122  55.3924216  24.4702970  70.5337585
  54.8832425  23.1273455  70.0551165  49.7955840  29.0552184  68.8911352
  49.6809356  28.1537442  69.1918451  48.9400358  29.3015881  68.5396169
  56.8747678  36.9969925  70.4898853  56.4311532  36.2106303  70.1719757
  57.5364892  37.1849075  69.8242743  58.9728916  37.2772725  68.5180254
  58.9547392  38.0981606  68.0260523  59.8948836  37.1526800  68.7430395
  55.4301970  34.7916854  69.3603762  55.9630307  34.0305142  69.1303070
  54.9016051  34.4990506  70.1027917  58.5971665  19.8976920  64.8897404
  58.2535935  20.7878562  64.8136515  58.9650628  19.7078578  64.0266989
  46.6657516  32.2210451  57.7086006  47.5032738  32.6307459  57.4919714
  46.8435784  31.2809893  57.6786200  58.5621948  29.8885531  53.3969839
  58.0468571  30.6590136  53.6358227  58.2899257  29.2150667  54.0202901
  56.1469059  24.7335232  58.4555078  55.2910655  24.3442082  58.2760716
  56.5596011  24.8127193  57.5954863  57.6768206  22.2681575  62.8546637
  57.1733001  22.2311710  62.0414443  57.9698813  23.1774318  62.9143294
  53.9211092  22.3520305  61.8612819  54.7864088  22.1563114  61.5018709
  53.9888601  22.1230657  62.7882176  58.3508251  27.7612623  55.2229620
  58.0458387  28.0758772  56.0739764  59.3038693  27.8394043  55.2656953
  56.7954683  33.9202847  56.8722574  56.2676045  33.1855606  56.5595812
  56.2942186  34.6977523  56.6262543  61.7747529  32.1151867  61.9889621
  61.1171204  32.8051128  62.0769749  62.5787928  32.5048299  62.3323607
  51.5273411  24.5822513  59.2329186  52.1017163  24.3597694  58.5002379
  52.1144393  24.6511207  59.9857787  60.5852988  30.4696240  60.0393562
  61.0984870  31.1026232  60.5415272  61.2354212  29.8697435  59.6736922
  51.8542998  26.6126974  53.2525071  51.0180310  26.9501660  53.5734346
  51.7147767  26.4775954  52.3152208  53.8296078  21.4563762  57.9604255
  53.1760491  21.1412779  57.3360870  53.7876553  20.8339502  58.6864078
  54.9407283  31.7383057  49.8757547  54.0334345  31.5072310  50.0748696
  55.4378315  30.9420676  50.0631529  57.8475362  40.4480564  52.7954234
  57.1737061  40.7512261  53.4039191  58.2341184  41.2509644  52.4459691
  57.0633819  27.9445695  62.2851903  56.1456380  28.1660642  62.1273591
  57.4793962  28.0192006  61.4263610  57.8468867  29.3437111  57.4154583
  58.5940685  29.8558508  57.1061705  58.1160456  29.0221164  58.2758977
  56.1195517  31.8395652  54.3981537  55.2106736  31.5554685  54.4954007
  56.1490600  32.2594730  53.5384844  61.3514784  35.4502241  58.1672705
  60.8977111  34.6093151  58.2237896  60.7208751  36.0863640  58.5047485
  60.2947704  26.3794227  59.3973372  59.5570460  25.8671613  59.7283615
  60.5474477  25.9394609  58.5856649  59.7947723  37.2878738  59.1022523
  60.0870698  37.8483795  58.3834889  60.3046344  37.5807299  59.8575682
  60.3959331  19.1570479  59.9915142  60.7018208  18.2967843  59.7041057
  61.1211936  19.7488099  59.7914136  46.6883687  29.5601166  58.3796740
  46.4908087  28.9670527  57.6547806  46.1330351  29.2553376  59.0972678
  54.6680411  29.4524272  60.4991333  54.7229021  28.4998109  60.4233809
  53.8571613  29.6083711  60.9832631  55.8171604  33.3804395  51.7369616
  55.3791034  32.6640254  51.2775253  56.5582045  33.6080510  51.1754707
  52.6072771  28.0701332  58.2581712  51.7940636  28.3695503  58.6646904
  53.1031765  27.6757021  58.9756194  54.7581349  38.0659089  60.1915976
  54.7157527  38.2919935  59.2624508  55.6744047  37.8322464  60.3401778
  58.2046982  28.5343157  67.0896606  58.5596370  28.7614630  67.9491071
  58.8519114  28.8661533  66.4673861  52.0986845  25.6419688  63.8742947
  52.7386225  25.5008447  63.1765910  51.2664376  25.3554201  63.4981549
  52.8747149  34.9422118  59.9877939  53.6687748  34.4472438  59.7860514
  52.1638842  34.4139981  59.6245645  57.6941994  37.3240214  64.3390307
  57.7479016  37.8931150  65.1068023  56.8256775  37.4942099  63.9744344
  49.1829913  29.0865200  56.0637692  48.2527501  29.0249655  56.2807654
  49.2787385  28.5641153  55.2674333  49.1015462  25.6120013  58.6515933
  49.3622279  26.5265346  58.5425094  49.9232634  25.1444455  58.8012546
  50.5740387  27.0257770  65.8214758  51.2463441  26.8175132  65.1727407
  49.7470174  26.8279856  65.3819990  56.4765959  23.6519711  67.8380419
  55.8293874  24.3509660  67.7444895  57.2466975  24.0855855  68.2056667
  59.8844757  33.9168563  70.9130972  59.7330264  33.6879115  69.9961056
  59.8749437  34.8739164  70.9262317  56.6530094  31.4900476  65.8977239
  57.5822154  31.6411635  65.7246206  56.2321124  31.5784496  65.0425885
  55.4518425  35.5151140  63.6675776  55.3129511  35.1469924  64.5401714
  54.6633022  36.0298779  63.4959734  56.0466577  40.6160236  55.0101313
  56.2218333  40.1448280  55.8246935  55.3599365  41.2426003  55.2382573
  57.0023640  34.8932743  61.0564614  56.6673473  34.8533513  61.9522264
  56.5027586  34.2277459  60.5835024  50.9767884  30.3000373  66.5817195
  50.8387682  29.5680612  67.1828734  51.8872808  30.2109273  66.3001383
  59.9382832  32.2388777  51.3301674  59.3212003  31.5135605  51.2334726
  59.4699321  32.9998137  50.9868748  53.6050185  30.0120332  66.0700875
  54.3149804  29.3713524  66.0287493  53.5619493  30.2633227  66.9927056
  61.5936964  36.9487685  68.9907454  61.5349510  36.2646906  68.3238037
  61.9956482  37.6906675  68.5388080  52.3179119  26.9985550  67.8896514
  51.7816476  26.5476288  68.5418111  51.7295828  27.1331459  67.1466979
  51.7281378  26.4574201  50.4522978  50.8510844  26.3363002  50.0885225
  52.2039131  25.6660280  50.2001867  61.5954371  34.9127269  67.2221434
  60.7081150  34.5753191  67.3447833  62.1652922  34.1810301  67.4590199
  43.2483518  31.2451361  60.5464485  43.9354558  30.9313091  59.9585500
  43.0931647  32.1492726  60.2731736  48.0518240  26.1341558  64.9749509
  47.9676429  25.5267227  64.2399919  47.2300947  26.6250576  64.9759005
  54.9145304  38.8100492  57.6985498  54.1312826  39.3522172  57.7923723
  55.6138049  39.3274471  58.0979740  58.2241954  24.6195121  60.3419704
  58.7210654  23.8665084  60.0220774  57.4528936  24.6559438  59.7762913
  59.3071735  33.3766808  57.9158127  58.3728014  33.4968271  57.7462832
  59.4848403  32.4739275  57.6518137  54.8076923  26.7612504  60.0691388
  54.4374710  26.2083545  60.7572294  55.3036015  26.1570638  59.5166388
  60.6660949  21.5864715  62.4899063  59.7524029  21.8168942  62.6581270
  61.0954050  21.6703159  63.3413095  60.4367407  29.7754607  64.9898957
  59.7838858  30.0230514  64.3351409  60.8147787  28.9618745  64.6561434
  57.3974581  39.8114300  59.0927127  57.5796976  38.9935956  59.5554879
  58.2207567  40.0281992  58.6552017  57.7316747  38.7382485  56.3542175
  58.2604513  38.2274940  55.7412338  57.9944966  38.4225015  57.2187709
  56.4854980  30.5174418  71.4764994  55.8095617  30.4168547  72.1467369
  57.3082614  30.3613631  71.9400991  48.2333840  36.7546354  64.0977509
  48.8187276  36.0090042  64.2305413  48.0358678  37.0650311  64.9814173
  51.0872495  39.7897602  59.1139951  50.4182870  40.2743729  58.6303991
  50.9485364  40.0366822  60.0283330  42.8251494  29.3251954  62.8181952
  42.8635594  28.7915545  63.6119070  42.3191787  28.7987160  62.1992929
  50.2042257  24.1716495  66.3144494  50.2683583  25.0331326  65.9021892
  50.1409377  23.5590497  65.5816853  49.6794529  26.2439627  69.9617529
  50.3066568  25.8616705  70.5755053  48.8222448  26.0253829  70.3273221
  60.0788638  36.6502603  71.5671264  60.6228542  37.2632561  71.0726219
  59.4975483  37.2082181  72.0838277  46.4560072  28.0516057  55.8935884
  46.7513513  27.1426735  55.8402937  45.5548108  28.0303796  55.5716886
  58.3646151  39.7723321  62.6986292  58.2397290  38.9713061  62.1897237
  59.0225242  40.2669514  62.2100262  49.9854319  26.1272053  61.8763432
  49.2640905  26.7408021  61.7370905  50.7747575  26.6629818  61.7980078
  60.4281059  37.5732341  64.3265842  59.4811395  37.4537692  64.2544169
  60.7763832  36.6854839  64.4092103  52.7880632  23.4626480  68.1504084
  53.3115034  23.7088776  68.9130393  52.5692966  24.2946514  67.7307221
  48.1847913  25.7330154  56.0175209  47.8560620  24.8527533  55.8350315
  48.5387284  25.6777823  56.9051598  57.4327492  37.3685057  60.5270194
  57.2852455  36.4401764  60.7077764  58.2580986  37.3905148  60.0427269
  51.2989737  26.0203124  56.3850686  51.6385809  26.5489045  55.6629295
  51.7461857  26.3583530  57.1609253  61.0361614  38.1913616  61.6135067
  61.9608162  37.9856477  61.4759518  60.8676918  37.9430017  62.5224408
  53.9933177  24.4040175  65.8353754  53.6529998  23.6047988  66.2374434
  53.2872184  24.7041886  65.2630588  54.6449649  21.4889487  64.2881077
  55.4675719  21.0149965  64.1659968  54.8887713  22.2679971  64.7879764
  53.2857884  24.5177746  54.5843979  54.0066246  24.8958998  54.0807696
  52.6623188  25.2366622  54.6878957  57.4289007  25.2222895  55.5202311
  57.6452621  26.1047532  55.2191140  56.9483074  24.8309108  54.7907953
  52.1688228  28.1808608  62.0973056  52.0232809  28.4948911  62.9897338
  51.6913432  28.7993508  61.5443955  54.0284611  25.1711156  62.1453946
  54.0146180  24.2752249  61.8086244  54.7457039  25.1781820  62.7792232
  55.8810742  25.6048496  64.1907073  55.6228519  26.5265567  64.1891404
  55.3495782  25.2078931  64.8807537  60.8256930  38.7099283  56.9697158
  60.9993808  38.1445706  56.2171011  61.3185822  39.5100178  56.7876648
  46.6433890  30.7213952  65.0360717  46.0987358  31.4973760  65.1680992
  47.5213240  31.0684757  64.8779839  53.4321507  24.0525536  57.4141516
  53.5537418  23.1242182  57.6132403  53.1423549  24.0664222  56.5019831
  56.3012697  21.7380447  60.5508236  56.3234394  21.8019780  59.5960215
  56.7180756  20.8984955  60.7448742  61.8132103  38.0266048  54.0694057
  62.5083007  38.6472740  54.2881371  62.1555253  37.1761399  54.3446435
  47.4299912  29.8483849  67.9290874  46.6881648  29.9966484  68.5155505
  47.1092656  30.1092114  67.0657624  55.3964187  41.5437736  59.9576641
  54.9569177  41.0514115  60.6509497  56.1472304  41.0010704  59.7168716
  47.8756526  37.7349277  59.9601269  48.7014546  37.4353049  59.5799912
  47.5250578  36.9656900  60.4091057  46.0765131  35.6535604  60.9190202
  45.2397039  35.2257778  60.7374204  46.0488776  35.8468047  61.8560994
  52.9162586  25.5657533  71.6231448  52.9650742  26.4419656  71.2409218
  53.4585101  25.0234927  71.0503092  52.4051566  35.6379669  55.5057403
  52.5539686  36.3215133  54.8524076  53.2118009  35.6184759  56.0206859
  60.8119069  28.9422051  69.5324621  61.7128932  28.8028516  69.2408619
  60.8867044  29.1076506  70.4722798  55.1461875  26.3188906  68.3777807
  54.2765184  26.6122472  68.1060396  55.3821355  26.9029351  69.0985071
  63.2720692  30.5020679  66.9287394  63.7474814  30.6948326  66.1206245
  62.3486258  30.5579865  66.6830777  50.1604199  31.6644846  56.5118472
  49.9150241  30.7607176  56.7098682  50.3300113  31.6661997  55.5697950
  57.8500909  22.5368523  65.8943227  58.3682853  23.2729550  65.5689716
  57.4956041  22.8432516  66.7289987  49.4299846  27.3973204  54.0104633
  48.7369091  27.4717559  53.3544669  49.1851598  26.6333548  54.5326150
  58.1013503  18.9568805  61.4144124  58.3815257  18.2891994  62.0404551
  58.8864110  19.1497901  60.9018788  55.9046971  38.1327799  52.9769150
  55.3320938  38.7517986  52.5239622  56.4779765  38.6827161  53.5109072
  61.9722361  27.3786439  65.1615699  62.9239784  27.4784537  65.1827923
  61.8025812  26.5864708  65.6713784  59.9936741  24.4642023  65.3475100
  59.3986673  24.7447035  64.6521589  59.7086437  24.9535923  66.1191841
  59.1244231  38.4164949  54.1077733  60.0574904  38.3510511  54.3110608
  59.0367444  39.2521216  53.6492265  61.7532248  37.7330820  51.0681680
  61.6745879  37.3990683  51.9617438  62.5741915  38.2252588  51.0673153
  64.4510439  30.5992559  64.2757999  64.4186759  29.6608560  64.4617683
  65.0611063  30.6776596  63.5423824  56.2893770  29.4688612  50.3185203
  57.2352875  29.3394820  50.3873621  55.9108015  28.7303274  50.7954631
  64.6004927  27.3903602  64.3216282  64.0843976  26.6062059  64.1346211
  65.4844876  27.0622319  64.4862801  62.2615654  21.1344618  60.2812095
  62.0640475  20.8259706  61.1655427  62.8715360  21.8606257  60.4110025
  56.1732462  33.5206358  71.7785860  57.0935472  33.6984957  71.9725906
  56.1382045  32.5762403  71.6265559  54.4736687  27.3938588  50.2540088
  53.5668142  27.0971701  50.3302802  54.7512668  27.0968406  49.3874374
  45.3914627  28.7144952  60.7039134  45.0717412  27.8610260  60.4113508
  44.8448056  28.9293530  61.4597102  49.1694535  31.4307393  64.4208641
  49.3880545  32.3624501  64.4396675  49.5820309  31.0715367  65.2063445
  56.0898753  21.9375478  56.4084329  55.2799481  21.5922563  56.7839575
  56.7783170  21.6283022  56.9971941  58.0189301  21.0153525  58.0308626
  58.5720340  21.4348978  58.6898649  58.2559387  20.0889273  58.0731582
  54.0422400  27.0040599  73.8111390  53.9419127  27.9534956  73.7423481
  53.8243942  26.6758837  72.9387460  53.2435472  24.2525524  50.3952067
  54.1054636  24.5780422  50.6547885  53.4285816  23.4657020  49.8825133
  45.2602887  32.3347863  62.6732256  44.5666359  31.9201816  62.1602210
  46.0075878  32.3768400  62.0765675  61.3968108  23.1254050  57.5387290
  60.8166777  23.7838854  57.1565343  61.1304041  22.3031395  57.1274708
  59.8471674  22.5259108  59.7408611  60.3471453  22.6375642  58.9322929
  60.4907282  22.2220161  60.3809419  53.9053670  30.4337737  72.6276452
  53.4220752  31.2338098  72.8340341  53.9914609  30.4445682  71.6743896
  47.1739630  32.2666117  60.5498271  47.1510318  32.3653804  59.5980154
  47.4840266  33.1131268  60.8715437  49.8327008  34.3242272  64.6644885
  50.7870261  34.2926214  64.5974817  49.6339531  33.8632896  65.4795111
  50.4226390  32.8943388  67.2315683  51.2419279  33.3887467  67.2550520
  50.6963198  31.9775356  67.2033251  60.1792986  25.2854140  56.5943639
  59.2918841  25.5703791  56.3763833  60.5946975  25.1247904  55.7470915
  63.5307522  25.3100661  60.3097978  64.3067912  25.7997114  60.5822595
  62.8055656  25.7358716  60.7669847  65.9680081  26.0228281  61.3671918
  66.5624572  25.7824017  60.6565227  66.0406665  25.3035411  61.9945455
  48.1877237  39.8661892  61.6815083  48.0531704  39.1062292  61.1153081
  47.7709299  40.5902791  61.2143872  59.3236200  35.0498815  50.6891658
  60.0272050  35.2548818  51.3049314  58.5998848  35.6175577  50.9540742
  60.1534010  30.8008676  56.8093929  60.0969211  31.2577228  55.9701561
  60.7062352  30.0399361  56.6316771  63.9638816  26.5898408  57.6344048
  63.7075750  26.1895044  58.4652256  63.3391684  27.3042202  57.5094187
  45.6761304  27.2281522  67.9307880  46.3220168  26.7180476  68.4195105
  45.4678455  27.9650204  68.5051305  58.2014696  34.2962369  73.4300021
  59.0705856  34.4703022  73.0686656  57.7221448  35.1156786  73.3075750
  54.1964915  21.4921567  53.6831776  54.1843584  22.4363407  53.8400047
  55.0888336  21.3091712  53.3891237  58.0117034  18.0864343  57.9377713
  57.2449430  17.5322830  58.0834395  58.4227739  18.1586212  58.7991865
  50.0158795  24.3749139  72.0282894  50.8790257  24.0185944  72.2386219
  49.4424206  24.0363034  72.7158299  62.0338880  48.5674005  54.4705310
  62.8069756  48.0202992  54.3318186  62.3864279  49.4318254  54.6819772
  64.3705158  44.7266671  52.1023760  64.6230678  44.2048192  51.3407223
  63.4329717  44.5632816  52.2050444  64.0901446  46.6294777  54.3048135
  63.9737705  45.9539680  54.9729219  64.2003706  46.1427151  53.4880288
  64.8479192  44.8897333  56.2836405  65.5503235  45.3418377  56.7510332
  64.5159820  44.2481152  56.9116299  60.5419271  43.5125465  58.5437016
  59.7450434  43.6244159  59.0620511  60.3144863  43.8512117  57.6777906
  62.5740296  37.7829856  73.0212866  62.1807241  37.2296054  73.6960510
  63.3906436  38.0940434  73.4119383  62.3667165  39.9114431  59.2329186
  62.9410917  39.6889612  58.5002379  62.9538148  39.9803125  59.9857787
  63.4466525  43.3993250  58.2581712  62.6334391  43.6987420  58.6646904
  63.9425519  43.0048939  58.9756194  60.0223667  44.4157117  56.0637692
  59.0921255  44.3541573  56.2807654  60.1181139  43.8933070  55.2674333
  59.9409216  40.9411930  58.6515933  60.2016034  41.8557264  58.5425094
  60.7626389  40.4736373  58.8012546  70.7238512  49.2460481  70.9130972
  70.5724018  49.0171032  69.9961056  70.7143191  50.2031082  70.9262317
  66.8860332  55.9452154  55.0101313  67.0612087  55.4740197  55.8246935
  66.1993120  56.5717920  55.2382573  65.6470677  42.0904422  60.0691388
  65.2768465  41.5375462  60.7572294  66.1429770  41.4862555  59.5166388
  61.0436011  39.5008413  66.3144494  61.1077338  40.3623244  65.9021892
  60.9803131  38.8882414  65.5816853  57.2953826  43.3807974  55.8935884
  57.5907267  42.4718653  55.8402937  56.3941862  43.3595714  55.5716886
  63.6274387  38.7918397  68.1504084  64.1508789  39.0380694  68.9130393
  63.4086720  39.6238432  67.7307221  59.0241668  41.0622072  56.0175209
  58.6954374  40.1819451  55.8350315  59.3781039  41.0069741  56.9051598
  62.1383491  41.3495042  56.3850686  62.4779564  41.8780963  55.6629295
  62.5855612  41.6875448  57.1609253  64.8326932  39.7332092  65.8353754
  64.4923752  38.9339906  66.2374434  64.1265938  40.0333803  65.2630588
  64.8678365  40.5003074  62.1453946  64.8539934  39.6044167  61.8086244
  65.5850793  40.5073737  62.7792232  64.2715261  39.3817454  57.4141516
  64.3931173  38.4534100  57.6132403  63.9817304  39.3956140  56.5019831
  63.7556341  40.8949451  71.6231448  63.8044496  41.7711574  71.2409218
  64.2978855  40.3526844  71.0503092  71.6512824  44.2713969  69.5324621
  72.5522687  44.1320434  69.2408619  71.7260798  44.4368424  70.4722798
  60.2693601  42.7265122  54.0104633  59.5762846  42.8009477  53.3544669
  60.0245353  41.9625465  54.5326150  64.8816155  42.3332516  73.8111390
  64.7812882  43.2826873  73.7423481  64.6637697  42.0050755  72.9387460
  60.8552550  39.7041057  72.0282894  61.7184011  39.3477862  72.2386219
  60.2817960  39.3654952  72.7158299  73.4134050  53.1121773  73.0212866
  73.0200996  52.5587972  73.6960510  74.2300191  53.4232352  73.4119383
  72.2915172  74.4233435  61.7841173  72.5311770  75.0551959  62.4620191
  71.4484368  74.0721475  62.0706532  91.5394681  76.6634831  62.8345295
  92.1773091  76.5441578  62.1308635  91.4215524  77.6115675  62.8933247
  88.3484387  76.6162259  62.7706820  88.0102899  76.5003324  61.8827355
  89.2174155  76.2153424  62.7507826  84.2071203  78.4697735  58.7603711
  83.6436068  78.3787672  57.9919999  84.0923598  77.6497640  59.2406203
  88.8304170  77.7697111  68.7293026  88.8192811  77.3749909  67.8573529
  88.9924810  77.0363183  69.3226797  81.7535635  79.9648927  61.5987931
  82.5456927  79.6239752  61.1834231  81.9932285  80.0743902  62.5190085
  89.7870762  82.1368703  54.0718176  89.1358741  82.7222783  53.6852190
  90.5815125  82.6674898  54.1313213  83.7126389  79.2257840  54.4705310
  84.4857265  78.6786827  54.3318186  84.0651788  80.0902089  54.6819772
  85.5511431  80.5534222  67.6772209  85.2601297  81.4579853  67.5618876
  86.1868416  80.5950750  68.3916279  86.4767638  77.9311071  64.2673569
  87.0731211  77.7067093  63.5530532  86.5342610  77.1895816  64.8699017
  86.0492667  75.3850506  52.1023760  86.3018187  74.8632028  51.3407223
  85.1117226  75.2216652  52.2050444  91.0935950  74.3886285  59.9098503
  91.8799039  73.9705708  59.5588920  91.3574654  75.2932377  60.0780152
  91.2646027  79.8259135  54.6087160  90.6291860  79.8993761  55.3208065
  90.9343433  80.4152734  53.9306239  96.4944377  74.3261518  60.8131482
  97.2269549  73.7560735  61.0469311  95.7383732  73.9383118  61.2537987
  85.7688955  77.2878612  54.3048135  85.6525214  76.6123516  54.9729219
  85.8791215  76.8010986  53.4880288  88.1120496  76.7488759  58.0094824
  87.7478704  76.2219380  58.7207746  88.9687612  76.3587228  57.8361310
  90.5101317  80.2395638  64.6722003  90.2102040  81.1420677  64.5637810
  90.1652376  79.9727821  65.5243156  83.9613798  76.6909435  60.7058708
  83.0364294  76.5585649  60.9136399  84.2098211  77.4703654  61.2028650
  93.9098460  72.7578178  62.3519440  93.0015338  72.6893587  62.0578201
  93.8586056  73.2350123  63.1801266  87.7315204  74.2336317  53.9902840
  87.6114829  74.6793367  54.8288320  87.0367793  74.5821634  53.4316378
  81.3222609  76.3342708  61.5402497  81.4514990  76.5877187  62.4541908
  80.6420060  76.9270416  61.2207152  85.4922096  87.0039958  57.6392971
  85.4146126  87.9547783  57.7181451  84.8883740  86.6585831  58.2967897
  87.9839326  74.1767824  70.2954338  87.2072660  74.7361744  70.2857202
  88.6229889  74.6624607  70.8169208  95.7760107  70.9594617  64.1297314
  95.1334487  71.2527150  63.4837109  95.2715035  70.8447537  64.9350511
  93.4300270  74.7057790  54.8183174  94.3418126  74.9385176  54.6430871
  92.9209917  75.2894834  54.2558252  86.2385698  76.9853277  69.8572305
  86.9800383  77.5238321  69.5807128  85.5322684  77.6119566  70.0143857
  91.7141038  79.1282418  68.4544466  92.1224394  78.6864828  67.7099099
  90.9918300  78.5535045  68.7078659  88.0672108  74.0655024  65.8278023
  88.9133303  74.4894438  65.9712672  88.0070746  73.4088649  66.5216586
  92.0369853  79.6883608  62.2096755  91.4078715  79.8529322  61.5072823
  91.6495515  80.1025218  62.9807719  95.9159085  80.6238046  59.5641119
  95.2310123  81.0036947  59.0138152  96.0002934  81.2333373  60.2973067
  91.2171553  71.7259393  67.4859197  90.9732485  72.4801453  66.9493473
  91.4931484  72.1044740  68.3206444  93.1710016  78.2698005  66.1636462
  93.3826911  78.9129765  65.4870844  93.1239764  77.4360322  65.6958393
  90.7736245  70.8815826  63.0673035  89.9120724  71.1797079  63.3589772
  90.7998680  71.0986225  62.1354067  87.5897815  79.4258016  59.4746840
  88.0536160  79.7045719  58.6851463  87.3254613  78.5241461  59.2919931
  84.4821896  78.9729498  62.4126603  85.0523253  79.4016766  61.7744088
  85.0730007  78.6912082  63.1110789  86.5266701  75.5481169  56.2836405
  87.2290744  76.0002212  56.7510332  86.1947329  74.9064987  56.9116299
  84.9747062  74.1392925  70.6587615  84.3445723  74.8209206  70.8923012
  84.8683150  74.0276007  69.7140753  80.2692035  73.8064721  61.5853539
  79.4791089  74.0622250  61.1093650  80.7603282  74.6213059  61.6905579
  94.2855844  81.1469960  64.3358820  95.1073288  80.7450148  64.0541501
  94.2818247  81.0438195  65.2874936  88.0512448  80.6954004  66.4919530
  88.1156880  81.1574411  67.3277702  87.3423371  80.0651369  66.6201840
  78.5529738  74.0595212  64.0168530  78.8037776  74.9442222  64.2826106
  79.0889286  73.8799813  63.2443622 102.3761837  77.4908709  60.6843791
 101.6225546  76.9216107  60.5287796 102.5109378  77.4571373  61.6314426
  87.7660465  82.3622111  56.3598511  87.6306140  83.2073647  56.7883358
  88.3070278  82.5641389  55.5964444  84.2527805  68.4413691  73.0212866
  83.8594750  67.8879890  73.6960510  85.0693945  68.7524270  73.4119383
  83.0284747  82.9963306  59.0149189  83.2051376  83.9181270  58.8270173
  83.8241581  82.6821725  59.4443569  82.3137104  75.0427937  68.8911352
  82.1990619  74.1413195  69.1918451  81.4581622  75.2891634  68.5396169
  89.3928942  82.9845678  70.4898853  88.9492796  82.1982056  70.1719757
  90.0546155  83.1724828  69.8242743  84.1516063  84.5141479  65.0159531
  84.7023488  84.3858543  64.2436525  83.3127539  84.8136368  64.6654424
  91.4910180  83.2648478  68.5180254  91.4728655  84.0857359  68.0260523
  92.4130100  83.1402553  68.7430395  87.9483234  80.7792607  69.3603762
  88.4811571  80.0180895  69.1303070  87.4197315  80.4866259  70.1027917
  91.0803212  75.8761284  53.3969839  90.5649835  76.6465889  53.6358227
  90.8080520  75.2026420  54.0202901  88.6650323  70.7210985  58.4555078
  87.8091919  70.3317835  58.2760716  89.0777274  70.8002946  57.5954863
  96.0537486  78.6293639  55.3323013  95.2766928  78.2904798  54.8878175
  96.7328967  78.6346262  54.6577978  90.8689515  73.7488376  55.2229620
  90.5639650  74.0634526  56.0739764  91.8219957  73.8269796  55.2656953
  89.3135947  79.9078600  56.8722574  88.7857308  79.1731359  56.5595812
  88.8123449  80.6853276  56.6262543  94.2928793  78.1027620  61.9889621
  93.6352467  78.7926882  62.0769749  95.0969192  78.4924052  62.3323607
  93.1034251  76.4571993  60.0393562  93.6166133  77.0901985  60.5415272
  93.7535475  75.8573188  59.6736922  87.4588547  77.7258810  49.8757547
  86.5515608  77.4948063  50.0748696  87.9559579  76.9296429  50.0631529
  90.3656626  86.4356317  52.7954234  89.6918324  86.7388014  53.4039191
  90.7522448  87.2385397  52.4459691  89.5815082  73.9321448  62.2851903
  88.6637644  74.1536395  62.1273591  89.9975226  74.0067759  61.4263610
  90.3650130  75.3312864  57.4154583  91.1121949  75.8434261  57.1061705
  90.6341720  75.0096917  58.2758977  88.6376780  77.8271405  54.3981537
  87.7287999  77.5430438  54.4954007  88.6671864  78.2470483  53.5384844
  93.8696048  81.4377994  58.1672705  93.4158375  80.5968904  58.2237896
  93.2390014  82.0739393  58.5047485  92.8128967  72.3669980  59.3973372
  92.0751724  71.8547367  59.7283615  93.0655741  71.9270362  58.5856649
  92.3128987  83.2754491  59.1022523  92.6051961  83.8359548  58.3834889
  92.8227607  83.5683052  59.8575682  87.1861674  75.4400025  60.4991333
  87.2410284  74.4873862  60.4233809  86.3752876  75.5959464  60.9832631
  88.3352868  79.3680148  51.7369616  87.8972298  78.6516007  51.2775253
  89.0763309  79.5956263  51.1754707  85.1254034  74.0577085  58.2581712
  84.3121900  74.3571256  58.6646904  85.6213028  73.6632774  58.9756194
  87.2762612  84.0534842  60.1915976  87.2338791  84.2795688  59.2624508
  88.1925311  83.8198217  60.3401778  90.7228246  74.5218910  67.0896606
  91.0777634  74.7490383  67.9491071  91.3700377  74.8537286  66.4673861
  96.4525983  77.6437345  57.7945935  96.3143881  77.8338941  56.8667124
  96.0962202  78.4056728  58.2513986  84.6168109  71.6295441  63.8742947
  85.2567488  71.4884200  63.1765910  83.7845639  71.3429954  63.4981549
  96.4795362  79.7113872  62.8057206  96.9131869  79.6189162  63.6540260
  97.1926943  79.6871373  62.1677222  85.3928413  80.9297871  59.9877939
  86.1869011  80.4348191  59.7860514  84.6820105  80.4015734  59.6245645
  90.2123257  83.3115967  64.3390307  90.2660280  83.8806903  65.1068023
  89.3438039  83.4817852  63.9744344  83.0921651  73.0133523  65.8214758
  83.7644704  72.8050885  65.1727407  82.2651437  72.8155609  65.3819990
  97.3410912  79.7537573  65.3390092  97.5346802  80.6583384  65.5849366
  97.2411530  79.2944992  66.1728677  92.4026021  79.9044316  70.9130972
  92.2511527  79.6754868  69.9961056  92.3930700  80.8614917  70.9262317
  89.1711357  77.4776229  65.8977239  90.1003417  77.6287388  65.7246206
  88.7502387  77.5660249  65.0425885  87.9699689  81.5026893  63.6675776
  87.8310774  81.1345677  64.5401714  87.1814285  82.0174532  63.4959734
  88.5647841  86.6035990  55.0101313  88.7399596  86.1324033  55.8246935
  87.8780629  87.2301756  55.2382573  89.5204904  80.8808496  61.0564614
  89.1854737  80.8409266  61.9522264  89.0208850  80.2153212  60.5835024
  83.4949148  76.2876126  66.5817195  83.3568946  75.5556365  67.1828734
  84.4054071  76.1985026  66.3001383  92.4564096  78.2264530  51.3301674
  91.8393266  77.5011358  51.2334726  91.9880584  78.9873890  50.9868748
  86.1231449  75.9996085  66.0700875  86.8331067  75.3589277  66.0287493
  86.0800757  76.2508980  66.9927056  94.1118227  82.9363438  68.9907454
  94.0530773  82.2522659  68.3238037  94.5137746  83.6782428  68.5388080
  84.8360383  72.9861303  67.8896514  84.2997740  72.5352041  68.5418111
  84.2477091  73.1207212  67.1466979  83.1308926  89.7525352  61.7841173
  83.3705524  90.3843876  62.4620191  82.2878123  89.4013392  62.0706532
  94.1135635  80.9003022  67.2221434  93.2262413  80.5628944  67.3447833
  94.6834186  80.1686054  67.4590199  75.7664782  77.2327114  60.5464485
  76.4535821  76.9188844  59.9585500  75.6112910  78.1368479  60.2731736
  87.6436788  85.5604475  64.1882677  87.5706959  86.3659446  64.7001981
  87.2014181  85.7596441  63.3630698  87.4326568  84.7976245  57.6985498
  86.6494089  85.3397925  57.7923723  88.1319313  85.3150224  58.0979740
  90.7423218  70.6070874  60.3419704  91.2391917  69.8540837  60.0220774
  89.9710199  70.6435191  59.7762913  98.5952975  76.3111240  61.9837995
  98.5842851  77.1935955  61.6131928  97.7270354  75.9582791  61.7892532
  90.1035471  85.4591309  66.3440836  90.8163444  86.0938774  66.2716737
  89.6125500  85.5555175  65.5280837  91.8252998  79.3642561  57.9158127
  90.8909277  79.4844024  57.7462832  92.0029667  78.4615028  57.6518137
  87.3258186  72.7488257  60.0691388  86.9555974  72.1959298  60.7572294
  87.8217279  72.1446391  59.5166388  95.2125550  75.2059881  58.4508161
  95.6786002  76.0387872  58.3768464  95.6633050  74.7404862  59.1553420
  85.1547385  83.2085752  67.1646406  85.8556844  83.8422235  67.3175801
  84.6842500  83.5500484  66.4042046  93.2801781  81.5503702  55.4494313
  93.5561625  81.4360297  56.3588187  92.4106280  81.1521187  55.4106486
  92.9548671  75.7630360  64.9898957  92.3020121  76.0106267  64.3351409
  93.3329051  74.9494498  64.6561434  89.9155845  85.7990053  59.0927127
  90.0978239  84.9811709  59.5554879  90.7388831  86.0157745  58.6552017
  90.2498010  84.7258238  56.3542175  90.7785777  84.2150693  55.7412338
  90.5126230  84.4100768  57.2187709  89.0036244  76.5050171  71.4764994
  88.3276881  76.4044300  72.1467369  89.8263878  76.3489384  71.9400991
  80.7515103  82.7422107  64.0977509  81.3368540  81.9965795  64.2305413
  80.5539941  83.0526064  64.9814173  83.6053758  85.7773355  59.1139951
  82.9364134  86.2619482  58.6303991  83.4666628  86.0242575  60.0283330
  75.3432758  75.3127707  62.8181952  75.3816857  74.7791298  63.6119070
  74.8373051  74.7862913  62.1992929  87.7459027  87.8117098  65.7122610
  88.2977335  87.9748720  66.4771695  88.0865220  88.4021536  65.0402635
  92.5969901  82.6378356  71.5671264  93.1409805  83.2508314  71.0726219
  92.0156746  83.1957934  72.0838277  90.8827414  85.7599074  62.6986292
  90.7578554  84.9588814  62.1897237  91.5406505  86.2545267  62.2100262
  82.5035582  72.1147806  61.8763432  81.7822168  72.7283774  61.7370905
  83.2928838  72.6505571  61.7980078  92.9462322  83.5608094  64.3265842
  91.9992658  83.4413445  64.2544169  93.2945096  82.6730592  64.4092103
  89.9508756  83.3560810  60.5270194  89.8033718  82.4277517  60.7077764
  90.7762249  83.3780901  60.0427269  93.5542878  84.1789369  61.6135067
  94.4789425  83.9732230  61.4759518  93.3858181  83.9305770  62.5224408
  84.6869491  74.1684361  62.0973056  84.5414072  74.4824664  62.9897338
  84.2094695  74.7869261  61.5443955  86.5465874  71.1586909  62.1453946
  86.5327443  70.2628002  61.8086244  87.2638302  71.1657573  62.7792232
  88.3992005  71.5924249  64.1907073  88.1409783  72.5141320  64.1891404
  87.8677045  71.1954684  64.8807537  93.3438194  84.6975036  56.9697158
  93.5175071  84.1321459  56.2171011  93.8367085  85.4975931  56.7876648
  79.1615154  76.7089705  65.0360717  78.6168622  77.4849513  65.1680992
  80.0394504  77.0560510  64.8779839  99.1977585  77.4611459  58.5887458
  99.6408731  76.7118784  58.1906581  98.3204095  77.4521595  58.2061190
  94.3313366  84.0141801  54.0694057  95.0264271  84.6348493  54.2881371
  94.6736516  83.1637152  54.3446435  79.9481176  75.8359602  67.9290874
  79.2062912  75.9842237  68.5155505  79.6273920  76.0967867  67.0657624
  96.2304789  81.4641506  55.5981388  96.7556114  81.8028779  54.8730708
  96.1427142  80.5288521  55.4144522  87.8924838  85.3775580  67.7271264
  88.2011965  85.1324727  68.5993964  88.6900320  85.5822218  67.2390134
  87.9145450  87.5313489  59.9576641  87.4750440  87.0389868  60.6509497
  88.6653567  86.9886457  59.7168716  80.3937789  83.7225030  59.9601269
  81.2195809  83.4228802  59.5799912  80.0431841  82.9532653  60.4091057
  85.3619322  83.0751498  62.0298942  84.7399332  82.4122204  61.7301170
  86.0324189  83.1012630  61.3472590  78.5946394  81.6411357  60.9190202
  77.7578303  81.2133531  60.7374204  78.5670040  81.8343800  61.8560994
  85.4343850  71.5533287  71.6231448  85.4832005  72.4295409  71.2409218
  85.9766364  71.0110680  71.0503092  95.9198696  82.0974410  70.9032585
  95.1294239  82.0798549  70.3637085  95.6832050  82.6362703  71.6581622
  96.0396571  78.9466876  68.2165314  96.0894575  78.7816884  69.1580837
  95.9310494  78.0794135  67.8263195  84.9232829  81.6255422  55.5057403
  85.0720950  82.3090886  54.8524076  85.7299273  81.6060512  56.0206859
  93.3300333  74.9297804  69.5324621  94.2310196  74.7904269  69.2408619
  93.4048307  75.0952259  70.4722798  87.6643138  72.3064659  68.3777807
  86.7946448  72.5998225  68.1060396  87.9002619  72.8905104  69.0985071
  97.5414767  81.3663818  68.4607336  97.2499576  81.7293798  69.2970797
  96.9286899  80.6530826  68.2820668  98.7410450  78.9316697  60.9809906
  99.5757341  79.3706501  61.1447466  98.8769579  78.4555351  60.1618152
  95.7901956  76.4896432  66.9287394  96.2656077  76.6824079  66.1206245
  94.8667521  76.5455618  66.6830777  88.4228235  84.1203552  52.9769150
  87.8502202  84.7393739  52.5239622  88.9961028  84.6702914  53.5109072
  94.4903625  73.3662192  65.1615699  95.4421048  73.4660290  65.1827923
  94.3207075  72.5740461  65.6713784  92.5118004  70.4517776  65.3475100
  91.9167936  70.7322788  64.6521589  92.2267701  70.9411677  66.1191841
  91.6425495  84.4040702  54.1077733  92.5756168  84.3386264  54.3110608
  91.5548707  85.2396969  53.6492265  94.2713511  83.7206573  51.0681680
  94.1927143  83.3866436  51.9617438  95.0923178  84.2128341  51.0673153
  96.9691702  76.5868312  64.2757999  96.9368023  75.6484313  64.4617683
  97.5792326  76.6652349  63.5423824  88.8075033  75.4564365  50.3185203
  89.7534138  75.3270573  50.3873621  88.4289278  74.7179027  50.7954631
  97.1186191  73.3779355  64.3216282  96.6025240  72.5937812  64.1346211
  98.0026139  73.0498072  64.4862801 102.7868252  77.6484319  63.4164036
 103.5171641  77.3869607  63.9771739 102.1775198  76.9113041  63.4566104
 100.8683549  75.7892181  64.0138487 100.1416713  75.6548146  63.4054978
 100.4530836  76.0969010  64.8195205  88.6913726  79.5082111  71.7785860
  89.6116735  79.6860710  71.9725906  88.6563309  78.5638157  71.6265559
  81.6875798  77.4183146  64.4208641  81.9061808  78.3500254  64.4396675
  82.1001572  77.0591120  65.2063445  86.5603664  72.9916352  73.8111390
  86.4600391  73.9410709  73.7423481  86.3425206  72.6634590  72.9387460
  77.7784151  78.3223616  62.6732256  77.0847622  77.9077569  62.1602210
  78.5257142  78.3644153  62.0765675  93.9149372  69.1129803  57.5387290
  93.3348041  69.7714607  57.1565343  93.6485304  68.2907148  57.1274708
  92.3652938  68.5134861  59.7408611  92.8652716  68.6251395  58.9322929
  93.0088546  68.2095914  60.3809419  86.4234934  76.4213490  72.6276452
  85.9402015  77.2213851  72.8340341  86.5095873  76.4321435  71.6743896
  82.3508271  80.3118025  64.6644885  83.3051525  80.2801967  64.5974817
  82.1520795  79.8508649  65.4795111  82.9407653  78.8819141  67.2315683
  83.7600542  79.3763220  67.2550520  83.2144461  77.9651109  67.2033251
  92.6974250  71.2729893  56.5943639  91.8100105  71.5579544  56.3763833
  93.1128239  71.1123657  55.7470915  96.0488786  71.2976414  60.3097978
  96.8249176  71.7872867  60.5822595  95.3236920  71.7234469  60.7669847
  98.4861344  72.0104034  61.3671918  99.0805835  71.7699770  60.6565227
  98.5587928  71.2911164  61.9945455  80.7058500  85.8537645  61.6815083
  80.5712968  85.0938045  61.1153081  80.2890562  86.5778544  61.2143872
  91.8417463  81.0374568  50.6891658  92.5453313  81.2424571  51.3049314
  91.1180112  81.6051330  50.9540742  92.6715273  76.7884429  56.8093929
  92.6150475  77.2452981  55.9701561  93.2243616  76.0275114  56.6316771
  96.4820079  72.5774161  57.6344048  96.2257013  72.1770797  58.4652256
  95.8572947  73.2917955  57.5094187 100.7932417  75.3170235  60.1415340
 100.2331975  75.3863424  60.9146902 100.1875920  75.1411219  59.4214836
  83.8627626  86.7506962  61.8933526  83.7460010  87.6952394  61.7912216
  83.0420072  86.4480523  62.2819325  93.7504160  81.4757097  52.7390119
  94.5849764  81.0438296  52.5567593  93.5888503  81.3039111  53.6667013
  93.4050053  77.9789211  54.1046458  93.3498856  77.8133482  53.1634902
  92.7796108  78.6865244  54.2608648  78.1942568  73.2157275  67.9307880
  78.8401431  72.7056229  68.4195105  77.9859719  73.9525957  68.5051305
  90.7195960  80.2838123  73.4300021  91.5887119  80.4578775  73.0686656
  90.2402711  81.1032539  73.3075750  84.8882140  87.4035224  65.1089454
  85.7909387  87.4358834  65.4255949  84.6619510  86.4735674  65.1235790
  86.6435742  86.1566210  61.7699533  85.6931373  86.1568072  61.6563905
  86.9468228  85.4098945  61.2535568 102.3788436  91.9926748  62.8345295
 103.0166845  91.8733496  62.1308635 102.2609278  92.9407592  62.8933247
  99.1878142  91.9454177  62.7706820  98.8496653  91.8295241  61.8827355
 100.0567910  91.5445342  62.7507826  95.0464957  93.7989653  58.7603711
  94.4829823  93.7079590  57.9919999  94.9317353  92.9789557  59.2406203
  99.6697925  93.0989028  68.7293026  99.6586566  92.7041827  67.8573529
  99.8318564  92.3655101  69.3226797  92.5929389  95.2940845  61.5987931
  93.3850681  94.9531669  61.1834231  92.8326040  95.4035820  62.5190085
 100.6264516  97.4660621  54.0718176  99.9752496  98.0514701  53.6852190
 101.4208879  97.9966816  54.1313213  94.5520143  94.5549758  54.4705310
  95.3251019  94.0078745  54.3318186  94.9045542  95.4194007  54.6819772
  96.3905186  95.8826140  67.6772209  96.0995052  96.7871771  67.5618876
  97.0262170  95.9242668  68.3916279  97.3161393  93.2602989  64.2673569
  97.9124965  93.0359011  63.5530532  97.3736364  92.5187734  64.8699017
  96.8886421  90.7142424  52.1023760  97.1411942  90.1923945  51.3407223
  95.9510980  90.5508569  52.2050444 101.9329704  89.7178202  59.9098503
 102.7192793  89.2997625  59.5588920 102.1968408  90.6224294  60.0780152
 102.1039781  95.1551053  54.6087160 101.4685614  95.2285679  55.3208065
 101.7737188  95.7444651  53.9306239 107.3338131  89.6553436  60.8131482
 108.0663303  89.0852652  61.0469311 106.5777487  89.2675036  61.2537987
  96.6082710  92.6170530  54.3048135  96.4918968  91.9415433  54.9729219
  96.7184970  92.1302904  53.4880288  98.9514251  92.0780677  58.0094824
  98.5872458  91.5511298  58.7207746  99.8081367  91.6879146  57.8361310
 104.8563551  83.3675010  65.2726090 104.5246876  84.2370421  65.0487305
 104.2609165  83.0511294  65.9520121  98.5919738  87.1070577  53.0056173
  98.7594140  87.9750813  53.3726644  98.4016907  87.2697858  52.0817462
 101.3495071  95.5687556  64.6722003 101.0495794  96.4712594  64.5637810
 101.0046131  95.3019739  65.5243156  94.8007552  92.0201352  60.7058708
  93.8758049  91.8877567  60.9136399  95.0491966  92.7995572  61.2028650
 104.7492215  88.0870096  62.3519440 103.8409092  88.0185504  62.0578201
 104.6979811  88.5642041  63.1801266  98.5708959  89.5628234  53.9902840
  98.4508584  90.0085285  54.8288320  97.8761547  89.9113552  53.4316378
  92.1616364  91.6634626  61.5402497  92.2908745  91.9169105  62.4541908
  91.4813815  92.2562334  61.2207152  96.3315851 102.3331876  57.6392971
  96.2539881 103.2839701  57.7181451  95.7277494 101.9877748  58.2967897
  98.8233081  89.5059741  70.2954338  98.0466415  90.0653662  70.2857202
  99.4623644  89.9916524  70.8169208 106.6153861  86.2886534  64.1297314
 105.9728241  86.5819067  63.4837109 106.1108790  86.1739455  64.9350511
 104.2694025  90.0349707  54.8183174 105.1811881  90.2677094  54.6430871
 103.7603672  90.6186752  54.2558252  97.0779453  92.3145195  69.8572305
  97.8194137  92.8530239  69.5807128  96.3716438  92.9411483  70.0143857
 102.5534793  94.4574335  68.4544466 102.9618149  94.0156746  67.7099099
 101.8312054  93.8826963  68.7078659  98.9065863  89.3946942  65.8278023
  99.7527058  89.8186356  65.9712672  98.8464500  88.7380566  66.5216586
 102.8763607  95.0175526  62.2096755 102.2472470  95.1821240  61.5072823
 102.4889269  95.4317135  62.9807719 106.7552839  95.9529964  59.5641119
 106.0703877  96.3328865  59.0138152 106.8396688  96.5625290  60.2973067
 102.0565308  87.0551310  67.4859197 101.8126240  87.8093371  66.9493473
 102.3325238  87.4336658  68.3206444 104.0103771  93.5989923  66.1636462
 104.2220666  94.2421683  65.4870844 103.9633519  92.7652239  65.6958393
 101.6130000  86.2107743  63.0673035 100.7514479  86.5088997  63.3589772
 101.6392434  86.4278142  62.1354067  98.4291569  94.7549934  59.4746840
  98.8929915  95.0337637  58.6851463  98.1648367  93.8533378  59.2919931
  95.3215650  94.3021415  62.4126603  95.8917007  94.7308684  61.7744088
  95.9123762  94.0204000  63.1110789  97.3660455  90.8773086  56.2836405
  98.0684498  91.3294130  56.7510332  97.0341084  90.2356905  56.9116299
  95.8140817  89.4684843  70.6587615  95.1839477  90.1501124  70.8923012
  95.7076905  89.3567925  69.7140753  91.1085789  89.1356639  61.5853539
  90.3184843  89.3914167  61.1093650  91.5997036  89.9504977  61.6905579
 105.1249599  96.4761878  64.3358820 105.9467042  96.0742065  64.0541501
 105.1212001  96.3730112  65.2874936  93.0600534  89.5001218  58.5437016
  92.2631698  89.6119912  59.0620511  92.8326127  89.8387870  57.6777906
  98.8906202  96.0245921  66.4919530  98.9550635  96.4866329  67.3277702
  98.1817126  95.3943286  66.6201840  89.3923492  89.3887129  64.0168530
  89.6431530  90.2734139  64.2826106  89.9283040  89.2091731  63.2443622
 113.2155592  92.8200627  60.6843791 112.4619300  92.2508025  60.5287796
 113.3503133  92.7863291  61.6314426  98.6054220  97.6914029  56.3598511
  98.4699895  98.5365565  56.7883358  99.1464032  97.8933307  55.5964444
  95.0921559  83.7705609  73.0212866  94.6988505  83.2171807  73.6960510
  95.9087700  84.0816187  73.4119383  92.0583617  95.2089467  56.9326436
  92.5708138  96.0032717  57.0832000  92.7106330  94.5115757  56.8660037
  93.8678502  98.3255223  59.0149189  94.0445130  99.2473188  58.8270173
  94.6635335  98.0113642  59.4443569  98.0089520  85.1863488  70.6133122
  98.7499234  85.7870641  70.5337585  98.2407443  84.4441126  70.0551165
  93.1530858  90.3719855  68.8911352  93.0384373  89.4705112  69.1918451
  92.2975376  90.6183552  68.5396169 100.2322696  98.3137595  70.4898853
  99.7886550  97.5273974  70.1719757 100.8939910  98.5016746  69.8242743
  94.9909817  99.8433397  65.0159531  95.5417242  99.7150460  64.2436525
  94.1521293 100.1428286  64.6654424 102.3303934  98.5940395  68.5180254
 102.3122410  99.4149276  68.0260523 103.2523854  98.4694471  68.7430395
  98.7876988  96.1084525  69.3603762  99.3205325  95.3472813  69.1303070
  98.2591069  95.8158177  70.1027917 101.9546683  81.2144591  64.8897404
 101.6110953  82.1046232  64.8136515 102.3225646  81.0246248  64.0266989
  90.0232534  93.5378121  57.7086006  90.8607756  93.9475130  57.4919714
  90.2010802  92.5977563  57.6786200 101.9196966  91.2053202  53.3969839
 101.4043589  91.9757807  53.6358227 101.6474274  90.5318338  54.0202901
  99.5044077  86.0502903  58.4555078  98.6485673  85.6609753  58.2760716
  99.9171029  86.1294863  57.5954863 101.0343224  83.5849246  62.8546637
 100.5308019  83.5479381  62.0414443 101.3273831  84.4941989  62.9143294
  97.2786110  83.6687976  61.8612819  98.1439106  83.4730784  61.5018709
  97.3463618  83.4398327  62.7882176 106.8931240  93.9585557  55.3323013
 106.1160683  93.6196716  54.8878175 107.5722721  93.9638180  54.6577978
 101.7083269  89.0780294  55.2229620 101.4033405  89.3926443  56.0739764
 102.6613711  89.1561714  55.2656953 100.1529701  95.2370517  56.8722574
  99.6251063  94.5023277  56.5595812  99.6517204  96.0145194  56.6262543
 105.1322547  93.4319538  61.9889621 104.4746221  94.1218799  62.0769749
 105.9362946  93.8215970  62.3323607  94.8848429  85.8990184  59.2329186
  95.4592181  85.6765365  58.5002379  95.4719411  85.9678878  59.9857787
 103.9428006  91.7863910  60.0393562 104.4559888  92.4193902  60.5415272
 104.5929230  91.1865106  59.6736922  95.2118016  87.9294645  53.2525071
  94.3755328  88.2669331  53.5734346  95.0722785  87.7943624  52.3152208
  97.1871096  82.7731432  57.9604255  96.5335509  82.4580450  57.3360870
  97.1451570  82.1507173  58.6864078  98.2982301  93.0550728  49.8757547
  97.3909363  92.8239981  50.0748696  98.7953333  92.2588347  50.0631529
 101.2050380 101.7648235  52.7954234 100.5312079 102.0679932  53.4039191
 101.5916202 102.5677315  52.4459691 100.4208837  89.2613366  62.2851903
  99.5031398  89.4828313  62.1273591 100.8368980  89.3359677  61.4263610
 101.2043884  90.6604782  57.4154583 101.9515703  91.1726179  57.1061705
 101.4735474  90.3388834  58.2758977  99.4770535  93.1563322  54.3981537
  98.5681754  92.8722355  54.4954007  99.5065618  93.5762401  53.5384844
 104.7089802  96.7669912  58.1672705 104.2552129  95.9260822  58.2237896
 104.0783769  97.4031310  58.5047485 103.6522722  87.6961898  59.3973372
 102.9145478  87.1839284  59.7283615 103.9049495  87.2562280  58.5856649
 103.1522741  98.6046409  59.1022523 103.4445716  99.1651466  58.3834889
 103.6621362  98.8974970  59.8575682 103.7534349  80.4738150  59.9915142
 104.0593226  79.6135513  59.7041057 104.4786954  81.0655770  59.7914136
  90.0458705  90.8768837  58.3796740  89.8483105  90.2838197  57.6547806
  89.4905369  90.5721047  59.0972678  98.0255429  90.7691943  60.4991333
  98.0804038  89.8165779  60.4233809  97.2146631  90.9251382  60.9832631
  99.1746622  94.6972066  51.7369616  98.7366052  93.9807925  51.2775253
  99.9157063  94.9248181  51.1754707  95.9647789  89.3869003  58.2581712
  95.1515654  89.6863173  58.6646904  96.4606783  88.9924692  58.9756194
  98.1156366  99.3826760  60.1915976  98.0732545  99.6087606  59.2624508
  99.0319065  99.1490134  60.3401778 101.5622000  89.8510827  67.0896606
 101.9171388  90.0782300  67.9491071 102.2094132  90.1829204  66.4673861
 107.2919737  92.9729263  57.7945935 107.1537636  93.1630859  56.8667124
 106.9355956  93.7348646  58.2513986  95.4561863  86.9587358  63.8742947
  96.0961243  86.8176117  63.1765910  94.6239394  86.6721872  63.4981549
 107.3189117  95.0405790  62.8057206 107.7525624  94.9481079  63.6540260
 108.0320698  95.0163291  62.1677222  96.2322167  96.2589789  59.9877939
  97.0262766  95.7640109  59.7860514  95.5213860  95.7307652  59.6245645
 101.0517012  98.6407884  64.3390307 101.1054034  99.2098821  65.1068023
 100.1831793  98.8109769  63.9744344  92.5404931  90.4032870  56.0637692
  91.6102519  90.3417326  56.2807654  92.6362403  89.8808823  55.2674333
  92.4590480  86.9287683  58.6515933  92.7197297  87.8433017  58.5425094
  93.2807652  86.4612126  58.8012546  93.9315405  88.3425440  65.8214758
  94.6038459  88.1342803  65.1727407  93.1045192  88.1447526  65.3819990
 108.1804666  95.0829491  65.3390092 108.3740556  95.9875301  65.5849366
 108.0805285  94.6236910  66.1728677  99.8340977  84.9687381  67.8380419
  99.1868892  85.6677331  67.7444895 100.6041993  85.4023525  68.2056667
 103.2419775  95.2336234  70.9130972 103.0905281  95.0046785  69.9961056
 103.2324455  96.1906835  70.9262317 100.0105111  92.8068146  65.8977239
 100.9397171  92.9579306  65.7246206  99.5896142  92.8952167  65.0425885
  98.8093443  96.8318811  63.6675776  98.6704529  96.4637595  64.5401714
  98.0208040  97.3466450  63.4959734  99.4041595 101.9327907  55.0101313
  99.5793351 101.4615950  55.8246935  98.7174383 102.5593673  55.2382573
 100.3598658  96.2100413  61.0564614 100.0248491  96.1701183  61.9522264
  99.8602604  95.5445129  60.5835024  94.3342902  91.6168043  66.5817195
  94.1962700  90.8848282  67.1828734  95.2447826  91.5276944  66.3001383
 103.2957850  93.5556448  51.3301674 102.6787021  92.8303276  51.2334726
 102.8274339  94.3165808  50.9868748  96.9625203  91.3288003  66.0700875
  97.6724822  90.6881195  66.0287493  96.9194511  91.5800898  66.9927056
 104.9511982  98.2655356  68.9907454 104.8924528  97.5814576  68.3238037
 105.3531500  99.0074346  68.5388080  95.6754137  88.3153221  67.8896514
  95.1391494  87.8643959  68.5418111  95.0870845  88.4499129  67.1466979
  93.9702681 105.0817270  61.7841173  94.2099279 105.7135794  62.4620191
  93.1271877 104.7305310  62.0706532  95.0856396  87.7741872  50.4522978
  94.2085862  87.6530673  50.0885225  95.5614149  86.9827950  50.2001867
 104.9529389  96.2294940  67.2221434 104.0656168  95.8920862  67.3447833
 105.5227940  95.4977971  67.4590199  86.6058536  92.5619032  60.5464485
  87.2929576  92.2480762  59.9585500  86.4506665  93.4660396  60.2731736
  91.4093258  87.4509228  64.9749509  91.3251447  86.8434898  64.2399919
  90.5875965  87.9418247  64.9759005  98.4830542 100.8896392  64.1882677
  98.4100714 101.6951364  64.7001981  98.0407935 101.0888358  63.3630698
  98.2720322 100.1268162  57.6985498  97.4887844 100.6689843  57.7923723
  98.9713067 100.6442142  58.0979740 101.5816972  85.9362792  60.3419704
 102.0785672  85.1832754  60.0220774 100.8103954  85.9727109  59.7762913
 109.4346730  91.6403157  61.9837995 109.4236606  92.5227873  61.6131928
 108.5664109  91.2874708  61.7892532 100.9429226 100.7883226  66.3440836
 101.6557198 101.4230691  66.2716737 100.4519255 100.8847092  65.5280837
 102.6646753  94.6934479  57.9158127 101.7303032  94.8135942  57.7462832
 102.8423421  93.7906946  57.6518137  98.1651941  88.0780175  60.0691388
  97.7949728  87.5251215  60.7572294  98.6611033  87.4738308  59.5166388
 106.0519304  90.5351798  58.4508161 106.5179756  91.3679790  58.3768464
 106.5026805  90.0696780  59.1553420  95.9941139  98.5377670  67.1646406
  96.6950599  99.1714153  67.3175801  95.5236254  98.8792401  66.4042046
 104.1195535  96.8795620  55.4494313 104.3955379  96.7652214  56.3588187
 103.2500034  96.4813105  55.4106486 104.0235967  82.9032385  62.4899063
 103.1099047  83.1336612  62.6581270 104.4529068  82.9870829  63.3413095
 103.7942425  91.0922277  64.9898957 103.1413876  91.3398185  64.3351409
 104.1722805  90.2786416  64.6561434 100.7549599 101.1281971  59.0927127
 100.9371994 100.3103626  59.5554879 101.5782585 101.3449663  58.6552017
 101.0891765 100.0550156  56.3542175 101.6179531  99.5442610  55.7412338
 101.3519984  99.7392686  57.2187709  99.8429998  91.8342088  71.4764994
  99.1670635  91.7336218  72.1467369 100.6657632  91.6781302  71.9400991
  91.5908858  98.0714025  64.0977509  92.1762294  97.3257713  64.2305413
  91.3933696  98.3817982  64.9814173  94.4447513 101.1065272  59.1139951
  93.7757888 101.5911400  58.6303991  94.3060382 101.3534493  60.0283330
  86.1826512  90.6419625  62.8181952  86.2210612  90.1083216  63.6119070
  85.6766805  90.1154831  62.1992929  98.5852781 103.1409016  65.7122610
  99.1371089 103.3040637  66.4771695  98.9258975 103.7313454  65.0402635
  93.5617275  85.4884166  66.3144494  93.6258601  86.3498997  65.9021892
  93.4984395  84.8758167  65.5816853  93.0369547  87.5607298  69.9617529
  93.6641586  87.1784376  70.5755053  92.1797466  87.3421500  70.3273221
 103.4363656  97.9670273  71.5671264 103.9803560  98.5800232  71.0726219
 102.8550500  98.5249852  72.0838277  89.8135090  89.3683727  55.8935884
  90.1088531  88.4594406  55.8402937  88.9123126  89.3471467  55.5716886
 101.7221169 101.0890991  62.6986292 101.5972308 100.2880731  62.1897237
 102.3800260 101.5837185  62.2100262  93.3429337  87.4439724  61.8763432
  92.6215923  88.0575692  61.7370905  94.1322593  87.9797489  61.7980078
 103.7856077  98.8900011  64.3265842 102.8386413  98.7705363  64.2544169
 104.1338850  98.0022510  64.4092103  96.1455650  84.7794150  68.1504084
  96.6690052  85.0256447  68.9130393  95.9267984  85.6114185  67.7307221
  91.5422931  87.0497825  56.0175209  91.2135638  86.1695204  55.8350315
  91.8962302  86.9945494  56.9051598 100.7902510  98.6852728  60.5270194
 100.6427473  97.7569435  60.7077764 101.6156004  98.7072818  60.0427269
  94.6564755  87.3370795  56.3850686  94.9960827  87.8656716  55.6629295
  95.1036875  87.6751201  57.1609253 104.3936632  99.5081286  61.6135067
 105.3183180  99.3024148  61.4759518 104.2251935  99.2597688  62.5224408
  97.3508195  85.7207845  65.8353754  97.0105016  84.9215659  66.2374434
  96.6447202  86.0209556  65.2630588  98.0024667  82.8057158  64.2881077
  98.8250737  82.3317636  64.1659968  98.2462731  83.5847642  64.7879764
  96.6432902  85.8345416  54.5843979  97.3641264  86.2126669  54.0807696
  96.0198206  86.5534293  54.6878957 100.7864025  86.5390565  55.5202311
 101.0027639  87.4215203  55.2191140 100.3058092  86.1476779  54.7907953
  95.5263246  89.4976279  62.0973056  95.3807827  89.8116582  62.9897338
  95.0488450  90.1161179  61.5443955  97.3859629  86.4878827  62.1453946
  97.3721198  85.5919920  61.8086244  98.1032057  86.4949490  62.7792232
  99.2385760  86.9216167  64.1907073  98.9803537  87.8433237  64.1891404
  98.7070800  86.5246601  64.8807537 104.1831948 100.0266954  56.9697158
 104.3568826  99.4613376  56.2171011 104.6760840 100.8267849  56.7876648
  90.0008908  92.0381623  65.0360717  89.4562376  92.8141431  65.1680992
  90.8788258  92.3852427  64.8779839  96.7896525  85.3693207  57.4141516
  96.9112436  84.4409853  57.6132403  96.4998567  85.3831893  56.5019831
  99.6587715  83.0548117  60.5508236  99.6809412  83.1187450  59.5960215
 100.0755774  82.2152626  60.7448742 110.0371340  92.7903377  58.5887458
 110.4802486  92.0410702  58.1906581 109.1597850  92.7813513  58.2061190
 105.1707121  99.3433718  54.0694057 105.8658025  99.9640411  54.2881371
 105.5130271  98.4929069  54.3446435  90.7874930  91.1651519  67.9290874
  90.0456666  91.3134155  68.5155505  90.4667674  91.4259785  67.0657624
 107.0698544  96.7933424  55.5981388 107.5949868  97.1320697  54.8730708
 106.9820896  95.8580439  55.4144522  98.7318593 100.7067497  67.7271264
  99.0405719 100.4616644  68.5993964  99.5294075 100.9114136  67.2390134
  98.7539205 102.8605407  59.9576641  98.3144195 102.3681786  60.6509497
  99.5047322 102.3178375  59.7168716  91.2331544  99.0516948  59.9601269
  92.0589564  98.7520720  59.5799912  90.8825596  98.2824570  60.4091057
  96.2013077  98.4043416  62.0298942  95.5793086  97.7414121  61.7301170
  96.8717944  98.4304548  61.3472590  89.4340149  96.9703274  60.9190202
  88.5972057  96.5425449  60.7374204  89.4063794  97.1635718  61.8560994
  96.2737604  86.8825204  71.6231448  96.3225760  87.7587327  71.2409218
  96.8160119  86.3402597  71.0503092 106.7592450  97.4266327  70.9032585
 105.9687994  97.4090466  70.3637085 106.5225805  97.9654621  71.6581622
 106.8790325  94.2758794  68.2165314 106.9288330  94.1108801  69.1580837
 106.7704248  93.4086053  67.8263195  95.7626584  96.9547340  55.5057403
  95.9114704  97.6382804  54.8524076  96.5693027  96.9352430  56.0206859
 104.1694087  90.2589722  69.5324621 105.0703950  90.1196187  69.2408619
 104.2442062  90.4244177  70.4722798  98.5036893  87.6356577  68.3777807
  97.6340202  87.9290143  68.1060396  98.7396373  88.2197022  69.0985071
 108.3808522  96.6955735  68.4607336 108.0893330  97.0585716  69.2970797
 107.7680653  95.9822744  68.2820668 109.5804204  94.2608615  60.9809906
 110.4151096  94.6998419  61.1447466 109.7163333  93.7847268  60.1618152
 106.6295710  91.8188350  66.9287394 107.1049832  92.0115996  66.1206245
 105.7061276  91.8747536  66.6830777  93.5179217  92.9812517  56.5118472
  93.2725259  92.0774847  56.7098682  93.6875131  92.9829668  55.5697950
 101.2075927  83.8536194  65.8943227 101.7257870  84.5897220  65.5689716
 100.8531059  84.1600187  66.7289987  92.7874864  88.7140875  54.0104633
  92.0944109  88.7885230  53.3544669  92.5426616  87.9501218  54.5326150
 101.4588521  80.2736476  61.4144124 101.7390275  79.6059665  62.0404551
 102.2439128  80.4665572  60.9018788  99.2621989  99.4495470  52.9769150
  98.6895956 100.0685657  52.5239622  99.8354783  99.9994832  53.5109072
 105.3297379  88.6954110  65.1615699 106.2814802  88.7952208  65.1827923
 105.1600830  87.9032379  65.6713784 103.3511759  85.7809693  65.3475100
 102.7561691  86.0614706  64.6521589 103.0661455  86.2703594  66.1191841
 102.4819249  99.7332620  54.1077733 103.4149922  99.6678182  54.3110608
 102.3942462 100.5688887  53.6492265 105.1107266  99.0498490  51.0681680
 105.0320897  98.7158354  51.9617438 105.9316933  99.5420258  51.0673153
 107.8085457  91.9160230  64.2757999 107.7761777  90.9776230  64.4617683
 108.4186081  91.9944266  63.5423824  99.6468788  90.7856283  50.3185203
 100.5927892  90.6562491  50.3873621  99.2683033  90.0470945  50.7954631
 107.9579945  88.7071273  64.3216282 107.4418994  87.9229730  64.1346211
 108.8419894  88.3789990  64.4862801 105.6190672  82.4512289  60.2812095
 105.4215493  82.1427377  61.1655427 106.2290378  83.1773928  60.4110025
 113.6262007  92.9776237  63.4164036 114.3565395  92.7161525  63.9771739
 113.0168952  92.2404959  63.4566104 111.7077304  91.1184099  64.0138487
 110.9810467  90.9840064  63.4054978 111.2924591  91.4260928  64.8195205
  99.5307480  94.8374029  71.7785860 100.4510490  95.0152628  71.9725906
  99.4957063  93.8930074  71.6265559  97.8311705  88.7106259  50.2540088
  96.9243160  88.4139372  50.3302802  98.1087686  88.4136077  49.3874374
  88.7489645  90.0312623  60.7039134  88.4292430  89.1777931  60.4113508
  88.2023073  90.2461201  61.4597102  92.5269553  92.7475064  64.4208641
  92.7455563  93.6792171  64.4396675  92.9395327  92.3883038  65.2063445
  99.4473771  83.2543149  56.4084329  98.6374499  82.9090234  56.7839575
 100.1358188  82.9450693  56.9971941 101.3764319  82.3321196  58.0308626
 101.9295358  82.7516649  58.6898649 101.6134405  81.4056944  58.0731582
  97.3997418  88.3208269  73.8111390  97.2994145  89.2702626  73.7423481
  97.1818960  87.9926508  72.9387460  96.6010490  85.5693194  50.3952067
  97.4629654  85.8948093  50.6547885  96.7860834  84.7824690  49.8825133
  88.6177905  93.6515534  62.6732256  87.9241377  93.2369487  62.1602210
  89.3650896  93.6936071  62.0765675 104.7543126  84.4421721  57.5387290
 104.1741795  85.1006525  57.1565343 104.4879059  83.6199065  57.1274708
 103.2046692  83.8426778  59.7408611 103.7046471  83.9543313  58.9322929
 103.8482300  83.5387831  60.3809419  97.2628688  91.7505408  72.6276452
  96.7795770  92.5505768  72.8340341  97.3489627  91.7613353  71.6743896
  90.5314648  93.5833788  60.5498271  90.5085336  93.6821475  59.5980154
  90.8415284  94.4298939  60.8715437  93.1902026  95.6409943  64.6644885
  94.1445279  95.6093885  64.5974817  92.9914549  95.1800567  65.4795111
  93.7801408  94.2111059  67.2315683  94.5994297  94.7055138  67.2550520
  94.0538216  93.2943027  67.2033251 103.5368004  86.6021811  56.5943639
 102.6493859  86.8871462  56.3763833 103.9521993  86.4415575  55.7470915
 106.8882540  86.6268332  60.3097978 107.6642930  87.1164785  60.5822595
 106.1630674  87.0526386  60.7669847 109.3255099  87.3395951  61.3671918
 109.9199590  87.0991687  60.6565227 109.3981683  86.6203082  61.9945455
  91.5452255 101.1829562  61.6815083  91.4106722 100.4229963  61.1153081
  91.1284317 101.9070462  61.2143872 102.6811218  96.3666486  50.6891658
 103.3847068  96.5716488  51.3049314 101.9573866  96.9343248  50.9540742
 103.5109028  92.1176347  56.8093929 103.4544229  92.5744899  55.9701561
 104.0637370  91.3567032  56.6316771 107.3213834  87.9066079  57.6344048
 107.0650768  87.5062715  58.4652256 106.6966702  88.6209873  57.5094187
 111.6326172  90.6462152  60.1415340 111.0725730  90.7155342  60.9146902
 111.0269675  90.4703137  59.4214836  94.7021380 102.0798879  61.8933526
  94.5853765 103.0244312  61.7912216  93.8813827 101.7772441  62.2819325
 104.5897915  96.8049015  52.7390119 105.4243519  96.3730214  52.5567593
 104.4282258  96.6331029  53.6667013 104.2443807  93.3081128  54.1046458
 104.1892611  93.1425400  53.1634902 103.6189862  94.0157161  54.2608648
  89.0336322  88.5449193  67.9307880  89.6795186  88.0348147  68.4195105
  88.8253473  89.2817874  68.5051305 101.5589714  95.6130040  73.4300021
 102.4280874  95.7870692  73.0686656 101.0796466  96.4324457  73.3075750
  97.5539933  82.8089237  53.6831776  97.5418602  83.7531077  53.8400047
  98.4463354  82.6259383  53.3891237  95.7275895 102.7327141  65.1089454
  96.6303141 102.7650751  65.4255949  95.5013265 101.8027592  65.1235790
  97.4829497 101.4858128  61.7699533  96.5325128 101.4859989  61.6563905
  97.7861983 100.7390862  61.2535568 101.3692052  79.4032014  57.9377713
 100.6024448  78.8490501  58.0834395 101.7802757  79.4753883  58.7991865
  93.3733813  85.6916810  72.0282894  94.2365275  85.3353615  72.2386219
  92.7999224  85.3530705  72.7158299 113.2182190 107.3218666  62.8345295
 113.8560600 107.2025413  62.1308635 113.1003033 108.2699510  62.8933247
 110.0271896 107.2746094  62.7706820 109.6890408 107.1587159  61.8827355
 110.8961664 106.8737259  62.7507826 105.8858712 109.1281571  58.7603711
 105.3223577 109.0371508  57.9919999 105.7711107 108.3081475  59.2406203
 110.5091679 108.4280946  68.7293026 110.4980320 108.0333744  67.8573529
 110.6712319 107.6947019  69.3226797 103.4323144 110.6232762  61.5987931
 104.2244436 110.2823587  61.1834231 103.6719794 110.7327737  62.5190085
 105.3913898 109.8841676  54.4705310 106.1644774 109.3370663  54.3318186
 105.7439297 110.7485925  54.6819772 107.2298940 111.2118058  67.6772209
 106.9388806 112.1163689  67.5618876 107.8655925 111.2534585  68.3916279
 108.1555147 108.5894906  64.2673569 108.7518720 108.3650929  63.5530532
 108.2130119 107.8479652  64.8699017 107.7280176 106.0434342  52.1023760
 107.9805696 105.5215863  51.3407223 106.7904735 105.8800487  52.2050444
 112.7723458 105.0470120  59.9098503 113.5586548 104.6289543  59.5588920
 113.0362163 105.9516212  60.0780152 112.9433536 110.4842970  54.6087160
 112.3079369 110.5577597  55.3208065 112.6130942 111.0736569  53.9306239
 118.1731886 104.9845353  60.8131482 118.9057058 104.4144570  61.0469311
 117.4171241 104.5966954  61.2537987 107.4476464 107.9462448  54.3048135
 107.3312723 107.2707351  54.9729219 107.5578724 107.4594822  53.4880288
 109.7908005 107.4072595  58.0094824 109.4266213 106.8803216  58.7207746
 110.6475121 107.0171064  57.8361310 115.6957306  98.6966927  65.2726090
 115.3640631  99.5662338  65.0487305 115.1002919  98.3803211  65.9520121
 109.4313492 102.4362494  53.0056173 109.5987895 103.3042731  53.3726644
 109.2410661 102.5989776  52.0817462 112.1888826 110.8979473  64.6722003
 111.8889549 111.8004512  64.5637810 111.8439885 110.6311656  65.5243156
 105.6401307 107.3493270  60.7058708 104.7151803 107.2169484  60.9136399
 105.8885720 108.1287489  61.2028650 115.5885969 103.4162013  62.3519440
 114.6802847 103.3477422  62.0578201 115.5373565 103.8933958  63.1801266
 109.4102713 104.8920152  53.9902840 109.2902338 105.3377203  54.8288320
 108.7155302 105.2405470  53.4316378 103.0010118 106.9926544  61.5402497
 103.1302499 107.2461023  62.4541908 102.3207569 107.5854252  61.2207152
 109.6626835 104.8351659  70.2954338 108.8860169 105.3945579  70.2857202
 110.3017398 105.3208442  70.8169208 117.4547616 101.6178452  64.1297314
 116.8121996 101.9110985  63.4837109 116.9502544 101.5031372  64.9350511
 115.1087779 105.3641625  54.8183174 116.0205635 105.5969012  54.6430871
 114.5997426 105.9478669  54.2558252 107.9173207 107.6437112  69.8572305
 108.6587892 108.1822156  69.5807128 107.2110193 108.2703401  70.0143857
 113.3928547 109.7866253  68.4544466 113.8011903 109.3448663  67.7099099
 112.6705809 109.2118880  68.7078659 109.7459617 104.7238860  65.8278023
 110.5920812 105.1478273  65.9712672 109.6858255 104.0672484  66.5216586
 113.7157362 110.3467444  62.2096755 113.0866224 110.5113158  61.5072823
 113.3283024 110.7609053  62.9807719 112.8959062 102.3843228  67.4859197
 112.6519994 103.1385289  66.9493473 113.1718993 102.7628576  68.3206444
 114.8497525 108.9281840  66.1636462 115.0614420 109.5713600  65.4870844
 114.8027273 108.0944157  65.6958393 112.4523754 101.5399661  63.0673035
 111.5908233 101.8380915  63.3589772 112.4786189 101.7570060  62.1354067
 109.2685324 110.0841852  59.4746840 109.7323669 110.3629555  58.6851463
 109.0042122 109.1825296  59.2919931 106.1609405 109.6313333  62.4126603
 106.7310762 110.0600602  61.7744088 106.7517516 109.3495918  63.1110789
 108.2054210 106.2065004  56.2836405 108.9078253 106.6586048  56.7510332
 107.8734838 105.5648823  56.9116299 106.6534571 104.7976761  70.6587615
 106.0233232 105.4793041  70.8923012 106.5470659 104.6859842  69.7140753
 101.9479544 104.4648557  61.5853539 101.1578598 104.7206085  61.1093650
 102.4390791 105.2796894  61.6905579 103.8994289 104.8293136  58.5437016
 103.1025452 104.9411830  59.0620511 103.6719881 105.1679788  57.6777906
 109.7299957 111.3537839  66.4919530 109.7944389 111.8158246  67.3277702
 109.0210880 110.7235204  66.6201840 100.2317247 104.7179047  64.0168530
 100.4825285 105.6026057  64.2826106 100.7676795 104.5383649  63.2443622
 109.4447974 113.0205947  56.3598511 109.3093649 113.8657482  56.7883358
 109.9857787 113.2225224  55.5964444 105.9315314  99.0997526  73.0212866
 105.5382259  98.5463725  73.6960510 106.7481454  99.4108105  73.4119383
 102.8977372 110.5381385  56.9326436 103.4101892 111.3324635  57.0832000
 103.5500084 109.8407675  56.8660037 104.7072256 113.6547141  59.0149189
 104.8838885 114.5765106  58.8270173 105.5029090 113.3405560  59.4443569
 108.8483275 100.5155406  70.6133122 109.5892988 101.1162559  70.5337585
 109.0801198  99.7733043  70.0551165 103.9924613 105.7011773  68.8911352
 103.8778128 104.7997030  69.1918451 103.1369131 105.9475470  68.5396169
 105.8303572 115.1725315  65.0159531 106.3810997 115.0442378  64.2436525
 104.9915048 115.4720204  64.6654424 109.6270743 111.4376443  69.3603762
 110.1599080 110.6764731  69.1303070 109.0984824 111.1450094  70.1027917
 112.7940438  96.5436508  64.8897404 112.4504707  97.4338150  64.8136515
 113.1619400  96.3538166  64.0266989 100.8626288 108.8670039  57.7086006
 101.7001510 109.2767047  57.4919714 101.0404556 107.9269481  57.6786200
 112.7590721 106.5345120  53.3969839 112.2437344 107.3049724  53.6358227
 112.4868029 105.8610256  54.0202901 110.3437832 101.3794820  58.4555078
 109.4879428 100.9901671  58.2760716 110.7564783 101.4586781  57.5954863
 111.8736978  98.9141164  62.8546637 111.3701774  98.8771299  62.0414443
 112.1667585  99.8233906  62.9143294 108.1179864  98.9979893  61.8612819
 108.9832861  98.8022702  61.5018709 108.1857373  98.7690245  62.7882176
 112.5477024 104.4072212  55.2229620 112.2427159 104.7218361  56.0739764
 113.5007466 104.4853632  55.2656953 110.9923456 110.5662435  56.8722574
 110.4644817 109.8315195  56.5595812 110.4910958 111.3437111  56.6262543
 105.7242183 101.2282101  59.2329186 106.2985935 101.0057283  58.5002379
 106.3113166 101.2970796  59.9857787 114.7821760 107.1155828  60.0393562
 115.2953642 107.7485820  60.5415272 115.4322984 106.5157024  59.6736922
 106.0511770 103.2586562  53.2525071 105.2149083 103.5961249  53.5734346
 105.9116540 103.1235542  52.3152208 108.0264851  98.1023350  57.9604255
 107.3729263  97.7872367  57.3360870 107.9845325  97.4799091  58.6864078
 109.1376056 108.3842645  49.8757547 108.2303117 108.1531899  50.0748696
 109.6347088 107.5880265  50.0631529 111.2602591 104.5905284  62.2851903
 110.3425153 104.8120231  62.1273591 111.6762735 104.6651594  61.4263610
 112.0437639 105.9896699  57.4154583 112.7909458 106.5018097  57.1061705
 112.3129229 105.6680752  58.2758977 110.3164289 108.4855240  54.3981537
 109.4075508 108.2014273  54.4954007 110.3459373 108.9054319  53.5384844
 114.4916476 103.0253816  59.3973372 113.7539233 102.5131202  59.7283615
 114.7443250 102.5854197  58.5856649 114.5928103  95.8030068  59.9915142
 114.8986980  94.9427431  59.7041057 115.3180708  96.3947688  59.7914136
 100.8852460 106.2060754  58.3796740 100.6876859 105.6130115  57.6547806
 100.3299124 105.9012964  59.0972678 108.8649183 106.0983861  60.4991333
 108.9197793 105.1457697  60.4233809 108.0540385 106.2543300  60.9832631
 110.0140377 110.0263984  51.7369616 109.5759807 109.3099843  51.2775253
 110.7550818 110.2540099  51.1754707 106.8041543 104.7160920  58.2581712
 105.9909409 105.0155091  58.6646904 107.3000537 104.3216609  58.9756194
 112.4015755 105.1802745  67.0896606 112.7565143 105.4074218  67.9491071
 113.0487886 105.5121122  66.4673861 106.2955618 102.2879276  63.8742947
 106.9354997 102.1468035  63.1765910 105.4633148 102.0013789  63.4981549
 107.0715922 111.5881706  59.9877939 107.8656520 111.0932027  59.7860514
 106.3607614 111.0599570  59.6245645 103.3798685 105.7324788  56.0637692
 102.4496273 105.6709244  56.2807654 103.4756157 105.2100741  55.2674333
 103.2984234 102.2579601  58.6515933 103.5591052 103.1724934  58.5425094
 104.1201407 101.7904044  58.8012546 104.7709160 103.6717358  65.8214758
 105.4432213 103.4634720  65.1727407 103.9438946 103.4739444  65.3819990
 110.6734732 100.2979299  67.8380419 110.0262647 100.9969249  67.7444895
 111.4435747 100.7315443  68.2056667 110.8498866 108.1360064  65.8977239
 111.7790926 108.2871224  65.7246206 110.4289896 108.2244085  65.0425885
 109.6487198 112.1610728  63.6675776 109.5098283 111.7929513  64.5401714
 108.8601794 112.6758368  63.4959734 111.1992413 111.5392331  61.0564614
 110.8642246 111.4993101  61.9522264 110.6996359 110.8737047  60.5835024
 105.1736657 106.9459961  66.5817195 105.0356455 106.2140200  67.1828734
 106.0841580 106.8568861  66.3001383 114.1351605 108.8848365  51.3301674
 113.5180775 108.1595194  51.2334726 113.6668093 109.6457726  50.9868748
 107.8018958 106.6579920  66.0700875 108.5118576 106.0173113  66.0287493
 107.7588266 106.9092815  66.9927056 106.5147892 103.6445138  67.8896514
 105.9785249 103.1935877  68.5418111 105.9264600 103.7791047  67.1466979
 105.9250150 103.1033790  50.4522978 105.0479617 102.9822591  50.0885225
 106.4007904 102.3119868  50.2001867  97.4452291 107.8910949  60.5464485
  98.1323330 107.5772679  59.9585500  97.2900419 108.7952314  60.2731736
 102.2487013 102.7801146  64.9749509 102.1645201 102.1726816  64.2399919
 101.4269719 103.2710164  64.9759005 112.4210727 101.2654710  60.3419704
 112.9179426 100.5124672  60.0220774 111.6497708 101.3019026  59.7762913
 113.5040507 110.0226397  57.9158127 112.5696786 110.1427859  57.7462832
 113.6817176 109.1198864  57.6518137 109.0045695 103.4072093  60.0691388
 108.6343483 102.8543133  60.7572294 109.5004788 102.8030226  59.5166388
 116.8913059 105.8643716  58.4508161 117.3573511 106.6971708  58.3768464
 117.3420559 105.3988698  59.1553420 106.8334894 113.8669588  67.1646406
 107.5344353 114.5006071  67.3175801 106.3630009 114.2084319  66.4042046
 114.8629721  98.2324303  62.4899063 113.9492801  98.4628530  62.6581270
 115.2922823  98.3162747  63.3413095 114.6336180 106.4214195  64.9898957
 113.9807630 106.6690102  64.3351409 115.0116560 105.6078333  64.6561434
 110.6823753 107.1634006  71.4764994 110.0064390 107.0628135  72.1467369
 111.5051387 107.0073220  71.9400991 102.4302612 113.4005943  64.0977509
 103.0156049 112.6549631  64.2305413 102.2327450 113.7109899  64.9814173
 105.2841267 116.4357190  59.1139951 104.6151642 116.9203318  58.6303991
 105.1454137 116.6826410  60.0283330  97.0220267 105.9711543  62.8181952
  97.0604366 105.4375134  63.6119070  96.5160560 105.4446748  62.1992929
 104.4011029 100.8176083  66.3144494 104.4652356 101.6790914  65.9021892
 104.3378149 100.2050085  65.5816853 103.8763302 102.8899216  69.9617529
 104.5035340 102.5076293  70.5755053 103.0191220 102.6713418  70.3273221
 100.6528844 104.6975645  55.8935884 100.9482285 103.7886323  55.8402937
  99.7516880 104.6763384  55.5716886 104.1823091 102.7731642  61.8763432
 103.4609677 103.3867609  61.7370905 104.9716347 103.3089406  61.7980078
 106.9849405 100.1086068  68.1504084 107.5083807 100.3548365  68.9130393
 106.7661738 100.9406103  67.7307221 102.3816686 102.3789743  56.0175209
 102.0529392 101.4987122  55.8350315 102.7356057 102.3237411  56.9051598
 105.4958509 102.6662712  56.3850686 105.8354582 103.1948634  55.6629295
 105.9430630 103.0043119  57.1609253 108.1901950 101.0499763  65.8353754
 107.8498770 100.2507576  66.2374434 107.4840956 101.3501474  65.2630588
 108.8418422  98.1349076  64.2881077 109.6644491  97.6609554  64.1659968
 109.0856485  98.9139559  64.7879764 107.4826656 101.1637334  54.5843979
 108.2035019 101.5418587  54.0807696 106.8591960 101.8826211  54.6878957
 111.6257779 101.8682483  55.5202311 111.8421393 102.7507121  55.2191140
 111.1451846 101.4768696  54.7907953 106.3657000 104.8268196  62.0973056
 106.2201581 105.1408499  62.9897338 105.8882204 105.4453097  61.5443955
 108.2253383 101.8170744  62.1453946 108.2114952 100.9211838  61.8086244
 108.9425811 101.8241408  62.7792232 110.0779514 102.2508084  64.1907073
 109.8197292 103.1725155  64.1891404 109.5464554 101.8538519  64.8807537
 100.8402663 107.3673541  65.0360717 100.2956131 108.1433349  65.1680992
 101.7182012 107.7144345  64.8779839 107.6290279 100.6985124  57.4141516
 107.7506190  99.7701771  57.6132403 107.3392322 100.7123810  56.5019831
 110.4981470  98.3840035  60.5508236 110.5203166  98.4479368  59.5960215
 110.9149529  97.5444544  60.7448742 101.6268684 106.4943437  67.9290874
 100.8850421 106.6426072  68.5155505 101.3061429 106.7551703  67.0657624
 102.0725298 114.3808866  59.9601269 102.8983318 114.0812637  59.5799912
 101.7219350 113.6116488  60.4091057 107.0406831 113.7335334  62.0298942
 106.4186841 113.0706039  61.7301170 107.7111698 113.7596466  61.3472590
 100.2733903 112.2995192  60.9190202  99.4365812 111.8717366  60.7374204
 100.2457549 112.4927635  61.8560994 107.1131359 102.2117122  71.6231448
 107.1619514 103.0879245  71.2409218 107.6553873 101.6694515  71.0503092
 106.6020338 112.2839257  55.5057403 106.7508459 112.9674722  54.8524076
 107.4086782 112.2644347  56.0206859 115.0087842 105.5881640  69.5324621
 115.9097705 105.4488104  69.2408619 115.0835816 105.7536094  70.4722798
 109.3430647 102.9648494  68.3777807 108.4733957 103.2582060  68.1060396
 109.5790128 103.5488939  69.0985071 117.4689465 107.1480268  66.9287394
 117.9443586 107.3407914  66.1206245 116.5455030 107.2039453  66.6830777
 104.3572971 108.3104435  56.5118472 104.1119013 107.4066765  56.7098682
 104.5268886 108.3121585  55.5697950 112.0469681  99.1828111  65.8943227
 112.5651625  99.9189138  65.5689716 111.6924814  99.4892104  66.7289987
 103.6268619 104.0432792  54.0104633 102.9337864 104.1177147  53.3544669
 103.3820371 103.2793136  54.5326150 112.2982275  95.6028394  61.4144124
 112.5784029  94.9351583  62.0404551 113.0832882  95.7957489  60.9018788
 116.1691134 104.0246028  65.1615699 117.1208557 104.1244125  65.1827923
 115.9994584 103.2324296  65.6713784 114.1905513 101.1101611  65.3475100
 113.5955445 101.3906624  64.6521589 113.9055210 101.5995512  66.1191841
 110.4862542 106.1148200  50.3185203 111.4321647 105.9854408  50.3873621
 110.1076787 105.3762862  50.7954631 118.7973700 104.0363191  64.3216282
 118.2812749 103.2521647  64.1346211 119.6813648 103.7081907  64.4862801
 116.4584427  97.7804206  60.2812095 116.2609248  97.4719295  61.1655427
 117.0684132  98.5065845  60.4110025 110.3701235 110.1665947  71.7785860
 111.2904244 110.3444546  71.9725906 110.3350818 109.2221992  71.6265559
 108.6705459 104.0398177  50.2540088 107.7636915 103.7431289  50.3302802
 108.9481440 103.7427995  49.3874374  99.5883400 105.3604540  60.7039134
  99.2686184 104.5069848  60.4113508  99.0416828 105.5753118  61.4597102
 103.3663307 108.0766981  64.4208641 103.5849317 109.0084089  64.4396675
 103.7789081 107.7174956  65.2063445 110.2867525  98.5835066  56.4084329
 109.4768253  98.2382151  56.7839575 110.9751942  98.2742610  56.9971941
 112.2158073  97.6613113  58.0308626 112.7689112  98.0808567  58.6898649
 112.4528160  96.7348861  58.0731582 108.2391173 103.6500187  73.8111390
 108.1387900 104.5994544  73.7423481 108.0212715 103.3218426  72.9387460
 107.4404244 100.8985112  50.3952067 108.3023408 101.2240010  50.6547885
 107.6254588 100.1116608  49.8825133  99.4571660 108.9807452  62.6732256
  98.7635131 108.5661404  62.1602210 100.2044651 109.0227988  62.0765675
 115.5936881  99.7713638  57.5387290 115.0135550 100.4298442  57.1565343
 115.3272813  98.9490983  57.1274708 114.0440447  99.1718696  59.7408611
 114.5440225  99.2835231  58.9322929 114.6876055  98.8679749  60.3809419
 108.1022443 107.0797326  72.6276452 107.6189524 107.8797686  72.8340341
 108.1883382 107.0905271  71.6743896 101.3708402 108.9125705  60.5498271
 101.3479090 109.0113393  59.5980154 101.6809039 109.7590856  60.8715437
 104.0295780 110.9701860  64.6644885 104.9839034 110.9385803  64.5974817
 103.8308304 110.5092484  65.4795111 104.6195162 109.5402977  67.2315683
 105.4388051 110.0347055  67.2550520 104.8931970 108.6234945  67.2033251
 114.3761759 101.9313729  56.5943639 113.4887614 102.2163379  56.3763833
 114.7915748 101.7707492  55.7470915 117.7276295 101.9560250  60.3097978
 118.5036685 102.4456702  60.5822595 117.0024429 102.3818304  60.7669847
 120.1648853 102.6687869  61.3671918 120.7593344 102.4283605  60.6565227
 120.2375437 101.9495000  61.9945455 102.3846009 116.5121480  61.6815083
 102.2500477 115.7521881  61.1153081 101.9678071 117.2362380  61.2143872
 114.3502782 107.4468265  56.8093929 114.2937984 107.9036816  55.9701561
 114.9031125 106.6858949  56.6316771 118.1607588 103.2357997  57.6344048
 117.9044522 102.8354632  58.4652256 117.5360456 103.9501791  57.5094187
 115.0837562 108.6373046  54.1046458 115.0286365 108.4717317  53.1634902
 114.4583617 109.3449079  54.2608648  99.8730077 103.8741110  67.9307880
 100.5188940 103.3640064  68.4195105  99.6647228 104.6109792  68.5051305
 108.3933687  98.1381155  53.6831776 108.3812357  99.0822995  53.8400047
 109.2857109  97.9551300  53.3891237 112.2085807  94.7323932  57.9377713
 111.4418202  94.1782418  58.0834395 112.6196511  94.8045800  58.7991865
 104.2127568 101.0208727  72.0282894 105.0759029 100.6645532  72.2386219
 103.6392978 100.6822622  72.7158299  44.9909371  -7.6943289  49.4952127
  44.6527882  -7.8102225  48.6072661  45.8599139  -8.0952124  49.4753133
  40.8496186  -5.8407813  45.4849018  40.2861051  -5.9317876  44.7165305
  40.7348581  -6.6607908  45.9651510  45.4729154  -6.5408437  55.4538332
  45.4617794  -6.9355639  54.5818836  45.6349793  -7.2742365  56.0472104
  38.3960618  -4.3456621  48.3233238  39.1881910  -4.6865797  47.9079537
  38.6357268  -4.2361646  49.2435391  46.4295745  -2.1736845  40.7963482
  45.7783725  -1.5882765  40.4097496  47.2240108  -1.6430650  40.8558520
  40.3551372  -5.0847708  41.1950617  41.1282248  -5.6318721  41.0563493
  40.7076771  -4.2203459  41.4065078  42.1936415  -3.7571326  54.4017516
  41.9026281  -2.8525695  54.2864182  42.8293399  -3.7154798  55.1161586
  43.1192622  -6.3794477  50.9918876  43.7156194  -6.6038455  50.2775839
  43.1767593  -7.1209732  51.5944324  42.6917650  -8.9255042  38.8269067
  42.9443171  -9.4473521  38.0652530  41.7542209  -9.0888896  38.9295750
  47.9071010  -4.4846413  41.3332467  47.2716843  -4.4111787  42.0453371
  47.5768417  -3.8952814  40.6551546  42.4113939  -7.0226936  41.0293442
  42.2950197  -7.6982033  41.6974526  42.5216199  -7.5094562  40.2125595
  44.7545480  -7.5616789  44.7340131  44.3903687  -8.0886168  45.4453052
  45.6112596  -7.9518320  44.5606616  47.1526300  -4.0709910  51.3967310
  46.8527023  -3.1684871  51.2883117  46.8077359  -4.3377727  52.2488463
  40.6038781  -7.6196113  47.4304014  39.6789278  -7.7519899  47.6381706
  40.8523195  -6.8401894  47.9273957  37.9647592  -7.9762840  48.2647803
  38.0939974  -7.7228361  49.1787215  37.2845044  -7.3835132  47.9452458
  42.1347080   2.6934410  44.3638278  42.0571109   3.6442235  44.4426758
  41.5308723   2.3480283  45.0213204  42.8810682  -7.3252271  56.5817611
  43.6225366  -6.7867227  56.3052435  42.1747667  -6.6985982  56.7389163
  48.3566021  -5.1823131  55.1789773  48.7649377  -5.6240720  54.4344405
  47.6343283  -5.7570503  55.4323966  48.6794836  -4.6221940  48.9342062
  48.0503698  -4.4576226  48.2318130  48.2920498  -4.2080330  49.7053026
  52.5584068  -3.6867502  46.2886426  51.8735106  -3.3068601  45.7383459
  52.6427917  -3.0772175  47.0218373  49.8134999  -6.0407543  52.8881769
  50.0251895  -5.3975783  52.2116150  49.7664748  -6.8745227  52.4203699
  44.2322798  -4.8847532  46.1992147  44.6961143  -4.6059829  45.4096769
  43.9679596  -5.7864087  46.0165238  41.1246879  -5.3376050  49.1371910
  41.6948236  -4.9088782  48.4989395  41.7154991  -5.6193466  49.8356096
  43.1691684  -8.7624379  43.0081712  43.8715727  -8.3103336  43.4755638
  42.8372312  -9.4040561  43.6361605  41.6172045 -10.1712623  57.3832921
  40.9870706  -9.4896342  57.6168318  41.5108133 -10.2829541  56.4386060
  50.9280827  -3.1635588  51.0604126  51.7498271  -3.5655400  50.7786808
  50.9243230  -3.2667353  52.0120242  44.6937431  -3.6151544  53.2164837
  44.7581863  -3.1531137  54.0523009  43.9848355  -4.2454179  53.3447147
  44.4085449  -1.9483437  43.0843817  44.2731123  -1.1031901  43.5128665
  44.9495261  -1.7464159  42.3209751  37.8614846  -4.4307999  43.6571742
  38.3739366  -3.6364749  43.8077307  38.5137559  -5.1281708  43.5905344
  39.6709731  -1.3142243  45.7394496  39.8476359  -0.3924278  45.5515479
  40.4666564  -1.6283823  46.1688875  46.0353925  -1.3259870  57.2144159
  45.5917779  -2.1123492  56.8965064  46.6971138  -1.1380720  56.5488050
  40.7941046   0.2035931  51.7404838  41.3448471   0.0752995  50.9681832
  39.9552522   0.5030820  51.3899731  48.1335163  -1.0457070  55.2425561
  48.1153638  -0.2248189  54.7505830  49.0555083  -1.1702995  55.4675702
  44.5908217  -3.5312941  56.0849069  45.1236554  -4.2924653  55.8548377
  44.0622298  -3.8239289  56.8273223  52.6962469  -5.6811909  42.0568319
  51.9191912  -6.0200750  41.6123481  53.3753950  -5.6759286  41.3823284
  45.9560930  -4.4026948  43.5967881  45.4282291  -5.1374189  43.2841118
  45.4548433  -3.6252272  43.3507849  50.9353776  -6.2077928  48.7134927
  50.2777450  -5.5178667  48.8015056  51.7394175  -5.8181496  49.0568914
  44.1013530  -6.5846738  36.6002854  43.1940592  -6.8157485  36.7994003
  44.5984562  -7.3809119  36.7876836  47.0081609   2.1250769  39.5199540
  46.3343308   2.4282466  40.1284498  47.3947431   2.9279849  39.1704997
  45.2801763  -6.4834143  41.1226844  44.3712983  -6.7675111  41.2199314
  45.3096847  -6.0635065  40.2630151  50.5121031  -2.8727554  44.8918012
  50.0583358  -3.7136644  44.9483202  49.8814998  -2.2366155  45.2292792
  48.9553970  -1.0351057  45.8267830  49.2476944  -0.4746000  45.1080195
  49.4652591  -0.7422496  46.5820989  44.9777851  -4.9425400  38.4614923
  44.5397281  -5.6589541  38.0020560  45.7188292  -4.7149285  37.9000014
  43.9187595  -0.2570706  46.9161283  43.8763774  -0.0309860  45.9869815
  44.8350294  -0.4907331  47.0647084  53.1220346  -4.5991676  49.5302513
  53.5556852  -4.6916387  50.3785567  53.8351926  -4.6234175  48.8922529
  42.0353396  -3.3807677  46.7123246  42.8293995  -3.8757357  46.5105821
  41.3245088  -3.9089814  46.3490951  46.8548241  -0.9989582  51.0635613
  46.9085263  -0.4298645  51.8313329  45.9863022  -0.8287696  50.6989650
  53.9835895  -4.5567975  52.0635398  54.1771785  -3.6522164  52.3094673
  53.8836513  -5.0160556  52.8973983  49.0451004  -4.4061232  57.6376279
  48.8936510  -4.6350681  56.7206362  49.0355683  -3.4490631  57.6507624
  45.8136340  -6.8329319  52.6222545  46.7428400  -6.6818160  52.4491513
  45.3927370  -6.7445299  51.7671192  44.6124672  -2.8078655  50.3921083
  44.4735758  -3.1759871  51.2647021  43.8239268  -2.2931016  50.2205041
  45.2072824   2.2930441  41.7346619  45.3824580   1.8218485  42.5492242
  44.5205612   2.9196208  41.9627880  46.1629887  -3.4297052  47.7809921
  45.8279720  -3.4696282  48.6767571  45.6633833  -4.0952336  47.3080331
  40.1374131  -8.0229422  53.3062502  39.9993929  -8.7549184  53.9074041
  41.0479055  -8.1120522  53.0246690  49.0989079  -6.0841018  38.0546980
  48.4818250  -6.8094190  37.9580033  48.6305567  -5.3231658  37.7114055
  42.7656432  -8.3109463  52.7946181  43.4756050  -8.9516271  52.7532800
  42.7225740  -8.0596568  53.7172362  50.7543211  -1.3742110  55.7152761
  50.6955757  -2.0582890  55.0483344  51.1562729  -0.6323120  55.2633387
  39.7733909   5.4419804  48.5086480  40.0130508   6.0738328  49.1865498
  38.9303106   5.0907844  48.7951839  50.7560618  -3.4102526  53.9466740
  49.8687397  -3.7476604  54.0693139  51.3259169  -4.1419495  54.1835506
  44.2861771   1.2498927  50.9127984  44.2131943   2.0553898  51.4247288
  43.8439164   1.4490892  50.0876005  44.0751551   0.4870697  44.4230805
  43.2919073   1.0292377  44.5169030  44.7744296   1.0044676  44.8225046
  46.7460455   1.1485761  53.0686142  47.4588427   1.7833225  52.9962044
  46.2550483   1.2449627  52.2526144  48.4677982  -4.9462987  44.6403434
  47.5334260  -4.8261524  44.4708138  48.6454650  -5.8490520  44.3763444
  41.7972368  -1.1019796  53.8891713  42.4981828  -0.4683313  54.0421107
  41.3267483  -0.7605064  53.1287352  49.9226764  -2.7601846  42.1739620
  50.1986608  -2.8745252  43.0833494  49.0531263  -3.1584361  42.1351793
  46.5580828   1.4884505  45.8172434  46.7403223   0.6706161  46.2800186
  47.3813814   1.7052197  45.3797324  46.8922994   0.4152690  43.0787482
  47.4210760  -0.0954856  42.4657644  47.1551213   0.0995220  43.9433015
  45.6461227  -7.8055377  58.2010300  44.9701864  -7.9061248  58.8712676
  46.4688861  -7.9616164  58.6646298  37.3940086  -1.5683441  50.8222816
  37.9793523  -2.3139753  50.9550720  37.1964925  -1.2579484  51.7059480
  40.2478742   1.4667807  45.8385258  39.5789117   1.9513934  45.3549298
  40.1091611   1.7137027  46.7528637  44.3884010   3.5011550  52.4367916
  44.9402318   3.6643172  53.2017002  44.7290204   4.0915988  51.7647941
  49.2394884  -1.6727192  58.2916571  49.7834788  -1.0597234  57.7971526
  48.6581729  -1.1147614  58.8083584  47.5252397   1.4493526  49.4231599
  47.4003537   0.6483265  48.9142544  48.1831489   1.9439719  48.9345569
  49.5887306  -0.7497454  51.0511149  48.6417641  -0.8692103  50.9789475
  49.9370079  -1.6374956  51.1337410  46.5933739  -0.9544738  47.2515501
  46.4458702  -1.8828031  47.4323071  47.4187233  -0.9324647  46.7672576
  50.1967861  -0.1316179  48.3380374  51.1214408  -0.3373318  48.2004825
  50.0283164  -0.3799778  49.2469715  41.3294475 -10.1421187  48.8218363
  41.1839055  -9.8280884  49.7142644  40.8519678  -9.5236287  48.2689261
  49.9863177   0.3869488  43.6942465  50.1600055  -0.1784089  42.9416318
  50.4792068   1.1870383  43.5121955  50.9738350  -0.2963748  40.7939363
  51.6689254   0.3242945  41.0126678  51.3161500  -1.1468396  41.0691741
  52.8729773  -2.8464042  42.3226694  53.3981097  -2.5076769  41.5976014
  52.7852125  -3.7817027  42.1389829  44.5349821   1.0670032  54.4516571
  44.8436948   0.8219178  55.3239270  45.3325303   1.2716670  53.9635441
  44.5570433   3.2207941  46.6821947  44.1175424   2.7284320  47.3754804
  45.3078550   2.6780909  46.4414023  37.0362772  -0.5880518  46.6846575
  37.8620792  -0.8876746  46.3045219  36.6856824  -1.3572895  47.1336364
  42.0044306  -1.2354050  48.7544249  41.3824315  -1.8983345  48.4546477
  42.6749173  -1.2092918  48.0717897  35.2371378  -2.6694191  47.6435509
  34.4003286  -3.0972017  47.4619510  35.2095023  -2.4761748  48.5806300
  52.5623679  -2.2131138  57.6277892  51.7719223  -2.2307000  57.0882392
  52.3257033  -1.6742845  58.3826929  52.6821554  -5.3638672  54.9410621
  52.7319559  -5.5288665  55.8826143  52.5735477  -6.2311413  54.5508501
  41.5657813  -2.6850126  42.2302710  41.7145933  -2.0014662  41.5769382
  42.3724256  -2.7045036  42.7452165  54.1839751  -2.9441730  55.1852642
  53.8924559  -2.5811750  56.0216103  53.5711882  -3.6574722  55.0065974
  39.3210446  -6.6584949  43.2363778  39.0756487  -7.5622619  43.4343989
  39.4906360  -6.6567798  42.2943256  45.0653218  -0.1901996  39.7014457
  44.4927185   0.4288191  39.2484929  45.6386012   0.3597366  40.2354379
  48.2850478   0.0935154  40.8323039  49.2181151   0.0280716  41.0355915
  48.1973691   0.9291421  40.3737572  50.9138495  -0.5898975  37.7926987
  50.8352126  -0.9239112  38.6862745  51.7348161  -0.0977207  37.7918459
  45.3338709  -4.8023437  58.5031166  46.2541719  -4.6244838  58.6971213
  45.2988292  -5.7467392  58.3510866  38.3300782  -6.8922402  51.1453948
  38.5486791  -5.9605294  51.1641981  38.7426555  -7.2514428  51.9308751
  43.0659917  -7.8892058  59.3521758  42.5826999  -7.0891698  59.5585647
  43.1520856  -7.8784113  58.3989202  36.3345877  -6.0563678  47.2743578
  36.3116565  -5.9575991  46.3225461  36.6446513  -5.2098527  47.5960744
  38.9933255  -3.9987523  51.3890192  39.9476508  -4.0303581  51.3220124
  38.7945778  -4.4596899  52.2040418  39.5832637  -5.4286407  53.9560990
  40.4025526  -4.9342328  53.9795827  39.8569444  -6.3454439  53.9278557
  37.3483483   1.5432097  48.4060390  37.2137951   0.7832497  47.8398388
  36.9315546   2.2672996  47.9389179  48.4842446  -3.2730980  37.4136965
  49.1878296  -3.0680977  38.0294621  47.7605095  -2.7054218  37.6786049
  40.5052609   2.4401414  48.6178833  40.3884993   3.3846846  48.5157523
  39.6845055   2.1374975  49.0064632  50.3929144  -2.8348451  39.4635425
  51.2274748  -3.2667252  39.2812900  50.2313487  -3.0066437  40.3912320
  50.0475036  -6.3316337  40.8291765  49.9923840  -6.4972066  39.8880209
  49.4221091  -5.6240305  40.9853954  47.3620943  -4.0267426  60.1545327
  48.2312103  -3.8526773  59.7931962  46.8827695  -3.2073009  60.0321057
  41.5307123   3.0929675  51.8334761  42.4334370   3.1253286  52.1501256
  41.3044493   2.1630126  51.8481097  43.2860725   1.8460662  48.4944840
  42.3356356   1.8462524  48.3809212  43.5893211   1.0993397  47.9780874
  59.0213419   7.6821200  49.5590602  59.6591829   7.5627948  48.8553942
  58.9034262   8.6302044  49.6178554  55.8303125   7.6348628  49.4952127
  55.4921637   7.5189693  48.6072661  56.6992893   7.2339794  49.4753133
  51.6889941   9.4884105  45.4849018  51.1254806   9.3974042  44.7165305
  51.5742336   8.6684009  45.9651510  56.3122908   8.7883480  55.4538332
  56.3011549   8.3936278  54.5818836  56.4743548   8.0549553  56.0472104
  49.2354373  10.9835296  48.3233238  50.0275665  10.6426121  47.9079537
  49.4751023  11.0930272  49.2435391  57.2689500  13.1555073  40.7963482
  56.6177479  13.7409153  40.4097496  58.0633862  13.6861267  40.8558520
  51.1945127  10.2444210  41.1950617  51.9676003   9.6973197  41.0563493
  51.5470526  11.1088459  41.4065078  53.0330169  11.5720592  54.4017516
  52.7420035  12.4766223  54.2864182  53.6687154  11.6137120  55.1161586
  53.9586376   8.9497441  50.9918876  54.5549948   8.7253463  50.2775839
  54.0161348   8.2082186  51.5944324  53.5311404   6.4036876  38.8269067
  53.7836925   5.8818397  38.0652530  52.5935964   6.2403021  38.9295750
  58.5754687   5.4072654  46.6343810  59.3617777   4.9892077  46.2834227
  58.8393392   6.3118746  46.8025458  58.7464765  10.8445505  41.3332467
  58.1110598  10.9180131  42.0453371  58.4162171  11.4339103  40.6551546
  63.9763114   5.3447887  47.5376788  64.7088286   4.7747104  47.7714618
  63.2202470   4.9569488  47.9783294  53.2507693   8.3064982  41.0293442
  53.1343951   7.6309885  41.6974526  53.3609953   7.8197356  40.2125595
  55.5939234   7.7675129  44.7340131  55.2297441   7.2405750  45.4453052
  56.4506350   7.3773598  44.5606616  61.4988535  -0.9430538  51.9971397
  61.1671860  -0.0735128  51.7732612  60.9034148  -1.2594254  52.6765427
  55.2344721   2.7965029  39.7301479  55.4019123   3.6645265  40.0971951
  55.0441890   2.9592310  38.8062769  57.9920054  11.2582008  51.3967310
  57.6920777  12.1607046  51.2883117  57.6471114  10.9914191  52.2488463
  51.4432536   7.7095804  47.4304014  50.5183032   7.5772018  47.6381706
  51.6916949   8.4890024  47.9273957  61.3917198   3.7764548  49.0764747
  60.4834075   3.7079956  48.7823508  61.3404794   4.2536493  49.9046573
  55.2133942   5.2522686  40.7148146  55.0933567   5.6979737  41.5533627
  54.5186530   5.6008004  40.1561684  48.8041347   7.3529078  48.2647803
  48.9333728   7.6063557  49.1787215  48.1238798   7.9456786  47.9452458
  52.9740834  18.0226328  44.3638278  52.8964864  18.9734153  44.4426758
  52.3702478  17.6772200  45.0213204  55.4658064   5.1954193  57.0199644
  54.6891398   5.7548113  57.0102509  56.1048627   5.6810976  57.5414515
  63.2578845   1.9780986  50.8542621  62.6153225   2.2713519  50.2082416
  62.7533773   1.8633906  51.6595818  60.9119008   5.7244159  41.5428480
  61.8236864   5.9571546  41.3676178  60.4028655   6.3081203  40.9803559
  53.7204436   8.0039647  56.5817611  54.4619121   8.5424691  56.3052435
  53.0141422   8.6305935  56.7389163  59.1959776  10.1468787  55.1789773
  59.6043132   9.7051198  54.4344405  58.4737037   9.5721415  55.4323966
  55.5490846   5.0841394  52.5523330  56.3952041   5.5080807  52.6957979
  55.4889484   4.4275018  53.2461893  59.5188590  10.7069978  48.9342062
  58.8897453  10.8715692  48.2318130  59.1314253  11.1211587  49.7053026
  63.3977822  11.6424416  46.2886426  62.7128861  12.0223317  45.7383459
  63.4821672  12.2519742  47.0218373  58.6990291   2.7445762  54.2104503
  58.4551223   3.4987823  53.6738779  58.9750222   3.1231110  55.0451751
  60.6528754   9.2884375  52.8881769  60.8645649   9.9316134  52.2116150
  60.6058502   8.4546691  52.4203699  58.2554983   1.9002195  49.7918341
  57.3939462   2.1983449  50.0835079  58.2817418   2.1172594  48.8599374
  55.0716552  10.4444386  46.1992147  55.5354898  10.7232089  45.4096769
  54.8073350   9.5427830  46.0165238  51.9640633   9.9915867  49.1371910
  52.5341990  10.4203136  48.4989395  52.5548745   9.7098452  49.8356096
  54.0085438   6.5667538  43.0081712  54.7109482   7.0188582  43.4755638
  53.6766067   5.9251357  43.6361605  52.4565800   5.1579295  57.3832921
  51.8264461   5.8395576  57.6168318  52.3501888   5.0462376  56.4386060
  47.7510772   4.8251091  48.3098846  46.9609826   5.0808619  47.8338956
  48.2422020   5.6399429  48.4150886  61.7674582  12.1656330  51.0604126
  62.5892026  11.7636517  50.7786808  61.7636985  12.0624564  52.0120242
  49.7025518   5.1895670  45.2682322  48.9056681   5.3014364  45.7865818
  49.4751110   5.5282322  44.4023213  55.5331185  11.7140373  53.2164837
  55.5975618  12.1760781  54.0523009  54.8242109  11.0837738  53.3447147
  46.0348475   5.0781581  50.7413836  46.2856514   5.9628591  51.0071412
  46.5708024   4.8986183  49.9688928  69.8580575   8.5095078  47.4089098
  69.1044283   7.9402477  47.2533102  69.9928116   8.4757743  48.3559733
  55.2479203  13.3808481  43.0843817  55.1124878  14.2260017  43.5128665
  55.7889016  13.5827758  42.3209751  51.7346543  -0.5399939  59.7458172
  51.3413488  -1.0933741  60.4205817  52.5512683  -0.2289361  60.1364690
  48.7008600  10.8983919  43.6571742  49.2133121  11.6927169  43.8077307
  49.3531313  10.2010209  43.5905344  50.5103485  14.0149675  45.7394496
  50.6870113  14.9367640  45.5515479  51.3060319  13.7008094  46.1688875
  54.6514504   0.8757940  57.3378429  55.3924217   1.4765093  57.2582892
  54.8832426   0.1335578  56.7796472  49.7955842   6.0614307  55.6156659
  49.6809357   5.1599564  55.9163758  48.9400359   6.3078004  55.2641475
  56.8747679  14.0032047  57.2144159  56.4311534  13.2168426  56.8965064
  57.5364893  14.1911198  56.5488050  51.6334801  15.5327849  51.7404838
  52.1842226  15.4044912  50.9681832  50.7946276  15.8322738  51.3899731
  58.9728917  14.2834847  55.2425561  58.9547393  15.1043728  54.7505830
  59.8948838  14.1588922  55.4675702  55.4301972  11.7978977  56.0849069
  55.9630308  11.0367265  55.8548377  54.9016053  11.5052629  56.8273223
  58.5971667  -3.0960957  51.6142711  58.2535936  -2.2059316  51.5381821
  58.9650629  -3.2859300  50.7512296  46.6657517   9.2272573  44.4331313
  47.5032739   9.6369582  44.2165021  46.8435785   8.2872015  44.4031507
  58.5621949   6.8947654  40.1215146  58.0468573   7.6652258  40.3603533
  58.2899258   6.2212790  40.7448207  56.1469060   1.7397355  45.1800384
  55.2910657   1.3504205  45.0006023  56.5596012   1.8189315  44.3200170
  57.6768207  -0.7256302  49.5791944  57.1733003  -0.7626167  48.7659749
  57.9698814   0.1836441  49.6388601  53.9211093  -0.6417572  48.5858126
  54.7864090  -0.8374764  48.2264015  53.9888602  -0.8707221  49.5127482
  63.5356223   9.6480008  42.0568319  62.7585666   9.3091168  41.6123481
  64.2147704   9.6532632  41.3823284  58.3508252   4.7674746  41.9474927
  58.0458388   5.0820895  42.7985070  59.3038695   4.8456166  41.9902260
  56.7954684  10.9264969  43.5967881  56.2676046  10.1917729  43.2841118
  56.2942187  11.7039646  43.3507849  61.7747530   9.1213990  48.7134927
  61.1171205   9.8113251  48.8015056  62.5787930   9.5110422  49.0568914
  51.5273412   1.5884635  45.9574493  52.1017164   1.3659817  45.2247685
  52.1144394   1.6573330  46.7103094  60.5852989   7.4758362  46.7638869
  61.0984871   8.1088354  47.2660579  61.2354213   6.8759558  46.3982229
  51.8542999   3.6189097  39.9770378  51.0180311   3.9563783  40.2979652
  51.7147769   3.4838076  39.0397515  53.8296080  -1.5374116  44.6849562
  53.1760492  -1.8525098  44.0606177  53.7876554  -2.1598375  45.4109385
  54.9407285   8.7445179  36.6002854  54.0334346   8.5134433  36.7994003
  55.4378316   7.9482799  36.7876836  57.8475363  17.4542687  39.5199540
  57.1737062  17.7574383  40.1284498  58.2341185  18.2571767  39.1704997
  57.0633820   4.9507818  49.0097210  56.1456381   5.1722765  48.8518898
  57.4793964   5.0254128  48.1508917  57.8468868   6.3499234  44.1399890
  58.5940687   6.8620631  43.8307012  58.1160457   6.0283286  45.0004283
  56.1195518   8.8457774  41.1226844  55.2106737   8.5616807  41.2199314
  56.1490602   9.2656853  40.2630151  61.3514785  12.4564364  44.8918012
  60.8977112  11.6155274  44.9483202  60.7208752  13.0925762  45.2292792
  60.2947705   3.3856350  46.1218679  59.5570462   2.8733736  46.4528922
  60.5474478   2.9456731  45.3101956  59.7947725  14.2940861  45.8267830
  60.0870699  14.8545918  45.1080195  60.3046345  14.5869422  46.5820989
  46.6883688   6.5663288  45.1042046  46.4908088   5.9732649  44.3793113
  46.1330352   6.2615499  45.8217985  54.6680412   6.4586395  47.2236639
  54.7229022   5.5060231  47.1479116  53.8571614   6.6145834  47.7077938
  55.8171606  10.3866518  38.4614923  55.3791036   9.6702377  38.0020560
  56.5582047  10.6142633  37.9000014  52.6072772   5.0763455  44.9827018
  51.7940637   5.3757625  45.3892210  53.1031766   4.6819143  45.7001501
  54.7581350  15.0721212  46.9161283  54.7157529  15.2982058  45.9869815
  55.6744049  14.8384586  47.0647084  58.2046984   5.5405279  53.8141912
  58.5596371   5.7676752  54.6736378  58.8519115   5.8723656  53.1919168
  63.9344721   8.6623715  44.5191241  63.7962619   8.8525311  43.5912430
  63.5780939   9.4243098  44.9759292  52.0986847   2.6481810  50.5988253
  52.7386226   2.5070569  49.9011217  51.2664377   2.3616324  50.2226855
  63.9614100  10.7300242  49.5302513  64.3950607  10.6375531  50.3785567
  64.6745681  10.7057743  48.8922529  52.8747151  11.9484241  46.7123246
  53.6687749  11.4534561  46.5105821  52.1638843  11.4202104  46.3490951
  57.6941995  14.3302336  51.0635613  57.7479017  14.8993272  51.8313329
  56.8256776  14.5004221  50.6989650  49.1829914   6.0927322  42.7882998
  48.2527502   6.0311778  43.0052961  49.2787386   5.5703275  41.9919640
  49.1015463   2.6182135  45.3761240  49.3622280   3.5327468  45.2670401
  49.9232635   2.1506578  45.5257853  50.5740388   4.0319892  52.5460065
  51.2463442   3.8237254  51.8972714  49.7470175   3.8341978  52.1065297
  64.8229650  10.7723943  52.0635398  65.0165540  11.6769753  52.3094673
  64.7230268  10.3131362  52.8973983  56.4765960   0.6581833  54.5625725
  55.8293875   1.3571783  54.4690202  57.2466976   1.0917977  54.9301974
  59.8844758  10.9230685  57.6376279  59.7330265  10.6941237  56.7206362
  59.8749438  11.8801287  57.6507624  56.6530095   8.4962598  52.6222545
  57.5822155   8.6473758  52.4491513  56.2321125   8.5846619  51.7671192
  55.4518427  12.5213263  50.3921083  55.3129512  12.1532047  51.2647021
  54.6633023  13.0360902  50.2205041  56.0466579  17.6222359  41.7346619
  56.2218334  17.1510402  42.5492242  55.3599367  18.2488125  41.9627880
  57.0023642  11.8994865  47.7809921  56.6673474  11.8595635  48.6767571
  56.5027587  11.2339581  47.3080331  50.9767886   7.3062495  53.3062502
  50.8387684   6.5742734  53.9074041  51.8872809   7.2171395  53.0246690
  59.9382833   9.2450900  38.0546980  59.3212004   8.5197728  37.9580033
  59.4699322  10.0060260  37.7114055  53.6050186   7.0182455  52.7946181
  54.3149805   6.3775647  52.7532800  53.5619495   7.2695350  53.7172362
  61.5936965  13.9549808  55.7152761  61.5349511  13.2709028  55.0483344
  61.9956483  14.6968798  55.2633387  52.3179120   4.0047673  54.6141821
  51.7816477   3.5538411  55.2663417  51.7295829   4.1393581  53.8712285
  50.6127664  20.7711722  48.5086480  50.8524262  21.4030246  49.1865498
  49.7696860  20.4199762  48.7951839  51.7281379   3.4636324  37.1768285
  50.8510846   3.3425125  36.8130531  52.2039132   2.6722402  36.9247173
  61.5954372  11.9189392  53.9466740  60.7081151  11.5815314  54.0693139
  62.1652923  11.1872423  54.1835506  43.2483519   8.2513484  47.2709792
  43.9354559   7.9375214  46.6830807  43.0931648   9.1554848  46.9977043
  48.0518242   3.1403680  51.6994815  47.9676430   2.5329350  50.9645225
  47.2300948   3.6312699  51.7004312  55.1255526  16.5790844  50.9127984
  55.0525697  17.3845816  51.4247288  54.6832919  16.7782810  50.0876005
  54.9145305  15.8162614  44.4230805  54.1312827  16.3584295  44.5169030
  55.6138050  16.3336594  44.8225046  58.2241955   1.6257244  47.0665010
  58.7210655   0.8727206  46.7466081  57.4528937   1.6621560  46.5008220
  66.0771713   7.3297609  48.7083302  66.0661589   8.2122325  48.3377235
  65.2089092   6.9769160  48.5137839  57.5854209  16.4777678  53.0686142
  58.2982181  17.1125143  52.9962044  57.0944238  16.5741544  52.2526144
  59.3071736  10.3828931  44.6403434  58.3728015  10.5030393  44.4708138
  59.4848405   9.4801398  44.3763444  54.8076924   3.7674627  46.7936695
  54.4374712   3.2145667  47.4817601  55.3036017   3.1632760  46.2411695
  62.6944287   6.2246250  45.1753468  63.1604740   7.0574242  45.1013771
  63.1451788   5.7591232  45.8798726  52.6366123  14.2272122  53.8891713
  53.3375582  14.8608605  54.0421107  52.1661238  14.5686853  53.1287352
  60.7620519  12.5690072  42.1739620  61.0380362  12.4546666  43.0833494
  59.8925017  12.1707556  42.1351793  60.6660950  -1.4073163  49.2144369
  59.7524030  -1.1768936  49.3826576  61.0954052  -1.3234719  50.0658402
  60.4367409   6.7816729  51.7144263  59.7838859   7.0292637  51.0596716
  60.8147789   5.9680867  51.3806741  57.3974583  16.8176422  45.8172434
  57.5796977  15.9998078  46.2800186  58.2207569  17.0344115  45.3797324
  57.7316748  15.7444608  43.0787482  58.2604515  15.2337062  42.4657644
  57.9944968  15.4287138  43.9433015  56.4854982   7.5236540  58.2010300
  55.8095619   7.4230670  58.8712676  57.3082616   7.3675754  58.6646298
  48.2333841  13.7608477  50.8222816  48.8187278  13.0152165  50.9550720
  48.0358679  14.0712434  51.7059480  51.0872496  16.7959724  45.8385258
  50.4182871  17.2805852  45.3549298  50.9485366  17.0428945  46.7528637
  42.8251496   6.3314077  49.5427259  42.8635595   5.7977668  50.3364377
  42.3191788   5.8049283  48.9238236  55.2277765  18.8303468  52.4367916
  55.7796073  18.9935089  53.2017002  55.5683958  19.4207906  51.7647941
  50.2042258   1.1778618  53.0389801  50.2683584   2.0393448  52.6267199
  50.1409378   0.5652619  52.3062160  49.6794530   3.2501750  56.6862835
  50.3066569   2.8678827  57.3000360  48.8222449   3.0315952  57.0518528
  60.0788639  13.6564725  58.2916571  60.6228543  14.2694684  57.7971526
  59.4975484  14.2144304  58.8083584  46.4560073   5.0578179  42.6181190
  46.7513514   4.1488858  42.5648244  45.5548109   5.0365919  42.2962193
  58.3646152  16.7785443  49.4231599  58.2397291  15.9775183  48.9142544
  59.0225243  17.2731637  48.9345569  49.9854320   3.1334176  48.6008739
  49.2640906   3.7470143  48.4616212  50.7747576   3.6691941  48.5225385
  60.4281060  14.5794463  51.0511149  59.4811396  14.4599815  50.9789475
  60.7763833  13.6916961  51.1337410  52.7880634   0.4688602  54.8749391
  53.3115035   0.7150899  55.6375700  52.5692967   1.3008637  54.4552528
  48.1847915   2.7392277  42.7420515  47.8560621   1.8589656  42.5595621
  48.5387285   2.6839946  43.6296905  57.4327494  14.3747180  47.2515501
  57.2852456  13.4463887  47.4323071  58.2580987  14.3967270  46.7672576
  51.2989738   3.0265247  43.1095993  51.6385810   3.5551168  42.3874601
  51.7461858   3.3645653  43.8854560  61.0361615  15.1975738  48.3380374
  61.9608163  14.9918600  48.2004825  60.8676919  14.9492139  49.2469715
  53.9933179   1.4102297  52.5599061  53.6529999   0.6110110  52.9619741
  53.2872185   1.7104008  51.9875894  54.6449651  -1.5048390  51.0126384
  55.4675720  -1.9787912  50.8905274  54.8887714  -0.7257906  51.5125070
  53.2857885   1.5239868  41.3089286  54.0066248   1.9021121  40.8053003
  52.6623189   2.2428745  41.4124264  57.4289008   2.2285017  42.2447618
  57.6452622   3.1109655  41.9436446  56.9483075   1.8371231  41.5153260
  52.1688229   5.1870730  48.8218363  52.0232810   5.5011034  49.7142644
  51.6913433   5.8055631  48.2689261  54.0284612   2.1773278  48.8699252
  54.0146181   1.2814372  48.5331550  54.7457040   2.1843942  49.5037538
  55.8810743   2.6110619  50.9152380  55.6228521   3.5327689  50.9136710
  55.3495783   2.2141053  51.6052844  60.8256932  15.7161406  43.6942465
  60.9993809  15.1507828  42.9416318  61.3185823  16.5162301  43.5121955
  46.6433891   7.7276075  51.7606024  46.0987360   8.5035883  51.8926298
  47.5213241   8.0746879  51.6025145  53.4321508   1.0587659  44.1386822
  53.5537419   0.1304305  44.3377710  53.1423550   1.0726345  43.2265138
  56.3012698  -1.2557431  47.2753542  56.3234395  -1.1918098  46.3205522
  56.7180757  -2.0952922  47.4694048  66.6796323   8.4797829  45.3132765
  67.1227469   7.7305154  44.9151888  65.8022833   8.4707965  44.9306497
  61.8132104  15.0328170  40.7939363  62.5083009  15.6534863  41.0126678
  62.1555254  14.1823521  41.0691741  47.4299913   6.8545971  54.6536181
  46.6881649   7.0028606  55.2400811  47.1092658   7.1154237  53.7902930
  63.7123527  12.4827876  42.3226694  64.2374851  12.8215148  41.5976014
  63.6245880  11.5474891  42.1389829  55.3743576  16.3961949  54.4516571
  55.6830702  16.1511096  55.3239270  56.1719058  16.6008588  53.9635441
  55.3964188  18.5499859  46.6821947  54.9569178  18.0576238  47.3754804
  56.1472305  18.0072827  46.4414023  47.8756527  14.7411400  46.6846575
  48.7014547  14.4415172  46.3045219  47.5250579  13.9719022  47.1336364
  52.8438060  14.0937868  48.7544249  52.2218069  13.4308573  48.4546477
  53.5142927  14.1199000  48.0717897  46.0765132  12.6597726  47.6435509
  45.2397040  12.2319901  47.4619510  46.0488777  12.8530170  48.5806300
  52.9162588   2.5719656  58.3476755  52.9650743   3.4481779  57.9654525
  53.4585102   2.0297049  57.7748398  63.4017433  13.1160779  57.6277892
  62.6112977  13.0984918  57.0882392  63.1650788  13.6549073  58.3826929
  63.5215308   9.9653246  54.9410621  63.5713313   9.8003253  55.8826143
  63.4129232   9.0980505  54.5508501  52.4051567  12.6441791  42.2302710
  52.5539687  13.3277256  41.5769382  53.2118010  12.6246881  42.7452165
  60.8119071   5.9484174  56.2569927  61.7128933   5.8090639  55.9653925
  60.8867045   6.1138629  57.1968105  55.1461876   3.3251028  55.1023114
  54.2765185   3.6184595  54.8305702  55.3821356   3.9091473  55.8230377
  65.0233505  12.3850187  55.1852642  64.7318313  12.7480168  56.0216103
  64.4105636  11.6717196  55.0065974  66.2229187   9.9503067  47.7055212
  67.0576079  10.3892871  47.8692773  66.3588316   9.4741720  46.8863458
  63.2720693   7.5082802  53.6532700  63.7474815   7.7010448  52.8451552
  62.3486259   7.5641988  53.4076084  50.1604200   8.6706969  43.2363778
  49.9150242   7.7669299  43.4343989  50.3300115   8.6724119  42.2943256
  57.8500910  -0.4569355  52.6188534  58.3682854   0.2791672  52.2935023
  57.4956043  -0.1505361  53.4535293  49.4299848   4.4035327  40.7349940
  48.7369092   4.4779682  40.0789976  49.1851599   3.6395670  41.2571457
  55.9046973  15.1389922  39.7014457  55.3320940  15.7580109  39.2484929
  56.4779766  15.6889284  40.2354379  61.9722362   4.3848562  51.8861006
  62.9239785   4.4846660  51.9073230  61.8025813   3.5926830  52.3959090
  59.9936742   1.4704145  52.0720407  59.3986674   1.7509158  51.3766895
  59.7086439   1.9598046  52.8437148  59.1244232  15.4227072  40.8323039
  60.0574906  15.3572634  41.0355915  59.0367445  16.2583339  40.3737572
  61.7532249  14.7392942  37.7926987  61.6745881  14.4052806  38.6862745
  62.5741916  15.2314710  37.7918459  64.4510440   7.6054682  51.0003305
  64.4186760   6.6670682  51.1862989  65.0611064   7.6838718  50.2669130
  56.2893771   6.4750735  37.0430509  57.2352876   6.3456943  37.1118928
  55.9108016   5.7365397  37.5199938  64.6004929   4.3965725  51.0461589
  64.0843977   3.6124182  50.8591517  65.4844877   4.0684442  51.2108108
  62.2615656  -1.8593259  47.0057401  62.0640477  -2.1678171  47.8900733
  62.8715361  -1.1331620  47.1355331  70.2686990   8.6670688  50.1409342
  70.9990379   8.4055977  50.7017046  69.6593936   7.9299410  50.1811410
  68.3502287   6.8078551  50.7383793  67.6235451   6.6734516  50.1300285
  67.9349574   7.1155380  51.5440511  56.1732464  10.5268481  58.5031166
  57.0935473  10.7047080  58.6971213  56.1382047   9.5824526  58.3510866
  54.4736688   4.4000711  36.9785395  53.5668144   4.1033824  37.0548108
  54.7512669   4.1030529  36.1119681  45.3914629   5.7207074  47.4284441
  45.0717413   4.8672383  47.1358815  44.8448057   5.9355653  48.1842408
  49.1694536   8.4369515  51.1453948  49.3880546   9.3686623  51.1641981
  49.5820310   8.0777490  51.9308751  56.0898754  -1.0562399  43.1329636
  55.2799482  -1.4015314  43.5084882  56.7783171  -1.3654856  43.7217248
  58.0189302  -1.9784352  44.7553933  58.5720341  -1.5588899  45.4143956
  58.2559389  -2.9048604  44.7976889  54.0422401   4.0102721  60.5356697
  53.9419128   4.9597078  60.4668788  53.8243944   3.6820960  59.6632767
  53.2435473   1.2587646  37.1197374  54.1054637   1.5842545  37.3793191
  53.4285817   0.4719142  36.6070440  45.2602889   9.3409986  49.3977563
  44.5666360   8.9263939  48.8847517  46.0075880   9.3830522  48.8010982
  61.3968109   0.1316173  44.2632597  60.8166778   0.7900977  43.8810649
  61.1304042  -0.6906483  43.8520014  59.8471676  -0.4678770  46.4653917
  60.3471454  -0.3562235  45.6568236  60.4907284  -0.7717717  47.1054726
  53.9053672   7.4399860  59.3521758  53.4220753   8.2400220  59.5585647
  53.9914611   7.4507805  58.3989202  47.1739631   9.2728240  47.2743578
  47.1510319   9.3715927  46.3225461  47.4840268  10.1193390  47.5960744
  49.8327009  11.3304395  51.3890192  50.7870263  11.2988337  51.3220124
  49.6339533  10.8695018  52.2040418  50.4226391   9.9005511  53.9560990
  51.2419280  10.3949589  53.9795827  50.6963199   8.9837479  53.9278557
  60.1792987   2.2916263  43.3188945  59.2918842   2.5765914  43.1009140
  60.5946976   2.1310026  42.4716222  63.5307523   2.3162784  47.0343284
  64.3067914   2.8059236  47.3067901  62.8055658   2.7420838  47.4915154
  65.9680082   3.0290403  48.0917225  66.5624573   2.7886139  47.3810533
  66.0406666   2.3097534  48.7190761  48.1877238  16.8724014  48.4060390
  48.0531706  16.1124415  47.8398388  47.7709300  17.5964914  47.9389179
  59.3236201  12.0560938  37.4136965  60.0272051  12.2610940  38.0294621
  58.5998850  12.6237700  37.6786049  60.1534011   7.8070799  43.5339235
  60.0969212   8.2639350  42.6946868  60.7062354   7.0461484  43.3562078
  63.9638817   3.5960531  44.3589355  63.7075751   3.1957167  45.1897563
  63.3391685   4.3104325  44.2339494  68.2751155   6.3356604  46.8660646
  67.7150713   6.4049793  47.6392208  67.6694658   6.1597589  46.1460142
  51.3446364  17.7693331  48.6178833  51.2278748  18.7138764  48.5157523
  50.5238810  17.4666893  49.0064632  61.2322898  12.4943467  39.4635425
  62.0668502  12.0624665  39.2812900  61.0707241  12.3225481  40.3912320
  60.8868790   8.9975580  40.8291765  60.8317594   8.8319852  39.8880209
  60.2614846   9.7051613  40.9853954  45.6761305   4.2343645  54.6553187
  46.3220169   3.7242599  55.1440412  45.4678456   4.9712326  55.2296612
  58.2014698  11.3024492  60.1545327  59.0705857  11.4765144  59.7931962
  57.7221449  12.1218909  60.0321057  54.1964916  -1.5016311  40.4077083
  54.1843586  -0.5574471  40.5645354  55.0888338  -1.6846165  40.1136544
  52.3700878  18.4221593  51.8334761  53.2728125  18.4545203  52.1501256
  52.1438248  17.4922044  51.8481097  54.1254480  17.1752580  48.4944840
  53.1750111  17.1754441  48.3809212  54.4286966  16.4285314  47.9780874
  50.0158796   1.3811262  58.7528201  50.8790258   1.0248067  58.9631526
  49.4424207   1.0425157  59.4403605  69.8607173  23.0113118  49.5590602
  70.4985583  22.8919865  48.8553942  69.7428016  23.9593962  49.6178554
  66.6696880  22.9640546  49.4952127  66.3315391  22.8481611  48.6072661
  67.5386648  22.5631711  49.4753133  67.1516663  24.1175398  55.4538332
  67.1405303  23.7228196  54.5818836  67.3137302  23.3841470  56.0472104
  60.0748127  26.3127214  48.3233238  60.8669419  25.9718039  47.9079537
  60.3144777  26.4222189  49.2435391  63.8723924  26.9012510  54.4017516
  63.5813790  27.8058141  54.2864182  64.5080908  26.9429037  55.1161586
  64.7980131  24.2789358  50.9918876  65.3943703  24.0545381  50.2775839
  64.8555102  23.5374104  51.5944324  69.4148442  20.7364572  46.6343810
  70.2011531  20.3183995  46.2834227  69.6787146  21.6410664  46.8025458
  74.8156869  20.6739805  47.5376788  75.5482041  20.1039022  47.7714618
  74.0596225  20.2861406  47.9783294  72.3382289  14.3861379  51.9971397
  72.0065614  15.2556790  51.7732612  71.7427903  14.0697663  52.6765427
  66.0738476  18.1256946  39.7301479  66.2412878  18.9937183  40.0971951
  65.8835645  18.2884228  38.8062769  62.2826290  23.0387722  47.4304014
  61.3576787  22.9063936  47.6381706  62.5310703  23.8181941  47.9273957
  72.2310953  19.1056465  49.0764747  71.3227830  19.0371874  48.7823508
  72.1798548  19.5828410  49.9046573  66.0527696  20.5814604  40.7148146
  65.9327322  21.0271655  41.5533627  65.3580285  20.9299921  40.1561684
  59.6435101  22.6820996  48.2647803  59.7727482  22.9355474  49.1787215
  58.9632553  23.2748704  47.9452458  66.3051818  20.5246111  57.0199644
  65.5285152  21.0840031  57.0102509  66.9442381  21.0102894  57.5414515
  74.0972599  17.3072904  50.8542621  73.4546979  17.6005437  50.2082416
  73.5927528  17.1925824  51.6595818  71.7512763  21.0536077  41.5428480
  72.6630619  21.2863464  41.3676178  71.2422410  21.6373121  40.9803559
  64.5598191  23.3331564  56.5817611  65.3012875  23.8716608  56.3052435
  63.8535176  23.9597853  56.7389163  66.3884600  20.4133312  52.5523330
  67.2345796  20.8372725  52.6957979  66.3283238  19.7566936  53.2461893
  69.5384046  18.0737680  54.2104503  69.2944978  18.8279740  53.6738779
  69.8143976  18.4523028  55.0451751  69.0948737  17.2294113  49.7918341
  68.2333216  17.5275366  50.0835079  69.1211172  17.4464512  48.8599374
  62.8034388  25.3207785  49.1371910  63.3735745  25.7495053  48.4989395
  63.3942500  25.0390370  49.8356096  64.8479193  21.8959456  43.0081712
  65.5503236  22.3480500  43.4755638  64.5159821  21.2543275  43.6361605
  63.2959554  20.4871212  57.3832921  62.6658215  21.1687493  57.6168318
  63.1895642  20.3754294  56.4386060  58.5904527  20.1543009  48.3098846
  57.8003581  20.4100537  47.8338956  59.0815774  20.9691346  48.4150886
  60.5419272  20.5187588  45.2682322  59.7450436  20.6306282  45.7865818
  60.3144864  20.8574240  44.4023213  66.3724940  27.0432291  53.2164837
  66.4369372  27.5052698  54.0523009  65.6635864  26.4129656  53.3447147
  56.8742230  20.4073499  50.7413836  57.1250268  21.2920509  51.0071412
  57.4101778  20.2278100  49.9688928  62.5740297  14.7891978  59.7458172
  62.1807243  14.2358177  60.4205817  63.3906437  15.1002557  60.1364690
  65.4908258  16.2049857  57.3378429  66.2317972  16.8057011  57.2582892
  65.7226181  15.4627495  56.7796472  60.6349596  21.3906225  55.6156659
  60.5203111  20.4891482  55.9163758  59.7794114  21.6369921  55.2641475
  69.4365421  12.2330960  51.6142711  69.0929690  13.1232602  51.5381821
  69.8044384  12.0432618  50.7512296  69.4015704  22.2239571  40.1215146
  68.8862327  22.9944176  40.3603533  69.1293012  21.5504708  40.7448207
  66.9862815  17.0689272  45.1800384  66.1304411  16.6796123  45.0006023
  67.3989767  17.1481233  44.3200170  68.5161961  14.6035616  49.5791944
  68.0126757  14.5665751  48.7659749  68.8092568  15.5128358  49.6388601
  64.7604847  14.6874345  48.5858126  65.6257844  14.4917154  48.2264015
  64.8282356  14.4584697  49.5127482  74.3749978  24.9771926  42.0568319
  73.5979421  24.6383086  41.6123481  75.0541459  24.9824549  41.3823284
  69.1902007  20.0966664  41.9474927  68.8852143  20.4112813  42.7985070
  70.1432449  20.1748083  41.9902260  62.3667166  16.9176553  45.9574493
  62.9410918  16.6951735  45.2247685  62.9538149  16.9865248  46.7103094
  71.4246744  22.8050280  46.7638869  71.9378625  23.4380272  47.2660579
  72.0747968  22.2051476  46.3982229  62.6936754  18.9481014  39.9770378
  61.8574066  19.2855701  40.2979652  62.5541523  18.8129994  39.0397515
  64.6689834  13.7917802  44.6849562  64.0154246  13.4766819  44.0606177
  64.6270308  13.1693543  45.4109385  67.9027575  20.2799736  49.0097210
  66.9850136  20.5014683  48.8518898  68.3187718  20.3546046  48.1508917
  68.6862622  21.6791151  44.1399890  69.4334441  22.1912549  43.8307012
  68.9554212  21.3575204  45.0004283  72.1908540  27.7856282  44.8918012
  71.7370867  26.9447191  44.9483202  71.5602507  28.4217680  45.2292792
  71.1341459  18.7148268  46.1218679  70.3964216  18.2025654  46.4528922
  71.3868233  18.2748649  45.3101956  71.2353087  11.4924520  46.7160448
  71.5411964  10.6321883  46.4286363  71.9605692  12.0842140  46.5159442
  57.5277443  21.8955206  45.1042046  57.3301843  21.3024567  44.3793113
  56.9724107  21.5907416  45.8217985  65.5074166  21.7878313  47.2236639
  65.5622776  20.8352149  47.1479116  64.6965369  21.9437752  47.7077938
  63.4466526  20.4055372  44.9827018  62.6334392  20.7049543  45.3892210
  63.9425521  20.0111061  45.7001501  69.0440738  20.8697197  53.8141912
  69.3990126  21.0968670  54.6736378  69.6912869  21.2015574  53.1919168
  62.9380601  17.9773728  50.5988253  63.5779980  17.8362487  49.9011217
  62.1058132  17.6908241  50.2226855  60.0223669  21.4219240  42.7882998
  59.0921257  21.3603696  43.0052961  60.1181141  20.8995193  41.9919640
  59.9409218  17.9474053  45.3761240  60.2016035  18.8619386  45.2670401
  60.7626390  17.4798495  45.5257853  61.4134143  19.3611810  52.5460065
  62.0857196  19.1529172  51.8972714  60.5863929  19.1633896  52.1065297
  67.3159715  15.9873751  54.5625725  66.6687630  16.6863701  54.4690202
  68.0860730  16.4209895  54.9301974  67.4923849  23.8254516  52.6222545
  68.4215909  23.9765675  52.4491513  67.0714879  23.9138537  51.7671192
  67.8417396  27.2286783  47.7809921  67.5067229  27.1887553  48.6767571
  67.3421342  26.5631499  47.3080331  61.8161640  22.6354413  53.3062502
  61.6781438  21.9034652  53.9074041  62.7266564  22.5463313  53.0246690
  70.7776588  24.5742817  38.0546980  70.1605758  23.8489645  37.9580033
  70.3093076  25.3352178  37.7114055  64.4443941  22.3474372  52.7946181
  65.1543559  21.7067565  52.7532800  64.4013249  22.5987267  53.7172362
  63.1572875  19.3339590  54.6141821  62.6210232  18.8830329  55.2663417
  62.5689583  19.4685499  53.8712285  61.4521418  36.1003640  48.5086480
  61.6918017  36.7322164  49.1865498  60.6090615  35.7491680  48.7951839
  62.5675134  18.7928242  37.1768285  61.6904600  18.6717042  36.8130531
  63.0432887  18.0014320  36.9247173  54.0877274  23.5805401  47.2709792
  54.7748314  23.2667131  46.6830807  53.9325403  24.4846766  46.9977043
  58.8911996  18.4695598  51.6994815  58.8070185  17.8621267  50.9645225
  58.0694702  18.9604616  51.7004312  69.0635710  16.9549161  47.0665010
  69.5604409  16.2019124  46.7466081  68.2922691  16.9913478  46.5008220
  70.1465491  25.7120849  44.6403434  69.2121769  25.8322311  44.4708138
  70.3242159  24.8093315  44.3763444  65.6470679  19.0966544  46.7936695
  65.2768466  18.5437585  47.4817601  66.1429771  18.4924678  46.2411695
  73.5338042  21.5538168  45.1753468  73.9998494  22.3866160  45.1013771
  73.9845542  21.0883150  45.8798726  71.5054705  13.9218755  49.2144369
  70.5917784  14.1522982  49.3826576  71.9347806  14.0057199  50.0658402
  71.2761163  22.1108647  51.7144263  70.6232613  22.3584554  51.0596716
  71.6541543  21.2972785  51.3806741  67.3248736  22.8528458  58.2010300
  66.6489373  22.7522587  58.8712676  68.1476370  22.6967672  58.6646298
  59.0727595  29.0900395  50.8222816  59.6581032  28.3444082  50.9550720
  58.8752434  29.4004351  51.7059480  53.6645250  21.6605995  49.5427259
  53.7029350  21.1269585  50.3364377  53.1585543  21.1341200  48.9238236
  61.0436012  16.5070535  53.0389801  61.1077339  17.3685366  52.6267199
  60.9803133  15.8944537  52.3062160  60.5188285  18.5793668  56.6862835
  61.1460324  18.1970745  57.3000360  59.6616204  18.3607870  57.0518528
  57.2953828  20.3870097  42.6181190  57.5907269  19.4780775  42.5648244
  56.3941863  20.3657836  42.2962193  60.8248075  18.4626093  48.6008739
  60.1034660  19.0762061  48.4616212  61.6141330  18.9983858  48.5225385
  63.6274388  15.7980520  54.8749391  64.1508790  16.0442816  55.6375700
  63.4086721  16.6300555  54.4552528  59.0241669  18.0684195  42.7420515
  58.6954375  17.1881573  42.5595621  59.3781040  18.0131863  43.6296905
  62.1383492  18.3557164  43.1095993  62.4779565  18.8843086  42.3874601
  62.5855613  18.6937570  43.8854560  64.8326933  16.7394215  52.5599061
  64.4923754  15.9402028  52.9619741  64.1265939  17.0395926  51.9875894
  65.4843405  13.8243527  51.0126384  66.3069474  13.3504006  50.8905274
  65.7281469  14.6034011  51.5125070  64.1251639  16.8531786  41.3089286
  64.8460002  17.2313039  40.8053003  63.5016944  17.5720663  41.4124264
  68.2682762  17.5576935  42.2447618  68.4846377  18.4401573  41.9436446
  67.7876830  17.1663148  41.5153260  63.0081984  20.5162648  48.8218363
  62.8626564  20.8302951  49.7142644  62.5307187  21.1347548  48.2689261
  64.8678367  17.5065196  48.8699252  64.8539935  16.6106289  48.5331550
  65.5850795  17.5135860  49.5037538  66.7204497  17.9402536  50.9152380
  66.4622275  18.8619607  50.9136710  66.1889538  17.5432971  51.6052844
  57.4827646  23.0567993  51.7606024  56.9381114  23.8327800  51.8926298
  58.3606996  23.4038797  51.6025145  64.2715263  16.3879576  44.1386822
  64.3931174  15.4596223  44.3377710  63.9817305  16.4018262  43.2265138
  67.1406453  14.0734487  47.2753542  67.1628150  14.1373820  46.3205522
  67.5574512  13.2338995  47.4694048  58.2693668  22.1837889  54.6536181
  57.5275404  22.3320524  55.2400811  57.9486412  22.4446154  53.7902930
  74.5517282  27.8119793  42.3226694  75.0768606  28.1507066  41.5976014
  74.4639634  26.8766809  42.1389829  58.7150281  30.0703317  46.6846575
  59.5408301  29.7707089  46.3045219  58.3644333  29.3010940  47.1336364
  56.9158887  27.9889644  47.6435509  56.0790795  27.5611818  47.4619510
  56.8882532  28.1822087  48.5806300  63.7556342  17.9011574  58.3476755
  63.8044498  18.7773697  57.9654525  64.2978856  17.3588967  57.7748398
  71.6512825  21.2776091  56.2569927  72.5522688  21.1382556  55.9653925
  71.7260800  21.4430546  57.1968105  65.9855631  18.6542946  55.1023114
  65.1158940  18.9476512  54.8305702  66.2215111  19.2383391  55.8230377
  74.1114448  22.8374720  53.6532700  74.5868570  23.0302366  52.8451552
  73.1880013  22.8933905  53.4076084  68.6894664  14.8722563  52.6188534
  69.2076608  15.6083590  52.2935023  68.3349797  15.1786556  53.4535293
  60.2693602  19.7327244  40.7349940  59.5762847  19.8071599  40.0789976
  60.0245354  18.9687588  41.2571457  68.9407259  11.2922846  48.1389431
  69.2209012  10.6246035  48.7649857  69.7257865  11.4851941  47.6264095
  72.8116117  19.7140480  51.8861006  73.7633540  19.8138577  51.9073230
  72.6419567  18.9218748  52.3959090  70.8330496  16.7996063  52.0720407
  70.2380428  17.0801076  51.3766895  70.5480193  17.2889964  52.8437148
  75.2904195  22.9346599  51.0003305  75.2580515  21.9962600  51.1862989
  75.9004818  23.0130636  50.2669130  67.1287526  21.8042652  37.0430509
  68.0746630  21.6748860  37.1118928  66.7501771  21.0657314  37.5199938
  75.4398683  19.7257643  51.0461589  74.9237732  18.9416099  50.8591517
  76.3238632  19.3976359  51.2108108  73.1009410  13.4698658  47.0057401
  72.9034231  13.1613746  47.8900733  73.7109116  14.1960297  47.1355331
  67.0126218  25.8560398  58.5031166  67.9329228  26.0338997  58.6971213
  66.9775801  24.9116444  58.3510866  65.3130443  19.7292629  36.9785395
  64.4061898  19.4325741  37.0548108  65.5906424  19.4322447  36.1119681
  56.2308383  21.0498992  47.4284441  55.9111167  20.1964300  47.1358815
  55.6841811  21.2647570  48.1842408  60.0088291  23.7661433  51.1453948
  60.2274300  24.6978541  51.1641981  60.4214064  23.4069407  51.9308751
  66.9292508  14.2729518  43.1329636  66.1193237  13.9276603  43.5084882
  67.6176925  13.9637062  43.7217248  68.8583057  13.3507565  44.7553933
  69.4114095  13.7703019  45.4143956  69.0953143  12.4243313  44.7976889
  64.8816156  19.3394639  60.5356697  64.7812883  20.2888996  60.4668788
  64.6637698  19.0112878  59.6632767  64.0829227  16.5879564  37.1197374
  64.9448391  16.9134462  37.3793191  64.2679571  15.8011060  36.6070440
  56.0996643  24.6701904  49.3977563  55.4060115  24.2555856  48.8847517
  56.8469634  24.7122440  48.8010982  72.2361864  15.4608090  44.2632597
  71.6560533  16.1192894  43.8810649  71.9697796  14.6385435  43.8520014
  70.6865430  14.8613148  46.4653917  71.1865209  14.9729683  45.6568236
  71.3301038  14.5574201  47.1054726  64.7447426  22.7691778  59.3521758
  64.2614508  23.5692138  59.5585647  64.8308365  22.7799723  58.3989202
  58.0133386  24.6020157  47.2743578  57.9904074  24.7007845  46.3225461
  58.3234022  25.4485308  47.5960744  60.6720764  26.6596312  51.3890192
  61.6264017  26.6280255  51.3220124  60.4733287  26.1986936  52.2040418
  61.2620146  25.2297428  53.9560990  62.0813035  25.7241507  53.9795827
  61.5356953  24.3129397  53.9278557  71.0186742  17.6208181  43.3188945
  70.1312597  17.9057831  43.1009140  71.4340731  17.4601944  42.4716222
  74.3701278  17.6454702  47.0343284  75.1461668  18.1351154  47.3067901
  73.6449412  18.0712756  47.4915154  76.8073837  18.3582321  48.0917225
  77.4018327  18.1178057  47.3810533  76.8800420  17.6389451  48.7190761
  59.0270992  32.2015932  48.4060390  58.8925460  31.4416333  47.8398388
  58.6103055  32.9256832  47.9389179  70.1629955  27.3852855  37.4136965
  70.8665805  27.5902858  38.0294621  69.4392604  27.9529617  37.6786049
  70.9927766  23.1362717  43.5339235  70.9362967  23.5931268  42.6946868
  71.5456108  22.3753401  43.3562078  74.8032571  18.9252449  44.3589355
  74.5469506  18.5249084  45.1897563  74.1785440  19.6396242  44.2339494
  79.1144909  21.6648522  46.8660646  78.5544467  21.7341711  47.6392208
  78.5088413  21.4889506  46.1460142  71.7262545  24.3267498  40.8291765
  71.6711349  24.1611769  39.8880209  71.1008600  25.0343531  40.9853954
  56.5155060  19.5635562  54.6553187  57.1613923  19.0534516  55.1440412
  56.3072211  20.3004244  55.2296612  65.0358670  13.8275607  40.4077083
  65.0237340  14.7717447  40.5645354  65.9282092  13.6445752  40.1136544
  68.8510790  10.4218384  44.6623020  68.0843186   9.8676870  44.8079702
  69.2621495  10.4940252  45.5237171  60.8552551  16.7103179  58.7528201
  61.7184012  16.3539984  58.9631526  60.2817962  16.3717074  59.4403605
  91.5368084  39.1678914  47.4089098  90.7831792  38.5986312  47.2533102
  91.6715625  39.1341578  48.3559733  75.8752425  29.1567525  40.4077083
  75.8631095  30.1009364  40.5645354  76.7675847  28.9737670  40.1136544
  94.0169798  45.0445215  51.9971397  93.6853123  45.9140626  51.7732612
  93.4215412  44.7281499  52.6765427  95.7760108  47.9656739  50.8542621
  95.1334488  48.2589272  50.2082416  95.2715036  47.8509659  51.6595818
  90.7736246  47.8877948  49.7918341  89.9120725  48.1859202  50.0835079
  90.7998681  48.1048347  48.8599374  90.1949470  45.2619451  49.5791944
  89.6914266  45.2249586  48.7659749  90.4880077  46.1712194  49.6388601
  92.8128968  49.3732103  46.1218679  92.0751725  48.8609489  46.4528922
  93.0655742  48.9332485  45.3101956  92.9140596  42.1508355  46.7160448
  93.2199473  41.2905718  46.4286363  93.6393201  42.7425975  46.5159442
  90.7423219  47.6132997  47.0665010  91.2391918  46.8602959  46.7466081
  89.9710200  47.6497313  46.5008220  95.2125551  52.2122003  45.1753468
  95.6786003  53.0449995  45.1013771  95.6633051  51.7466985  45.8798726
  93.1842214  44.5802590  49.2144369  92.2705293  44.8106817  49.3826576
  93.6135315  44.6641034  50.0658402  97.5414769  58.3725940  55.1852642
  97.2499577  58.7355921  56.0216103  96.9286900  57.6592949  55.0065974
  90.3682173  45.5306398  52.6188534  90.8864117  46.2667425  52.2935023
  90.0137306  45.8370392  53.4535293  90.6194768  41.9506681  48.1389431
  90.8996521  41.2829870  48.7649857  91.4045374  42.1435777  47.6264095
  94.7796919  44.1282494  47.0057401  94.5821740  43.8197582  47.8900733
  95.3896625  44.8544133  47.1355331 100.8683551  52.7954304  50.7383793
 100.1416714  52.6610269  50.1300285 100.4530838  53.1031133  51.5440511
  93.9149373  46.1191926  44.2632597  93.3348042  46.7776730  43.8810649
  93.6485305  45.2969270  43.8520014  92.3652939  45.5196983  46.4653917
  92.8652718  45.6313518  45.6568236  93.0088547  45.2158036  47.1054726
  92.6974251  48.2792016  43.3188945  91.8100106  48.5641667  43.1009140
  93.1128240  48.1185779  42.4716222  96.0488787  48.3038537  47.0343284
  96.8249177  48.7934989  47.3067901  95.3236921  48.7296591  47.4915154
  98.4861346  49.0166156  48.0917225  99.0805836  48.7761892  47.3810533
  98.5587929  48.2973287  48.7190761  96.4820080  49.5836284  44.3589355
  96.2257015  49.1832920  45.1897563  95.8572949  50.2980078  44.2339494
 100.7932418  52.3232357  46.8660646 100.2331976  52.3925546  47.6392208
 100.1875922  52.1473342  46.1460142 102.3788437  68.9988871  49.5590602
 103.0166847  68.8795618  48.8553942 102.2609280  69.9469715  49.6178554
  99.6697926  70.1051151  55.4538332  99.6586567  69.7103949  54.5818836
  99.8318566  69.3717224  56.0472104 100.6264517  74.4722743  40.7963482
  99.9752497  75.0576824  40.4097496 101.4208880  75.0028938  40.8558520
  96.3905187  72.8888263  54.4017516  96.0995053  73.7933894  54.2864182
  97.0262172  72.9304790  55.1161586 102.1039783  72.1613175  41.3332467
 101.4685616  72.2347802  42.0453371 101.7737189  72.7506774  40.6551546
 107.3338132  66.6615558  47.5376788 108.0663304  66.0914775  47.7714618
 106.5777488  66.2737159  47.9783294 104.8563553  60.3737132  51.9971397
 104.5246878  61.2432543  51.7732612 104.2609166  60.0573416  52.6765427
 101.3495072  72.5749678  51.3967310 101.0495795  73.4774717  51.2883117
 101.0046132  72.3081861  52.2488463 104.7492216  65.0932218  49.0764747
 103.8409093  65.0247627  48.7823508 104.6979812  65.5704163  49.9046573
  98.5708960  66.5690357  40.7148146  98.4508585  67.0147408  41.5533627
  97.8761548  66.9175674  40.1561684  96.3315852  79.3393999  44.3638278
  96.2539882  80.2901824  44.4426758  95.7277496  78.9939871  45.0213204
  98.8233082  66.5121864  57.0199644  98.0466416  67.0715784  57.0102509
  99.4623645  66.9978647  57.5414515 106.6153862  63.2948657  50.8542621
 105.9728243  63.5881190  50.2082416 106.1108791  63.1801577  51.6595818
 104.2694026  67.0411830  41.5428480 105.1811882  67.2739217  41.3676178
 103.7603673  67.6248874  40.9803559  97.0779454  69.3207317  56.5817611
  97.8194139  69.8592361  56.3052435  96.3716440  69.9473606  56.7389163
 102.5534794  71.4636458  55.1789773 102.9618150  71.0218868  54.4344405
 101.8312055  70.8889085  55.4323966  98.9065864  66.4009065  52.5523330
  99.7527059  66.8248478  52.6957979  98.8464502  65.7442689  53.2461893
 102.8763608  72.0237648  48.9342062 102.2472471  72.1883363  48.2318130
 102.4889271  72.4379258  49.7053026 106.7552840  72.9592086  46.2886426
 106.0703878  73.3390988  45.7383459 106.8396690  73.5687413  47.0218373
 102.0565309  64.0613433  54.2104503 101.8126241  64.8155493  53.6738779
 102.3325240  64.4398781  55.0451751 104.0103772  70.6052045  52.8881769
 104.2220667  71.2483805  52.2116150 103.9633520  69.7714362  52.4203699
 101.6130001  63.2169866  49.7918341 100.7514480  63.5151120  50.0835079
 101.6392436  63.4340265  48.8599374  95.8140818  66.4746966  57.3832921
  95.1839478  67.1563246  57.6168318  95.7076906  66.3630047  56.4386060
 105.1249600  73.4824001  51.0604126 105.9467044  73.0804188  50.7786808
 105.1212003  73.3792235  52.0120242  98.8906203  73.0308044  53.2164837
  98.9550636  73.4928451  54.0523009  98.1817127  72.4005409  53.3447147
 113.2155593  69.8262749  47.4089098 112.4619301  69.2570147  47.2533102
 113.3503134  69.7925414  48.3559733  95.0921561  60.7767731  59.7458172
  94.6988506  60.2233930  60.4205817  95.9087701  61.0878310  60.1364690
  93.8678503  75.3317346  45.7394496  94.0445131  76.2535311  45.5515479
  94.6635337  75.0175765  46.1688875  98.0089522  62.1925610  57.3378429
  98.7499235  62.7932764  57.2582892  98.2407444  61.4503248  56.7796472
  93.1530860  67.3781978  55.6156659  93.0384375  66.4767235  55.9163758
  92.2975377  67.6245674  55.2641475 100.2322697  75.3199718  57.2144159
  99.7886552  74.5336097  56.8965064 100.8939911  75.5078869  56.5488050
  94.9909819  76.8495520  51.7404838  95.5417244  76.7212583  50.9681832
  94.1521294  77.1490409  51.3899731 102.3303935  75.6002518  55.2425561
 102.3122411  76.4211399  54.7505830 103.2523855  75.4756593  55.4675702
  98.7876990  73.1146647  56.0849069  99.3205326  72.3534936  55.8548377
  98.2591071  72.8220299  56.8273223 101.9196967  68.2115324  40.1215146
 101.4043591  68.9819929  40.3603533 101.6474276  67.5380461  40.7448207
 106.8931241  70.9647679  42.0568319 106.1160684  70.6258839  41.6123481
 107.5722722  70.9700302  41.3823284 101.7083270  66.0842417  41.9474927
 101.4033406  66.3988566  42.7985070 102.6613713  66.1623836  41.9902260
 105.1322548  70.4381660  48.7134927 104.4746223  71.1280922  48.8015056
 105.9362948  70.8278092  49.0568914 103.9428007  68.7926033  46.7638869
 104.4559889  69.4256025  47.2660579 104.5929231  68.1927229  46.3982229
  98.2982302  70.0612850  36.6002854  97.3909364  69.8302104  36.7994003
  98.7953334  69.2650469  36.7876836 101.2050381  78.7710357  39.5199540
 100.5312080  79.0742054  40.1284498 101.5916203  79.5739438  39.1704997
 104.7089803  73.7732035  44.8918012 104.2552130  72.9322944  44.9483202
 104.0783770  74.4093433  45.2292792 103.1522743  75.6108531  45.8267830
 103.4445717  76.1713588  45.1080195 103.6621363  75.9037092  46.5820989
  99.1746624  71.7034189  38.4614923  98.7366054  70.9870048  38.0020560
  99.9157065  71.9310304  37.9000014  98.1156368  76.3888882  46.9161283
  98.0732547  76.6149729  45.9869815  99.0319067  76.1552257  47.0647084
 101.5622002  66.8572950  53.8141912 101.9171389  67.0844423  54.6736378
 102.2094133  67.1891327  53.1919168 107.2919738  69.9791386  44.5191241
 107.1537637  70.1692982  43.5912430 106.9355957  70.7410769  44.9759292
 107.3189118  72.0467913  49.5302513 107.7525625  71.9543202  50.3785567
 108.0320699  72.0225413  48.8922529 101.0517013  75.6470007  51.0635613
 101.1054035  76.2160943  51.8313329 100.1831794  75.8171892  50.6989650
 108.1804668  72.0891613  52.0635398 108.3740558  72.9937424  52.3094673
 108.0805286  71.6299032  52.8973983  99.8340978  61.9749504  54.5625725
  99.1868893  62.6739454  54.4690202 100.6041994  62.4085648  54.9301974
 103.2419776  72.2398356  57.6376279 103.0905283  72.0108908  56.7206362
 103.2324456  73.1968958  57.6507624 100.0105113  69.8130269  52.6222545
 100.9397173  69.9641429  52.4491513  99.5896143  69.9014290  51.7671192
  98.8093445  73.8380933  50.3921083  98.6704530  73.4699718  51.2647021
  98.0208041  74.3528573  50.2205041  99.4041596  78.9390030  41.7346619
  99.5793352  78.4678073  42.5492242  98.7174385  79.5655796  41.9627880
 103.2957851  70.5618570  38.0546980 102.6787022  69.8365399  37.9580033
 102.8274340  71.3227931  37.7114055  96.9625204  68.3350125  52.7946181
  97.6724823  67.6943318  52.7532800  96.9194512  68.5863020  53.7172362
 104.9511983  75.2717479  55.7152761 104.8924529  74.5876699  55.0483344
 105.3531501  76.0136469  55.2633387  93.9702682  82.0879393  48.5086480
  94.2099280  82.7197917  49.1865498  93.1271878  81.7367433  48.7951839
 104.9529390  73.2357063  53.9466740 104.0656169  72.8982984  54.0693139
 105.5227941  72.5040094  54.1835506  98.4830544  77.8958515  50.9127984
  98.4100715  78.7013486  51.4247288  98.0407937  78.0950481  50.0876005
  98.2720323  77.1330285  44.4230805  97.4887845  77.6751965  44.5169030
  98.9713068  77.6504265  44.8225046 109.4346731  68.6465280  48.7083302
 109.4236607  69.5289995  48.3377235 108.5664110  68.2936831  48.5137839
 100.9429227  77.7945349  53.0686142 101.6557199  78.4292814  52.9962044
 100.4519256  77.8909215  52.2526144 102.6646754  71.6996602  44.6403434
 101.7303033  71.8198064  44.4708138 102.8423423  70.7969068  44.3763444
 106.0519305  67.5413921  45.1753468 106.5179758  68.3741913  45.1013771
 106.5026806  67.0758903  45.8798726  95.9941141  75.5439792  53.8891713
  96.6950600  76.1776275  54.0421107  95.5236256  75.8854524  53.1287352
 104.1195537  73.8857742  42.1739620 104.3955380  73.7714337  43.0833494
 103.2500035  73.4875227  42.1351793 103.7942427  68.0984400  51.7144263
 103.1413877  68.3460307  51.0596716 104.1722807  67.2848538  51.3806741
 100.7549601  78.1344093  45.8172434 100.9371995  77.3165749  46.2800186
 101.5782587  78.3511785  45.3797324 101.0891766  77.0612278  43.0787482
 101.6179532  76.5504733  42.4657644 101.3519986  76.7454808  43.9433015
  99.8430000  68.8404211  58.2010300  99.1670637  68.7398340  58.8712676
 100.6657634  68.6843425  58.6646298  91.5908859  75.0776148  50.8222816
  92.1762296  74.3319835  50.9550720  91.3933697  75.3880104  51.7059480
  94.4447514  78.1127395  45.8385258  93.7757889  78.5973523  45.3549298
  94.3060384  78.3596615  46.7528637  98.5852783  80.1471138  52.4367916
  99.1371091  80.3102760  53.2017002  98.9258976  80.7375576  51.7647941
  93.0369548  64.5669421  56.6862835  93.6641587  64.1846498  57.3000360
  92.1797467  64.3483623  57.0518528 103.4363657  74.9732396  58.2916571
 103.9803561  75.5862354  57.7971526 102.8550502  75.5311974  58.8083584
 101.7221170  78.0953114  49.4231599 101.5972309  77.2942854  48.9142544
 102.3800261  78.5899307  48.9345569 103.7856078  75.8962134  51.0511149
 102.8386414  75.7767485  50.9789475 104.1338851  75.0084632  51.1337410
  96.1455652  61.7856273  54.8749391  96.6690053  62.0318570  55.6375700
  95.9267985  62.6176308  54.4552528 100.7902512  75.6914850  47.2515501
 100.6427474  74.7631558  47.4323071 101.6156005  75.7134941  46.7672576
 104.3936633  76.5143409  48.3380374 105.3183181  76.3086270  48.2004825
 104.2251937  76.2659810  49.2469715  97.3508197  62.7269968  52.5599061
  97.0105017  61.9277781  52.9619741  96.6447203  63.0271679  51.9875894
 104.1831950  77.0329076  43.6942465 104.3568827  76.4675499  42.9416318
 104.6760841  77.8329971  43.5121955 110.0371341  69.7965499  45.3132765
 110.4802487  69.0472825  44.9151888 109.1597851  69.7875636  44.9306497
 105.1707122  76.3495841  40.7939363 105.8658027  76.9702534  41.0126678
 105.5130272  75.4991192  41.0691741 107.0698545  73.7995546  42.3226694
 107.5949869  74.1382819  41.5976014 106.9820898  72.8642562  42.1389829
  98.7318594  77.7129620  54.4516571  99.0405720  77.4678767  55.3239270
  99.5294076  77.9176259  53.9635441  98.7539206  79.8667530  46.6821947
  98.3144196  79.3743908  47.3754804  99.5047323  79.3240497  46.4414023
  91.2331545  76.0579071  46.6846575  92.0589565  75.7582842  46.3045219
  90.8825597  75.2886693  47.1336364  96.2013078  75.4105539  48.7544249
  95.5793087  74.7476244  48.4546477  96.8717945  75.4366671  48.0717897
  96.2737606  63.8887327  58.3476755  96.3225761  64.7649450  57.9654525
  96.8160120  63.3464720  57.7748398 106.7592451  74.4328450  57.6277892
 105.9687995  74.4152589  57.0882392 106.5225806  74.9716744  58.3826929
 106.8790326  71.2820916  54.9410621 106.9288331  71.1170924  55.8826143
 106.7704250  70.4148175  54.5508501  95.7626585  73.9609462  42.2302710
  95.9114705  74.6444926  41.5769382  96.5693028  73.9414552  42.7452165
 104.1694089  67.2651844  56.2569927 105.0703951  67.1258309  55.9653925
 104.2442063  67.4306299  57.1968105  98.5036894  64.6418699  55.1023114
  97.6340203  64.9352265  54.8305702  98.7396374  65.2259144  55.8230377
 108.3808523  73.7017858  55.1852642 108.0893331  74.0647838  56.0216103
 107.7680654  72.9884866  55.0065974 109.5804205  71.2670738  47.7055212
 110.4151097  71.7060542  47.8692773 109.7163334  70.7909391  46.8863458
 106.6295711  68.8250473  53.6532700 107.1049833  69.0178119  52.8451552
 105.7061277  68.8809658  53.4076084 101.2075928  60.8598316  52.6188534
 101.7257872  61.5959343  52.2935023 100.8531061  61.1662309  53.4535293
  99.2621991  76.4557593  39.7014457  98.6895958  77.0747780  39.2484929
  99.8354784  77.0056954  40.2354379 105.3297380  65.7016233  51.8861006
 106.2814803  65.8014330  51.9073230 105.1600831  64.9094501  52.3959090
 103.3511760  62.7871816  52.0720407 102.7561692  63.0676829  51.3766895
 103.0661457  63.2765717  52.8437148 102.4819250  76.7394743  40.8323039
 103.4149923  76.6740304  41.0355915 102.3942463  77.5751010  40.3737572
 105.1107267  76.0560613  37.7926987 105.0320899  75.7220477  38.6862745
 105.9316934  76.5482381  37.7918459 107.8085458  68.9222352  51.0003305
 107.7761778  67.9838353  51.1862989 108.4186082  69.0006389  50.2669130
  99.6468789  67.7918405  37.0430509 100.5927894  67.6624613  37.1118928
  99.2683034  67.0533067  37.5199938 107.9579947  65.7133396  51.0461589
 107.4418995  64.9291852  50.8591517 108.8419895  65.3852112  51.2108108
 113.6262008  69.9838359  50.1409342 114.3565396  69.7223647  50.7017046
 113.0168953  69.2467081  50.1811410 111.7077305  68.1246222  50.7383793
 110.9810469  67.9902187  50.1300285 111.2924592  68.4323050  51.5440511
  99.5307482  71.8436151  58.5031166 100.4510491  72.0214750  58.6971213
  99.4957065  70.8992197  58.3510866  97.3997419  65.3270392  60.5356697
  97.2994146  66.2764749  60.4668788  97.1818961  64.9988631  59.6632767
  97.2628689  68.7567531  59.3521758  96.7795771  69.5567891  59.5585647
  97.3489629  68.7675476  58.3989202 106.8882541  63.6330455  47.0343284
 107.6642932  64.1226907  47.3067901 106.1630676  64.0588509  47.4915154
 109.3255100  64.3458074  48.0917225 109.9199591  64.1053810  47.3810533
 109.3981684  63.6265205  48.7190761  91.5452256  78.1891685  48.4060390
  91.4106724  77.4292086  47.8398388  91.1284318  78.9132585  47.9389179
 102.6811219  73.3728608  37.4136965 103.3847069  73.5778611  38.0294621
 101.9573868  73.9405370  37.6786049 103.5109029  69.1238470  43.5339235
 103.4544230  69.5807021  42.6946868 104.0637372  68.3629154  43.3562078
 107.3213835  64.9128202  44.3589355 107.0650769  64.5124837  45.1897563
 106.6966703  65.6271995  44.2339494 111.6326173  67.6524275  46.8660646
 111.0725731  67.7217464  47.6392208 111.0269676  67.4765259  46.1460142
  94.7021382  79.0861002  48.6178833  94.5853766  80.0306434  48.5157523
  93.8813828  78.7834563  49.0064632 104.5897916  73.8111138  39.4635425
 105.4243520  73.3792336  39.2812900 104.4282259  73.6393151  40.3912320
 104.2443808  70.3143251  40.8291765 104.1892612  70.1487522  39.8880209
 103.6189864  71.0219284  40.9853954 101.5589716  72.6192163  60.1545327
 102.4280875  72.7932815  59.7931962 101.0796467  73.4386580  60.0321057
  95.7275896  79.7389264  51.8334761  96.6303142  79.7712874  52.1501256
  95.5013266  78.8089715  51.8481097  97.4829498  78.4920250  48.4944840
  96.5325129  78.4922112  48.3809212  97.7861984  77.7452985  47.9780874
  93.3733814  62.6978932  58.7528201  94.2365276  62.3415737  58.9631526
  92.7999225  62.3592827  59.4403605 113.2182191  84.3280789  49.5590602
 113.8560601  84.2087536  48.8553942 113.1003034  85.2761633  49.6178554
 110.0271898  84.2808217  49.4952127 109.6890409  84.1649282  48.6072661
 110.8961666  83.8799382  49.4753133 105.8858713  86.1343693  45.4849018
 105.3223578  86.0433630  44.7165305 105.7711108  85.3143598  45.9651510
 110.5091681  85.4343069  55.4538332 110.4980321  85.0395867  54.5818836
 110.6712320  84.7009141  56.0472104 103.4323145  87.6294885  48.3233238
 104.2244437  87.2885709  47.9079537 103.6719795  87.7389860  49.2435391
 111.4658272  89.8014661  40.7963482 110.8146252  90.3868741  40.4097496
 112.2602635  90.3320856  40.8558520 105.3913899  86.8903798  41.1950617
 106.1644775  86.3432785  41.0563493 105.7439298  87.7548047  41.4065078
 107.2298942  88.2180180  54.4017516 106.9388808  89.1225811  54.2864182
 107.8655926  88.2596708  55.1161586 108.1555149  85.5957029  50.9918876
 108.7518721  85.3713051  50.2775839 108.2130120  84.8541774  51.5944324
 107.7280177  83.0496464  38.8269067 107.9805698  82.5277985  38.0652530
 106.7904736  82.8862610  38.9295750 112.7723460  82.0532243  46.6343810
 113.5586549  81.6351666  46.2834227 113.0362164  82.9578335  46.8025458
 112.9433537  87.4905093  41.3332467 112.3079370  87.5639719  42.0453371
 112.6130944  88.0798692  40.6551546 118.1731887  81.9907476  47.5376788
 118.9057059  81.4206693  47.7714618 117.4171243  81.6029076  47.9783294
 107.4476466  84.9524570  41.0293442 107.3312724  84.2769474  41.6974526
 107.5578726  84.4656944  40.2125595 109.7908007  84.4134717  44.7340131
 109.4266214  83.8865338  45.4453052 110.6475123  84.0233186  44.5606616
 115.6957307  75.7029050  51.9971397 115.3640632  76.5724461  51.7732612
 115.1002921  75.3865334  52.6765427 109.4313494  79.4424617  39.7301479
 109.5987896  80.3104853  40.0971951 109.2410663  79.6051899  38.8062769
 112.1888827  87.9041596  51.3967310 111.8889550  88.8066635  51.2883117
 111.8439886  87.6373779  52.2488463 105.6401308  84.3555393  47.4304014
 104.7151805  84.2231607  47.6381706 105.8885721  85.1349612  47.9273957
 115.5885971  80.4224136  49.0764747 114.6802848  80.3539544  48.7823508
 115.5373566  80.8996081  49.9046573 109.4102714  81.8982274  40.7148146
 109.2902340  82.3439325  41.5533627 108.7155303  82.2467592  40.1561684
 103.0010119  83.9988666  48.2647803 103.1302500  84.2523145  49.1787215
 102.3207571  84.5916374  47.9452458 107.1709607  94.6685916  44.3638278
 107.0933636  95.6193741  44.4426758 106.5671250  94.3231789  45.0213204
 109.6626836  81.8413782  57.0199644 108.8860170  82.4007702  57.0102509
 110.3017399  82.3270565  57.5414515 117.4547617  78.6240574  50.8542621
 116.8121997  78.9173108  50.2082416 116.9502545  78.5093495  51.6595818
 115.1087781  82.3703748  41.5428480 116.0205637  82.6031134  41.3676178
 114.5997428  82.9540792  40.9803559 107.9173209  84.6499235  56.5817611
 108.6587893  85.1884279  56.3052435 107.2110194  85.2765524  56.7389163
 113.3928548  86.7928375  55.1789773 113.8011904  86.3510786  54.4344405
 112.6705810  86.2181003  55.4323966 109.7459618  81.7300982  52.5523330
 110.5920814  82.1540396  52.6957979 109.6858256  81.0734607  53.2461893
 113.7157363  87.3529566  48.9342062 113.0866225  87.5175280  48.2318130
 113.3283025  87.7671176  49.7053026 117.5946595  88.2884004  46.2886426
 116.9097633  88.6682905  45.7383459 117.6790444  88.8979331  47.0218373
 112.8959064  79.3905351  54.2104503 112.6519996  80.1447411  53.6738779
 113.1718994  79.7690698  55.0451751 114.8497526  85.9343963  52.8881769
 115.0614422  86.5775723  52.2116150 114.8027275  85.1006280  52.4203699
 112.4523755  78.5461784  49.7918341 111.5908234  78.8443037  50.0835079
 112.4786190  78.7632183  48.8599374 109.2685325  87.0903974  46.1992147
 109.7323670  87.3691677  45.4096769 109.0042123  86.1887419  46.0165238
 106.1609406  86.6375456  49.1371910 106.7310763  87.0662724  48.4989395
 106.7517518  86.3558040  49.8356096 108.2054211  83.2127127  43.0081712
 108.9078254  83.6648170  43.4755638 107.8734839  82.5710945  43.6361605
 106.6534572  81.8038883  57.3832921 106.0233233  82.4855164  57.6168318
 106.5470660  81.6921965  56.4386060 101.9479545  81.4710679  48.3098846
 101.1578599  81.7268208  47.8338956 102.4390792  82.2859017  48.4150886
 115.9643354  88.8115918  51.0604126 116.7860798  88.4096106  50.7786808
 115.9605757  88.7084153  52.0120242 103.8994290  81.8355258  45.2682322
 103.1025453  81.9473953  45.7865818 103.6719882  82.1741911  44.4023213
 109.7299958  88.3599962  53.2164837 109.7944390  88.8220369  54.0523009
 109.0210882  87.7297327  53.3447147 100.2317248  81.7241170  50.7413836
 100.4825286  82.6088180  51.0071412 100.7676796  81.5445771  49.9688928
 109.4447975  90.0268069  43.0843817 109.3093650  90.8719605  43.5128665
 109.9857788  90.2287347  42.3209751 105.9315315  76.1059649  59.7458172
 105.5382261  75.5525848  60.4205817 106.7481455  76.4170228  60.1364690
 102.8977373  87.5443507  43.6571742 103.4101893  88.3386757  43.8077307
 103.5500086  86.8469798  43.5905344 104.7072258  90.6609264  45.7394496
 104.8838886  91.5827228  45.5515479 105.5029091  90.3467683  46.1688875
 108.8483276  77.5217528  57.3378429 109.5892989  78.1224681  57.2582892
 109.0801199  76.7795166  56.7796472 103.9924614  82.7073895  55.6156659
 103.8778129  81.8059153  55.9163758 103.1369132  82.9537592  55.2641475
 111.0716452  90.6491636  57.2144159 110.6280306  89.8628014  56.8965064
 111.7333665  90.8370786  56.5488050 105.8303573  92.1787437  51.7404838
 106.3810998  92.0504501  50.9681832 104.9915049  92.4782326  51.3899731
 113.1697690  90.9294436  55.2425561 113.1516165  91.7503317  54.7505830
 114.0917610  90.8048511  55.4675702 109.6270744  88.4438565  56.0849069
 110.1599081  87.6826853  55.8548377 109.0984825  88.1512217  56.8273223
 112.7940439  73.5498631  51.6142711 112.4504708  74.4400273  51.5381821
 113.1619402  73.3600289  50.7512296 100.8626290  85.8732162  44.4331313
 101.7001512  86.2829170  44.2165021 101.0404557  84.9331604  44.4031507
 112.7590722  83.5407242  40.1215146 112.2437345  84.3111847  40.3603533
 112.4868030  82.8672378  40.7448207 110.3437833  78.3856943  45.1800384
 109.4879429  77.9963793  45.0006023 110.7564785  78.4648904  44.3200170
 111.8736979  75.9203286  49.5791944 111.3701775  75.8833421  48.7659749
 112.1667586  76.8296029  49.6388601 108.1179865  76.0042016  48.5858126
 108.9832862  75.8084825  48.2264015 108.1857374  75.7752368  49.5127482
 117.7324996  86.2939597  42.0568319 116.9554439  85.9550756  41.6123481
 118.4116477  86.2992220  41.3823284 112.5477025  81.4134334  41.9474927
 112.2427161  81.7280483  42.7985070 113.5007467  81.4915754  41.9902260
 110.9923457  87.5724558  43.5967881 110.4644818  86.8377317  43.2841118
 110.4910960  88.3499234  43.3507849 115.9716303  85.7673578  48.7134927
 115.3139977  86.4572839  48.8015056 116.7756702  86.1570010  49.0568914
 105.7242184  78.2344224  45.9574493 106.2985936  78.0119405  45.2247685
 106.3113167  78.3032918  46.7103094 114.7821762  84.1217951  46.7638869
 115.2953643  84.7547943  47.2660579 115.4322985  83.5219146  46.3982229
 106.0511771  80.2648685  39.9770378 105.2149084  80.6023371  40.2979652
 105.9116541  80.1297665  39.0397515 108.0264852  75.1085473  44.6849562
 107.3729264  74.7934490  44.0606177 107.9845326  74.4861213  45.4109385
 109.1376057  85.3904768  36.6002854 108.2303119  85.1594021  36.7994003
 109.6347089  84.5942387  36.7876836 112.0444136  94.1002275  39.5199540
 111.3705835  94.4033972  40.1284498 112.4309958  94.9031355  39.1704997
 111.2602592  81.5967406  49.0097210 110.3425154  81.8182353  48.8518898
 111.6762736  81.6713717  48.1508917 112.0437640  82.9958822  44.1399890
 112.7909459  83.5080219  43.8307012 112.3129230  82.6742875  45.0004283
 110.3164290  85.4917363  41.1226844 109.4075510  85.2076396  41.2199314
 110.3459374  85.9116441  40.2630151 115.5483558  89.1023952  44.8918012
 115.0945885  88.2614862  44.9483202 114.9177525  89.7385351  45.2292792
 114.4916477  80.0315938  46.1218679 113.7539234  79.5193324  46.4528922
 114.7443251  79.5916320  45.3101956 113.9916497  90.9400449  45.8267830
 114.2839471  91.5005506  45.1080195 114.5015118  91.2329010  46.5820989
 114.5928105  72.8092190  46.7160448 114.8986982  71.9489554  46.4286363
 115.3180710  73.4009810  46.5159442 100.8852461  83.2122877  45.1042046
 100.6876861  82.6192238  44.3793113 100.3299125  82.9075087  45.8217985
 108.8649184  83.1045983  47.2236639 108.9197794  82.1519820  47.1479116
 108.0540386  83.2605422  47.7077938 110.0140378  87.0326106  38.4614923
 109.5759808  86.3161965  38.0020560 110.7550819  87.2602221  37.9000014
 106.8041544  81.7223043  44.9827018 105.9909410  82.0217214  45.3892210
 107.3000539  81.3278732  45.7001501 108.9550122  91.7180800  46.9161283
 108.9126301  91.9441646  45.9869815 109.8712821  91.4844175  47.0647084
 112.4015756  82.1864868  53.8141912 112.7565144  82.4136341  54.6736378
 113.0487887  82.5183244  53.1919168 118.1313493  85.3083303  44.5191241
 117.9931392  85.4984899  43.5912430 117.7749712  86.0702686  44.9759292
 106.2955619  79.2941399  50.5988253 106.9354998  79.1530158  49.9011217
 105.4633150  79.0075912  50.2226855 118.1582873  87.3759830  49.5302513
 118.5919379  87.2835120  50.3785567 118.8714453  87.3517331  48.8922529
 107.0715923  88.5943829  46.7123246 107.8656522  88.0994149  46.5105821
 106.3607615  88.0661692  46.3490951 111.8910767  90.9761925  51.0635613
 111.9447790  91.5452861  51.8313329 111.0225549  91.1463810  50.6989650
 103.3798686  82.7386911  42.7882998 102.4496275  82.6771366  43.0052961
 103.4756158  82.2162864  41.9919640 103.2984236  79.2641724  45.3761240
 103.5591053  80.1787057  45.2670401 104.1201408  78.7966166  45.5257853
 104.7709161  80.6779481  52.5460065 105.4432214  80.4696843  51.8972714
 103.9438947  80.4801567  52.1065297 119.0198422  87.4183531  52.0635398
 119.2134312  88.3229342  52.3094673 118.9199040  86.9590950  52.8973983
 110.6734733  77.3041422  54.5625725 110.0262648  78.0031371  54.4690202
 111.4435748  77.7377566  54.9301974 114.0813531  87.5690274  57.6376279
 113.9299037  87.3400826  56.7206362 114.0718210  88.5260875  57.6507624
 110.8498867  85.1422187  52.6222545 111.7790927  85.2933346  52.4491513
 110.4289897  85.2306207  51.7671192 109.6487199  89.1672851  50.3921083
 109.5098285  88.7991635  51.2647021 108.8601795  89.6820490  50.2205041
 110.2435351  94.2681947  41.7346619 110.4187107  93.7969991  42.5492242
 109.5568139  94.8947714  41.9627880 111.1992414  88.5454454  47.7809921
 110.8642247  88.5055224  48.6767571 110.6996360  87.8799170  47.3080331
 105.1736658  83.9522084  53.3062502 105.0356456  83.2202323  53.9074041
 106.0841582  83.8630984  53.0246690 114.1351606  85.8910488  38.0546980
 113.5180776  85.1657316  37.9580033 113.6668094  86.6519848  37.7114055
 107.8018959  83.6642043  52.7946181 108.5118577  83.0235235  52.7532800
 107.7588267  83.9154938  53.7172362 115.7905737  90.6009396  55.7152761
 115.7318284  89.9168617  55.0483344 116.1925256  91.3428386  55.2633387
 106.5147893  80.6507261  54.6141821 105.9785250  80.1997999  55.2663417
 105.9264601  80.7853170  53.8712285 104.8096436  97.4171310  48.5086480
 105.0493035  98.0489834  49.1865498 103.9665633  97.0659350  48.7951839
 105.9250152  80.1095912  37.1768285 105.0479618  79.9884713  36.8130531
 106.4007905  79.3181991  36.9247173 115.7923145  88.5648980  53.9466740
 114.9049924  88.2274902  54.0693139 116.3621696  87.8332012  54.1835506
  97.4452292  84.8973072  47.2709792  98.1323332  84.5834802  46.6830807
  97.2900421  85.8014437  46.9977043 102.2487014  79.7863269  51.6994815
 102.1645203  79.1788938  50.9645225 101.4269720  80.2772287  51.7004312
 109.3224298  93.2250433  50.9127984 109.2494470  94.0305404  51.4247288
 108.8801691  93.4242398  50.0876005 109.1114078  92.4622203  44.4230805
 108.3281600  93.0043883  44.5169030 109.8106823  92.9796182  44.8225046
 112.4210728  78.2716832  47.0665010 112.9179427  77.5186794  46.7466081
 111.6497709  78.3081149  46.5008220 120.2740485  83.9757198  48.7083302
 120.2630362  84.8581913  48.3377235 119.4057865  83.6228749  48.5137839
 111.7822982  93.1237267  53.0686142 112.4950954  93.7584732  52.9962044
 111.2913010  93.2201133  52.2526144 113.5040509  87.0288519  44.6403434
 112.5696787  87.1489982  44.4708138 113.6817177  86.1260986  44.3763444
 109.0045697  80.4134215  46.7936695 108.6343484  79.8605256  47.4817601
 109.5004789  79.8092349  46.2411695 116.8913060  82.8705839  45.1753468
 117.3573512  83.7033830  45.1013771 117.3420560  82.4050820  45.8798726
 106.8334895  90.8731710  53.8891713 107.5344355  91.5068193  54.0421107
 106.3630010  91.2146442  53.1287352 114.9589291  89.2149660  42.1739620
 115.2349135  89.1006255  43.0833494 114.0893790  88.8167145  42.1351793
 114.8629723  75.2386426  49.2144369 113.9492802  75.4690652  49.3826576
 115.2922824  75.3224870  50.0658402 114.6336181  83.4276318  51.7144263
 113.9807631  83.6752225  51.0596716 115.0116561  82.6140456  51.3806741
 111.5943355  93.4636011  45.8172434 111.7765750  92.6457667  46.2800186
 112.4176341  93.6803703  45.3797324 111.9285521  92.3904196  43.0787482
 112.4573287  91.8796651  42.4657644 112.1913740  92.0746726  43.9433015
 110.6823754  84.1696129  58.2010300 110.0064391  84.0690258  58.8712676
 111.5051388  84.0135342  58.6646298 102.4302613  90.4068065  50.8222816
 103.0156050  89.6611753  50.9550720 102.2327452  90.7172022  51.7059480
 105.2841268  93.4419313  45.8385258 104.6151644  93.9265440  45.3549298
 105.1454138  93.6888533  46.7528637  97.0220268  82.9773665  49.5427259
  97.0604368  82.4437256  50.3364377  96.5160561  82.4508871  48.9238236
 109.4246537  95.4763056  52.4367916 109.9764845  95.6394678  53.2017002
 109.7652731  96.0667494  51.7647941 104.4011030  77.8238206  53.0389801
 104.4652357  78.6853037  52.6267199 104.3378151  77.2112208  52.3062160
 103.8763303  79.8961338  56.6862835 104.5035342  79.5138416  57.3000360
 103.0191222  79.6775540  57.0518528 114.2757411  90.3024314  58.2916571
 114.8197315  90.9154272  57.7971526 113.6944256  90.8603892  58.8083584
 100.6528846  81.7037768  42.6181190 100.9482287  80.7948446  42.5648244
  99.7516881  81.6825507  42.2962193 112.5614924  93.4245032  49.4231599
 112.4366064  92.6234771  48.9142544 113.2194015  93.9191225  48.9345569
 104.1823093  79.7793764  48.6008739 103.4609678  80.3929732  48.4616212
 104.9716348  80.3151529  48.5225385 114.6249833  91.2254052  51.0511149
 113.6780168  91.1059403  50.9789475 114.9732606  90.3376550  51.1337410
 106.9849406  77.1148191  54.8749391 107.5083808  77.3610487  55.6375700
 106.7661739  77.9468225  54.4552528 102.3816687  79.3851865  42.7420515
 102.0529393  78.5049244  42.5595621 102.7356058  79.3299534  43.6296905
 111.6296266  91.0206768  47.2515501 111.4821228  90.0923475  47.4323071
 112.4549760  91.0426859  46.7672576 105.4958510  79.6724835  43.1095993
 105.8354583  80.2010756  42.3874601 105.9430631  80.0105241  43.8854560
 115.2330388  91.8435327  48.3380374 116.1576935  91.6378188  48.2004825
 115.0645691  91.5951728  49.2469715 108.1901951  78.0561886  52.5599061
 107.8498771  77.2569699  52.9619741 107.4840957  78.3563597  51.9875894
 108.8418423  75.1411198  51.0126384 109.6644492  74.6671676  50.8905274
 109.0856486  75.9201682  51.5125070 107.4826657  78.1699457  41.3089286
 108.2035020  78.5480709  40.8053003 106.8591962  78.8888333  41.4124264
 111.6257780  78.8744606  42.2447618 111.8421395  79.7569243  41.9436446
 111.1451847  78.4830819  41.5153260 106.3657002  81.8330319  48.8218363
 106.2201582  82.1470622  49.7142644 105.8882205  82.4515219  48.2689261
 108.2253385  78.8232867  48.8699252 108.2114953  77.9273960  48.5331550
 108.9425813  78.8303531  49.5037538 110.0779515  79.2570207  50.9152380
 109.8197293  80.1787278  50.9136710 109.5464556  78.8600642  51.6052844
 115.0225704  92.3620994  43.6942465 115.1962582  91.7967417  42.9416318
 115.5154595  93.1621889  43.5121955 100.8402664  84.3735663  51.7606024
 100.2956132  85.1495471  51.8926298 101.7182014  84.7206468  51.6025145
 107.6290281  77.7047247  44.1386822 107.7506192  76.7763893  44.3377710
 107.3392323  77.7185933  43.2265138 110.4981471  75.3902158  47.2753542
 110.5203168  75.4541491  46.3205522 110.9149530  74.5506666  47.4694048
 120.8765095  85.1257417  45.3132765 121.3196241  84.3764742  44.9151888
 119.9991606  85.1167553  44.9306497 116.0100877  91.6787759  40.7939363
 116.7051781  92.2994451  41.0126678 116.3524027  90.8283110  41.0691741
 101.6268686  83.5005559  54.6536181 100.8850422  83.6488195  55.2400811
 101.3061430  83.7613825  53.7902930 117.9092300  89.1287464  42.3226694
 118.4343624  89.4674737  41.5976014 117.8214652  88.1934479  42.1389829
 109.5712348  93.0421538  54.4516571 109.8799475  92.7970684  55.3239270
 110.3687830  93.2468176  53.9635441 109.5932960  95.1959447  46.6821947
 109.1537951  94.7035826  47.3754804 110.3441077  94.6532415  46.4414023
 102.0725299  91.3870988  46.6846575 102.8983319  91.0874760  46.3045219
 101.7219351  90.6178611  47.1336364 107.0406833  90.7397456  48.7544249
 106.4186842  90.0768161  48.4546477 107.7111699  90.7658588  48.0717897
 100.2733904  89.3057315  47.6435509  99.4365813  88.8779489  47.4619510
 100.2457550  89.4989758  48.5806300 107.1131360  79.2179244  58.3476755
 107.1619516  80.0941367  57.9654525 107.6553874  78.6756638  57.7748398
 117.5986206  89.7620368  57.6277892 116.8081749  89.7444507  57.0882392
 117.3619560  90.3008661  58.3826929 117.7184081  86.6112834  54.9410621
 117.7682086  86.4462842  55.8826143 117.6098004  85.7440093  54.5508501
 106.6020339  89.2901380  42.2302710 106.7508460  89.9736844  41.5769382
 107.4086783  89.2706470  42.7452165 115.0087843  82.5943762  56.2569927
 115.9097706  82.4550227  55.9653925 115.0835818  82.7598217  57.1968105
 109.3430649  79.9710617  55.1023114 108.4733958  80.2644183  54.8305702
 109.5790129  80.5551062  55.8230377 119.2202278  89.0309776  55.1852642
 118.9287086  89.3939756  56.0216103 118.6074409  88.3176784  55.0065974
 120.4197960  86.5962655  47.7055212 121.2544851  87.0352459  47.8692773
 120.5557089  86.1201309  46.8863458 117.4689466  84.1542390  53.6532700
 117.9443587  84.3470037  52.8451552 116.5455031  84.2101576  53.4076084
 104.3572972  85.3166557  43.2363778 104.1119014  84.4128887  43.4343989
 104.5268887  85.3183708  42.2943256 112.0469682  76.1890234  52.6188534
 112.5651626  76.9251261  52.2935023 111.6924815  76.4954227  53.4535293
 103.6268620  81.0494915  40.7349940 102.9337865  81.1239270  40.0789976
 103.3820372  80.2855259  41.2571457 112.2982277  72.6090516  48.1389431
 112.5784030  71.9413705  48.7649857 113.0832883  72.8019612  47.6264095
 110.1015745  91.7849510  39.7014457 109.5289712  92.4039697  39.2484929
 110.6748539  92.3348872  40.2354379 116.1691135  81.0308150  51.8861006
 117.1208558  81.1306248  51.9073230 115.9994585  80.2386419  52.3959090
 114.1905514  78.1163734  52.0720407 113.5955446  78.3968746  51.3766895
 113.9055211  78.6057634  52.8437148 113.3213005  92.0686660  40.8323039
 114.2543678  92.0032222  41.0355915 113.2336218  92.9042927  40.3737572
 115.9501021  91.3852531  37.7926987 115.8714653  91.0512394  38.6862745
 116.7710688  91.8774299  37.7918459 118.6479213  84.2514270  51.0003305
 118.6155533  83.3130271  51.1862989 119.2579836  84.3298307  50.2669130
 110.4862544  83.1210323  37.0430509 111.4321648  82.9916531  37.1118928
 110.1076788  82.3824985  37.5199938 118.7973701  81.0425313  51.0461589
 118.2812750  80.2583770  50.8591517 119.6813650  80.7144030  51.2108108
 116.4584428  74.7866329  47.0057401 116.2609249  74.4781417  47.8900733
 117.0684134  75.5127968  47.1355331 110.3701236  87.1728069  58.5031166
 111.2904246  87.3506668  58.6971213 110.3350819  86.2284114  58.3510866
 108.6705461  81.0460299  36.9785395 107.7636916  80.7493412  37.0548108
 108.9481442  80.7490117  36.1119681  99.5883401  82.3666663  47.4284441
  99.2686185  81.5131971  47.1358815  99.0416829  82.5815241  48.1842408
 103.3663309  85.0829104  51.1453948 103.5849318  86.0146212  51.1641981
 103.7789082  84.7237078  51.9308751 110.2867526  75.5897189  43.1329636
 109.4768255  75.2444274  43.5084882 110.9751943  75.2804733  43.7217248
 112.2158075  74.6675236  44.7553933 112.7689113  75.0870689  45.4143956
 112.4528161  73.7410984  44.7976889 108.2391174  80.6562310  60.5356697
 108.1387901  81.6056666  60.4668788 108.0212716  80.3280548  59.6632767
 107.4404245  77.9047235  37.1197374 108.3023409  78.2302133  37.3793191
 107.6254589  77.1178730  36.6070440  99.4571661  85.9869574  49.3977563
  98.7635132  85.5723527  48.8847517 100.2044652  86.0290111  48.8010982
 115.5936882  76.7775761  44.2632597 115.0135551  77.4360565  43.8810649
 115.3272814  75.9553106  43.8520014 114.0440448  76.1780819  46.4653917
 114.5440226  76.2897353  45.6568236 114.6876056  75.8741872  47.1054726
 108.1022444  84.0859448  59.3521758 107.6189526  84.8859808  59.5585647
 108.1883383  84.0967393  58.3989202 101.3708404  85.9187828  47.2743578
 101.3479092  86.0175515  46.3225461 101.6809040  86.7652979  47.5960744
 104.0295781  87.9763983  51.3890192 104.9839035  87.9447925  51.3220124
 103.8308305  87.5154607  52.2040418 104.6195164  86.5465099  53.9560990
 105.4388053  87.0409178  53.9795827 104.8931971  85.6297067  53.9278557
 114.3761760  78.9375851  43.3188945 113.4887615  79.2225502  43.1009140
 114.7915749  78.7769615  42.4716222 117.7276296  78.9622372  47.0343284
 118.5036686  79.4518825  47.3067901 117.0024430  79.3880427  47.4915154
 120.1648855  79.6749992  48.0917225 120.7593345  79.4345728  47.3810533
 120.2375438  78.9557122  48.7190761 102.3846010  93.5183603  48.4060390
 102.2500478  92.7584003  47.8398388 101.9678073  94.2424502  47.9389179
 113.5204973  88.7020526  37.4136965 114.2240823  88.9070529  38.0294621
 112.7967622  89.2697288  37.6786049 114.3502784  84.4530387  43.5339235
 114.2937985  84.9098939  42.6946868 114.9031126  83.6921072  43.3562078
 118.1607589  80.2420119  44.3589355 117.9044524  79.8416755  45.1897563
 117.5360457  80.9563913  44.2339494 122.4719927  82.9816192  46.8660646
 121.9119485  83.0509382  47.6392208 121.8663431  82.8057177  46.1460142
 105.5415136  94.4152920  48.6178833 105.4247520  95.3598352  48.5157523
 104.7207582  94.1126481  49.0064632 115.4291671  89.1403055  39.4635425
 116.2637275  88.7084254  39.2812900 115.2676014  88.9685069  40.3912320
 115.0837563  85.6435169  40.8291765 115.0286367  85.4779440  39.8880209
 114.4583618  86.3511202  40.9853954  99.8730078  80.8803233  54.6553187
 100.5188941  80.3702187  55.1440412  99.6647229  81.6171915  55.2296612
 112.3983470  87.9484080  60.1545327 113.2674630  88.1224733  59.7931962
 111.9190221  88.7678497  60.0321057 108.3933688  75.1443278  40.4077083
 108.3812358  76.0885118  40.5645354 109.2857110  74.9613423  40.1136544
 106.5669650  95.0681181  51.8334761 107.4696897  95.1004792  52.1501256
 106.3407020  94.1381632  51.8481097 108.3223252  93.8212168  48.4944840
 107.3718883  93.8214030  48.3809212 108.6255738  93.0744903  47.9780874
 112.2085808  71.7386054  44.6623020 111.4418204  71.1844541  44.8079702
 112.6196513  71.8107923  45.5237171 104.2127569  78.0270850  58.7528201
 105.0759030  77.6707655  58.9631526 103.6392979  77.6884745  59.4403605
 120.8665652  99.6100135  49.4952127 120.5284164  99.4941199  48.6072661
 121.7355420  99.2091300  49.4753133 116.7252468 101.4635611  45.4849018
 116.1617333 101.3725548  44.7165305 116.6104863 100.6435515  45.9651510
 121.3485435 100.7634986  55.4538332 121.3374076 100.3687785  54.5818836
 121.5106075 100.0301059  56.0472104 114.2716900 102.9586803  48.3233238
 115.0638192 102.6177627  47.9079537 114.5113550 103.0681778  49.2435391
 116.2307654 102.2195716  41.1950617 117.0038530 101.6724703  41.0563493
 116.5833052 103.0839965  41.4065078 118.0692696 103.5472098  54.4017516
 117.7782562 104.4517729  54.2864182 118.7049681 103.5888626  55.1161586
 118.9948903 100.9248947  50.9918876 119.5912475 100.7004969  50.2775839
 119.0523875 100.1833692  51.5944324 118.5673931  98.3788382  38.8269067
 118.8199452  97.8569903  38.0652530 117.6298491  98.2154527  38.9295750
 118.2870220 100.2816488  41.0293442 118.1706478  99.6061391  41.6974526
 118.3972480  99.7948862  40.2125595 120.6301761  99.7426635  44.7340131
 120.2659968  99.2157256  45.4453052 121.4868877  99.3525104  44.5606616
 120.2707248  94.7716535  39.7301479 120.4381650  95.6396771  40.0971951
 120.0804417  94.9343816  38.8062769 116.4795063  99.6847310  47.4304014
 115.5545559  99.5523525  47.6381706 116.7279476 100.4641530  47.9273957
 120.2496469  97.2274192  40.7148146 120.1296094  97.6731243  41.5533627
 119.5549057  97.5759510  40.1561684 113.8403874  99.3280584  48.2647803
 113.9696255  99.5815063  49.1787215 113.1601325  99.9208292  47.9452458
 120.5020591  97.1705699  57.0199644 119.7253925  97.7299619  57.0102509
 121.1411154  97.6562482  57.5414515 118.7566963  99.9791153  56.5817611
 119.4981648 100.5176197  56.3052435 118.0503949 100.6057441  56.7389163
 120.5853373  97.0592900  52.5523330 121.4314568  97.4832313  52.6957979
 120.5252010  96.4026524  53.2461893 120.1079079 102.4195892  46.1992147
 120.5717425 102.6983595  45.4096769 119.8435877 101.5179336  46.0165238
 117.0003160 101.9667373  49.1371910 117.5704517 102.3954642  48.4989395
 117.5911272 101.6849958  49.8356096 119.0447965  98.5419044  43.0081712
 119.7472009  98.9940088  43.4755638 118.7128594  97.9002863  43.6361605
 117.4928327  97.1330801  57.3832921 116.8626987  97.8147082  57.6168318
 117.3864415  97.0213882  56.4386060 112.7873299  96.8002597  48.3098846
 111.9972353  97.0560125  47.8338956 113.2784547  97.6150935  48.4150886
 114.7388045  97.1647176  45.2682322 113.9419208  97.2765870  45.7865818
 114.5113637  97.5033828  44.4023213 120.5693712 103.6891879  53.2164837
 120.6338145 104.1512287  54.0523009 119.8604636 103.0589244  53.3447147
 111.0711002  97.0533087  50.7413836 111.3219041  97.9380097  51.0071412
 111.6070551  96.8737689  49.9688928 120.2841730 105.3559987  43.0843817
 120.1487405 106.2011523  43.5128665 120.8251542 105.5579265  42.3209751
 116.7709070  91.4351567  59.7458172 116.3776015  90.8817765  60.4205817
 117.5875210  91.7462145  60.1364690 113.7371127 102.8735425  43.6571742
 114.2495648 103.6678675  43.8077307 114.3893840 102.1761715  43.5905344
 115.5466012 105.9901181  45.7394496 115.7232640 106.9119146  45.5515479
 116.3422846 105.6759600  46.1688875 119.6877031  92.8509446  57.3378429
 120.4286744  93.4516599  57.2582892 119.9194953  92.1087084  56.7796472
 114.8318369  98.0365813  55.6156659 114.7171884  97.1351070  55.9163758
 113.9762886  98.2829510  55.2641475 116.6697328 107.5079355  51.7404838
 117.2204753 107.3796418  50.9681832 115.8308803 107.8074244  51.3899731
 120.4664499 103.7730483  56.0849069 120.9992835 103.0118771  55.8548377
 119.9378580 103.4804135  56.8273223 111.7020044 101.2024079  44.4331313
 112.5395266 101.6121088  44.2165021 111.8798312 100.2623521  44.4031507
 121.1831587  93.7148861  45.1800384 120.3273184  93.3255711  45.0006023
 121.5958539  93.7940821  44.3200170 118.9573620  91.3333934  48.5858126
 119.8226617  91.1376742  48.2264015 119.0251129  91.1044285  49.5127482
 121.8317211 102.9016475  43.5967881 121.3038573 102.1669235  43.2841118
 121.3304714 103.6791152  43.3507849 116.5635939  93.5636142  45.9574493
 117.1379691  93.3411323  45.2247685 117.1506921  93.6324836  46.7103094
 116.8905526  95.5940603  39.9770378 116.0542838  95.9315289  40.2979652
 116.7510296  95.4589582  39.0397515 118.8658607  90.4377390  44.6849562
 118.2123019  90.1226408  44.0606177 118.8239081  89.8153131  45.4109385
 119.9769811 100.7196686  36.6002854 119.0696873 100.4885939  36.7994003
 120.4740843  99.9234305  36.7876836 121.1558045 100.8209280  41.1226844
 120.2469264 100.5368313  41.2199314 121.1853129 101.2408359  40.2630151
 111.7246215  98.5414795  45.1042046 111.5270615  97.9484155  44.3793113
 111.1692879  98.2367005  45.8217985 119.7042939  98.4337901  47.2236639
 119.7591549  97.4811737  47.1479116 118.8934141  98.5897340  47.7077938
 120.8534133 102.3618024  38.4614923 120.4153563 101.6453883  38.0020560
 121.5944574 102.5894139  37.9000014 117.6435299  97.0514961  44.9827018
 116.8303164  97.3509131  45.3892210 118.1394293  96.6570650  45.7001501
 117.1349374  94.6233316  50.5988253 117.7748753  94.4822075  49.9011217
 116.3026904  94.3367830  50.2226855 117.9109678 103.9235747  46.7123246
 118.7050276 103.4286067  46.5105821 117.2001370 103.3953610  46.3490951
 114.2192441  98.0678828  42.7882998 113.2890029  98.0063284  43.0052961
 114.3149913  97.5454781  41.9919640 114.1377990  94.5933641  45.3761240
 114.3984807  95.5078975  45.2670401 114.9595162  94.1258084  45.5257853
 115.6102915  96.0071398  52.5460065 116.2825969  95.7988761  51.8972714
 114.7832702  95.8093484  52.1065297 121.5128487  92.6333339  54.5625725
 120.8656402  93.3323289  54.4690202 122.2829503  93.0669483  54.9301974
 120.4880954 104.4964769  50.3921083 120.3492039 104.1283553  51.2647021
 119.6995550 105.0112408  50.2205041 122.0386169 103.8746371  47.7809921
 121.7036001 103.8347141  48.6767571 121.5390114 103.2091087  47.3080331
 116.0130413  99.2814001  53.3062502 115.8750211  98.5494240  53.9074041
 116.9235336  99.1922902  53.0246690 118.6412713  98.9933961  52.7946181
 119.3512332  98.3527153  52.7532800 118.5982021  99.2446856  53.7172362
 117.3541647  95.9799179  54.6141821 116.8179004  95.5289917  55.2663417
 116.7658356  96.1145087  53.8712285 116.7643906  95.4387830  37.1768285
 115.8873373  95.3176631  36.8130531 117.2401659  94.6473908  36.9247173
 108.2846046 100.2264990  47.2709792 108.9717086  99.9126720  46.6830807
 108.1294175 101.1306354  46.9977043 113.0880768  95.1155186  51.6994815
 113.0038957  94.5080856  50.9645225 112.2663475  95.6064205  51.7004312
 119.8439451  95.7426133  46.7936695 119.4737239  95.1897173  47.4817601
 120.3398544  95.1384266  46.2411695 117.6728650 106.2023628  53.8891713
 118.3738109 106.8360111  54.0421107 117.2023765 106.5438359  53.1287352
 121.5217509  99.4988046  58.2010300 120.8458146  99.3982176  58.8712676
 122.3445143  99.3427260  58.6646298 113.2696368 105.7359983  50.8222816
 113.8549805 104.9903671  50.9550720 113.0721206 106.0463940  51.7059480
 116.1235023 108.7711230  45.8385258 115.4545398 109.2557358  45.3549298
 115.9847893 109.0180451  46.7528637 107.8614022  98.3065583  49.5427259
 107.8998122  97.7729174  50.3364377 107.3554315  97.7800789  48.9238236
 115.2404785  93.1530124  53.0389801 115.3046111  94.0144955  52.6267199
 115.1771905  92.5404125  52.3062160 114.7157057  95.2253256  56.6862835
 115.3429096  94.8430333  57.3000360 113.8584976  95.0067458  57.0518528
 111.4922600  97.0329685  42.6181190 111.7876041  96.1240364  42.5648244
 110.5910636  97.0117425  42.2962193 115.0216847  95.1085682  48.6008739
 114.3003433  95.7221650  48.4616212 115.8110103  95.6443447  48.5225385
 117.8243161  92.4440108  54.8749391 118.3477562  92.6902405  55.6375700
 117.6055494  93.2760143  54.4552528 113.2210442  94.7143783  42.7420515
 112.8923148  93.8341162  42.5595621 113.5749812  94.6591452  43.6296905
 116.3352265  95.0016753  43.1095993 116.6748337  95.5302674  42.3874601
 116.7824385  95.3397159  43.8854560 119.0295706  93.3853803  52.5599061
 118.6892526  92.5861616  52.9619741 118.3234712  93.6855514  51.9875894
 119.6812177  90.4703116  51.0126384 120.5038247  89.9963594  50.8905274
 119.9250241  91.2493600  51.5125070 118.3220412  93.4991374  41.3089286
 119.0428774  93.8772627  40.8053003 117.6985716  94.2180251  41.4124264
 117.2050756  97.1622237  48.8218363 117.0595337  97.4762540  49.7142644
 116.7275960  97.7807137  48.2689261 119.0647139  94.1524784  48.8699252
 119.0508708  93.2565878  48.5331550 119.7819567  94.1595448  49.5037538
 120.9173270  94.5862125  50.9152380 120.6591048  95.5079195  50.9136710
 120.3858310  94.1892559  51.6052844 111.6796418  99.7027581  51.7606024
 111.1349886 100.4787389  51.8926298 112.5575768 100.0498385  51.6025145
 118.4684035  93.0339165  44.1386822 118.5899946  92.1055811  44.3377710
 118.1786077  93.0477851  43.2265138 121.3375225  90.7194075  47.2753542
 121.3596922  90.7833408  46.3205522 121.7543284  89.8798584  47.4694048
 112.4662440  98.8297477  54.6536181 111.7244176  98.9780113  55.2400811
 112.1455185  99.0905743  53.7902930 112.9119054 106.7162906  46.6846575
 113.7377074 106.4166678  46.3045219 112.5613106 105.9470528  47.1336364
 117.8800587 106.0689374  48.7544249 117.2580596 105.4060079  48.4546477
 118.5505454 106.0950506  48.0717897 111.1127659 104.6349232  47.6435509
 110.2759567 104.2071407  47.4619510 111.0851304 104.8281676  48.5806300
 117.9525115  94.5471162  58.3476755 118.0013270  95.4233285  57.9654525
 118.4947629  94.0048555  57.7748398 117.4414094 104.6193297  42.2302710
 117.5902214 105.3028762  41.5769382 118.2480537 104.5998388  42.7452165
 120.1824403  95.3002535  55.1023114 119.3127712  95.5936101  54.8305702
 120.4183883  95.8842980  55.8230377 115.1966727 100.6458475  43.2363778
 114.9512769  99.7420805  43.4343989 115.3662642 100.6475626  42.2943256
 114.4662374  96.3786833  40.7349940 113.7731619  96.4531188  40.0789976
 114.2214126  95.6147176  41.2571457 121.3256298  98.4502241  37.0430509
 122.2715403  98.3208449  37.1118928 120.9470543  97.7116903  37.5199938
 121.2094991 102.5019987  58.5031166 122.1298000 102.6798586  58.6971213
 121.1744574 101.5576032  58.3510866 119.5099215  96.3752217  36.9785395
 118.6030671  96.0785330  37.0548108 119.7875196  96.0782035  36.1119681
 110.4277156  97.6958580  47.4284441 110.1079940  96.8423889  47.1358815
 109.8810584  97.9107159  48.1842408 114.2057063 100.4121021  51.1453948
 114.4243073 101.3438129  51.1641981 114.6182837 100.0528996  51.9308751
 121.1261281  90.9189107  43.1329636 120.3162009  90.5736192  43.5084882
 121.8145698  90.6096650  43.7217248 119.0784928  95.9854227  60.5356697
 118.9781655  96.9348584  60.4668788 118.8606470  95.6572466  59.6632767
 118.2798000  93.2339152  37.1197374 119.1417164  93.5594051  37.3793191
 118.4648344  92.4470648  36.6070440 110.2965416 101.3161492  49.3977563
 109.6028887 100.9015445  48.8847517 111.0438407 101.3582028  48.8010982
 118.9416198  99.4151366  59.3521758 118.4583280 100.2151726  59.5585647
 119.0277138  99.4259311  58.3989202 112.2102158 101.2479746  47.2743578
 112.1872846 101.3467433  46.3225461 112.5202795 102.0944897  47.5960744
 114.8689536 103.3055901  51.3890192 115.8232789 103.2739843  51.3220124
 114.6702060 102.8446524  52.2040418 115.4588918 101.8757017  53.9560990
 116.2781807 102.3701095  53.9795827 115.7325726 100.9588985  53.9278557
 113.2239765 108.8475520  48.4060390 113.0894233 108.0875921  47.8398388
 112.8071827 109.5716420  47.9389179 110.7123832  96.2095151  54.6553187
 111.3582696  95.6994105  55.1440412 110.5040983  96.9463832  55.2296612
 119.2327443  90.4735195  40.4077083 119.2206113  91.4177035  40.5645354
 120.1250865  90.2905341  40.1136544 115.0521323  93.3562768  58.7528201
 115.9152785  92.9999573  58.9631526 114.4786734  93.0176663  59.4403605
  52.9740835  -4.9711550  31.0883584  52.8964865  -4.0203724  31.1672065
  52.3702479  -5.3165677  31.7458510  50.6127665  -2.2226156  35.2331786
  50.8524263  -1.5907631  35.9110805  49.7696862  -2.5738116  35.5197145
  51.0872497  -6.1978153  32.5630565  50.4182873  -5.7132026  32.0794605
  50.9485367  -5.9508933  33.4773943  55.2277766  -4.1634410  39.1613223
  55.7796074  -4.0002788  39.9262308  55.5683959  -3.5729972  38.4893248
  55.3964189  -4.4438018  33.4067254  54.9569180  -4.9361640  34.1000111
  56.1472306  -4.9865051  33.1659329  48.1877239  -6.1213863  35.1305696
  48.0531707  -6.8813462  34.5643695  47.7709301  -5.3972963  34.6634485
  51.3446365  -5.2244546  35.3424139  51.2278749  -4.2799114  35.2402829
  50.5238811  -5.5270985  35.7309938  52.3700879  -4.5716284  38.5580068
  53.2728126  -4.5392674  38.8746563  52.1438249  -5.5015833  38.5726403
  66.6696881  -0.0297331  36.2197433  66.3315392  -0.1456267  35.3317968
  67.5386649  -0.4306166  36.1998439  62.5283697   1.8238145  32.2094324
  61.9648562   1.7328082  31.4410612  62.4136092   1.0038050  32.6896817
  67.1516664   1.1237520  42.1783639  67.1405305   0.7290319  41.3064142
  67.3137303   0.3903593  42.7717410  60.0748128   3.3189337  35.0478545
  60.8669420   2.9780161  34.6324844  60.3144779   3.4284312  35.9680698
  68.1083255   5.4909113  27.5208789  67.4571235   6.0763193  27.1342803
  68.9027618   6.0215308  27.5803827  62.0338882   2.5798250  27.9195923
  62.8069758   2.0327237  27.7808799  62.3864281   3.4442499  28.1310385
  63.8723925   3.9074632  41.1262823  63.5813791   4.8120263  41.0109489
  64.5080909   3.9491160  41.8406892  64.7980132   1.2851481  37.7164182
  65.3943704   1.0607503  37.0021145  64.8555103   0.5436226  38.3189630
  64.3705160  -1.2609084  25.5514373  64.6230681  -1.7827563  24.7897836
  63.4329719  -1.4242938  25.6541057  69.5858520   3.1799545  28.0577773
  68.9504353   3.2534171  28.7698678  69.2555927   3.7693144  27.3796853
  64.0901449   0.6419022  27.7538748  63.9737707  -0.0336075  28.4219833
  64.2003709   0.1551396  26.9370901  66.4332990   0.1029169  31.4585438
  66.0691197  -0.4240210  32.1698359  67.2900106  -0.2872362  31.2851923
  68.8313810   3.5936048  38.1212616  68.5314533   4.4961087  38.0128424
  68.4864870   3.3268231  38.9733769  62.2826292   0.0449845  34.1549321
  61.3576788  -0.0873941  34.3627013  62.5310705   0.8244064  34.6519263
  59.6435103  -0.3116882  34.9893110  59.7727484  -0.0582403  35.9032522
  58.9632554   0.2810826  34.6697765  63.8134590  10.3580368  31.0883584
  63.7358620  11.3088193  31.1672065  63.2096233  10.0126241  31.7458510
  64.5598192   0.3393687  43.3062918  65.3012876   0.8778731  43.0297742
  63.8535177   0.9659976  43.4634470  70.0353532   2.4822827  41.9035080
  70.4436888   2.0405238  41.1589712  69.3130793   1.9075455  42.1569272
  70.3582346   3.0424018  35.6587368  69.7291209   3.2069732  34.9563436
  69.9708008   3.4565628  36.4298332  74.2371578   3.9778456  33.0131732
  73.5522616   4.3577357  32.4628765  74.3215427   4.5873783  33.7463680
  71.4922510   1.6238415  39.6127076  71.7039405   2.2670175  38.9361457
  71.4452258   0.7900731  39.1449006  65.9110308   2.7798426  32.9237454
  66.3748654   3.0586129  32.1342076  65.6467106   1.8781871  32.7410544
  62.8034389   2.3269908  35.8617217  63.3735746   2.7557176  35.2234701
  63.3942501   2.0452492  36.5601402  64.8479194  -1.0978422  29.7327019
  65.5503237  -0.6457378  30.2000945  64.5159823  -1.7394603  30.3606912
  63.2959556  -2.5066665  44.1078228  62.6658216  -1.8250384  44.3413625
  63.1895644  -2.6183583  43.1631366  58.5904528  -2.8394869  35.0344152
  57.8003582  -2.5837340  34.5584263  59.0815775  -2.0246531  35.1396193
  72.6068338   4.5010370  37.7849433  73.4285781   4.0990558  37.5032115
  72.6030741   4.3978604  38.7365549  60.5419273  -2.4750290  31.9927629
  59.7450437  -2.3631595  32.5111125  60.3144866  -2.1363637  31.1268519
  66.3724941   4.0494414  39.9410144  66.4369374   4.5114821  40.7768315
  65.6635865   3.4191779  40.0692453  56.8742231  -2.5864378  37.4659143
  57.1250270  -1.7017369  37.7316719  57.4101779  -2.7659777  36.6934235
  66.0872959   5.7162521  29.8089124  65.9518634   6.5614057  30.2373972
  66.6282771   5.9181799  29.0455058  59.5402356   3.2337959  30.3817049
  60.0526877   4.0281209  30.5322614  60.1925069   2.5364250  30.3150650
  61.3497241   6.3503715  32.4639802  61.5263869   7.2721680  32.2760786
  62.1454074   6.0362135  32.8934182  60.6349597  -1.6031653  42.3401965
  60.5203113  -2.5046395  42.6409064  59.7794115  -1.3567956  41.9886782
  67.7141435   6.3386088  43.9389466  67.2705289   5.5522466  43.6210370
  68.3758649   6.5265238  43.2733357  62.4728556   7.8681889  38.4650144
  63.0235981   7.7398953  37.6927138  61.6340032   8.1676778  38.1145037
  69.8122673   6.6188888  41.9670867  69.7941149   7.4397769  41.4751136
  70.7342593   6.4942963  42.1921008  66.2695727   4.1333017  42.8094376
  66.8024064   3.3721305  42.5793684  65.7409808   3.8406669  43.5518530
  57.5051273   1.5626613  31.1576620  58.3426495   1.9723622  30.9410327
  57.6829541   0.6226056  31.1276813  74.3749979   1.9834049  28.7813626
  73.5979422   1.6445208  28.3368788  75.0541460   1.9886672  28.1068591
  67.6348440   3.2619009  30.3213188  67.1069802   2.5271769  30.0086425
  67.1335943   4.0393686  30.0753156  72.6141286   1.4568030  35.4380234
  71.9564961   2.1467291  35.5260363  73.4181685   1.8464462  35.7814220
  65.7801040   1.0799220  23.3248161  64.8728102   0.8488473  23.5239310
  66.2772072   0.2836839  23.5122142  68.6869119   9.7896727  26.2444847
  68.0130818  10.0928424  26.8529805  69.0734941  10.5925807  25.8950304
  66.9589274   1.1811815  27.8472151  66.0500493   0.8970847  27.9444620
  66.9884358   1.6010893  26.9875458  72.1908541   4.7918404  31.6163318
  71.7370868   3.9509314  31.6728509  71.5602508   5.4279802  31.9538098
  70.6341480   6.6294901  32.5513136  70.9264455   7.1899958  31.8325502
  71.1440101   6.9223462  33.3066296  57.5277444  -1.0982671  31.8287353
  57.3301844  -1.6913311  31.1038420  56.9724108  -1.4030461  32.5463292
  66.6565362   2.7220558  25.1860229  66.2184791   2.0056417  24.7265867
  67.3975802   2.9496673  24.6245321  65.5975106   7.4075252  33.6406590
  65.5551284   7.6336098  32.7115122  66.5137804   7.1738626  33.7892391
  74.8007856   3.0654282  36.2547819  75.2344363   2.9729571  37.1030873
  75.5139437   3.0411783  35.6167835  63.7140906   4.2838281  33.4368552
  64.5081505   3.7888601  33.2351127  63.0032599   3.7556144  33.0736258
  68.5335751   6.6656376  37.7880920  68.5872773   7.2347313  38.5558636
  67.6650532   6.8358261  37.4234957  60.0223670  -1.5718637  29.5128305
  59.0921258  -1.6334182  29.7298267  60.1181142  -2.0942685  28.7164946
  75.6623405   3.1077983  38.7880705  75.8559296   4.0123793  39.0339980
  75.5624024   2.6485402  39.6219290  70.7238514   3.2584726  44.3621585
  70.5724021   3.0295277  43.4451669  70.7143194   4.2155327  44.3752930
  67.4923851   0.8316638  39.3467852  68.4215911   0.9827798  39.1736819
  67.0714881   0.9200659  38.4916498  66.2912182   4.8567303  37.1166389
  66.1523268   4.4886087  37.9892328  65.5026779   5.3714942  36.9450347
  66.8860334   9.9576399  28.4591926  67.0612090   9.4864443  29.2737549
  66.1993122  10.5842166  28.6873187  67.8417397   4.2348906  34.5055227
  67.5067230   4.1949676  35.4012877  67.3421343   3.5693622  34.0325637
  61.8161641  -0.3583464  40.0307808  61.6781439  -1.0903226  40.6319347
  62.7266565  -0.4474564  39.7491996  70.7776589   1.5804940  24.7792287
  70.1605760   0.8551768  24.6825340  70.3093078   2.3414300  24.4359361
  64.4443942  -0.6463505  39.5191488  65.1543561  -1.2870313  39.4778106
  64.4013250  -0.3950610  40.4417669  72.4330721   6.2903848  42.4398067
  72.3743267   5.6063068  41.7728650  72.8350239   7.0322838  41.9878693
  61.4521420  13.1065762  35.2331786  61.6918018  13.7384286  35.9110805
  60.6090616  12.7553802  35.5197145  72.4348128   4.2543432  40.6712047
  71.5474907   3.9169354  40.7938446  73.0046679   3.5226463  40.9080812
  54.0877275   0.5867524  33.9955098  54.7748315   0.2729254  33.4076114
  53.9325404   1.4908889  33.7222350  65.9649281   8.9144885  37.6373290
  65.8919453   9.7199856  38.1492595  65.5226675   9.1136850  36.8121312
  65.7539061   8.1516655  31.1476112  64.9706583   8.6938335  31.2414336
  66.4531806   8.6690634  31.5470353  68.4247965   8.8131719  39.7931449
  69.1375937   9.4479183  39.7207350  67.9337994   8.9095585  38.9771451
  70.1465492   2.7182971  31.3648740  69.2121771   2.8384434  31.1953445
  70.3242160   1.8155438  31.1008750  63.4759878   6.5626162  40.6137020
  64.1769338   7.1962645  40.7666414  63.0054993   6.9040894  39.8532659
  71.6014274   4.9044112  28.8984927  71.8774118   4.7900706  29.8078801
  70.7318773   4.5061597  28.8597100  68.2368338   9.1530463  32.5417740
  68.4190733   8.3352119  33.0045493  69.0601324   9.3698155  32.1042630
  68.5710504   8.0798648  29.8032789  69.0998270   7.5691102  29.1902951
  68.8338723   7.7641178  30.6678322  67.3248737  -0.1409419  44.9255607
  66.6489375  -0.2415290  45.5957982  68.1476371  -0.2970206  45.3891604
  59.0727597   6.0962517  37.5468122  59.6581033   5.3506205  37.6796027
  58.8752435   6.4066474  38.4304786  61.9266252   9.1313764  32.5630565
  61.2576627   9.6159892  32.0794605  61.7879121   9.3782985  33.4773943
  53.6645251  -1.3331883  36.2672565  53.7029351  -1.8668292  37.0609684
  53.1585544  -1.8596677  35.6483543  66.0671520  11.1657508  39.1613223
  66.6189828  11.3289130  39.9262308  66.4077714  11.7561946  38.4893248
  70.9182395   5.9918766  45.0161877  71.4622299   6.6048724  44.5216832
  70.3369240   6.5498344  45.5328890  57.2953829  -2.6067781  29.3426497
  57.5907270  -3.5157102  29.2893551  56.3941865  -2.6280041  29.0207499
  69.2039908   9.1139484  36.1476905  69.0791047   8.3129223  35.6387851
  69.8618999   9.6085677  35.6590875  71.2674816   6.9148504  37.7756455
  70.3205152   6.7953855  37.7034782  71.6157589   6.0271002  37.8582717
  68.2721249   6.7101220  33.9760808  68.1246212   5.7817927  34.1568378
  69.0974743   6.7321311  33.4917883  71.8755371   7.5329779  35.0625680
  72.8001919   7.3272640  34.9250131  71.7070675   7.2846180  35.9715022
  63.0081985  -2.4775229  35.5463669  62.8626566  -2.1634926  36.4387951
  62.5307189  -1.8590329  34.9934568  71.6650687   8.0515446  30.4187772
  71.8387565   7.4861869  29.6661624  72.1579579   8.8516341  30.2367262
  57.4827647   0.0630115  38.4851331  56.9381115   0.8389923  38.6171605
  58.3606997   0.4100920  38.3270452  72.6525860   7.3682210  27.5184670
  73.3476764   7.9888903  27.7371985  72.9949010   6.5177562  27.7937048
  58.2693669  -0.8099989  41.3781487  57.5275405  -0.6617353  41.9646118
  57.9486413  -0.5491723  40.5148237  74.5517283   4.8181916  29.0472001
  75.0768607   5.1569189  28.3221321  74.4639636   3.8828931  28.8635135
  66.2137332   8.7315990  41.1761877  66.5224458   8.4865136  42.0484577
  67.0112814   8.9362628  40.6880748  66.2357944  10.8853899  33.4067254
  65.7962934  10.3930278  34.1000111  66.9866061  10.3426867  33.1659329
  58.7150283   7.0765440  33.4091882  59.5408303   6.7769212  33.0290526
  58.3644335   6.3073063  33.8581671  63.6831816   6.4291908  35.4789556
  63.0611825   5.7662613  35.1791784  64.3536683   6.4553040  34.7963203
  56.9158888   4.9951767  34.3680816  56.0790796   4.5673941  34.1864817
  56.8882533   5.1884210  35.3051607  74.2411189   5.4514820  44.3523199
  73.4506733   5.4338958  43.8127698  74.0044544   5.9903113  45.1072235
  74.3609064   2.3007286  41.6655927  74.4107069   2.1357293  42.6071450
  74.2522987   1.4334545  41.2753808  63.2445323   4.9795832  28.9548016
  63.3933443   5.6631296  28.3014689  64.0511766   4.9600922  29.4697472
  75.8627261   4.7204227  41.9097949  75.5712069   5.0834208  42.7461410
  75.2499392   4.0071236  41.7311281  60.9997956   1.0061009  29.9609085
  60.7543998   0.1023339  30.1589295  61.1693870   1.0078160  29.0188563
  66.7440728   7.4743962  26.4259764  66.1714695   8.0934149  25.9730235
  67.3173522   8.0243324  26.9599686  69.9637988   7.7581112  27.5568346
  70.8968661   7.6926674  27.7601221  69.8761201   8.5937379  27.0982879
  72.5926005   7.0746983  24.5172293  72.5139636   6.7406846  25.4108051
  73.4135672   7.5668750  24.5163766  67.0126219   2.8622521  45.2276473
  67.9329229   3.0401120  45.4216520  66.9775802   1.9178566  45.0756172
  56.2308384  -1.9438885  34.1529748  55.9111169  -2.7973577  33.8604122
  55.6841813  -1.7290307  34.9087715  60.0088292   0.7723556  37.8699254
  60.2274302   1.7040663  37.8887288  60.4214066   0.4131530  38.6554058
  56.0996644   1.6764026  36.1222869  55.4060116   1.2617979  35.6092824
  56.8469635   1.7184563  35.5256288  64.7447427  -0.2246100  46.0767065
  64.2614509   0.5754260  46.2830954  64.8308366  -0.2138155  45.1234509
  58.0133387   1.6082280  33.9988884  57.9904075   1.7069967  33.0470767
  58.3234023   2.4547431  34.3206050  60.6720765   3.6658435  38.1135499
  61.6264018   3.6342377  38.0465430  60.4733288   3.2049059  38.9285725
  61.2620147   2.2359551  40.6806296  62.0813036   2.7303630  40.7041134
  61.5356955   1.3191519  40.6523864  59.0270994   9.2078054  35.1305696
  58.8925461   8.4478455  34.5643695  58.6103056   9.9318954  34.6634485
  70.1629957   4.3914978  24.1382272  70.8665807   4.5964980  24.7539927
  69.4392605   4.9591740  24.4031355  62.1840119  10.1047371  35.3424139
  62.0672504  11.0492804  35.2402829  61.3632566   9.8020933  35.7309938
  72.0716654   4.8297507  26.1880732  72.9062258   4.3978706  26.0058207
  71.9100997   4.6579521  27.1157626  71.7262546   1.3329620  27.5537071
  71.6711350   1.1673892  26.6125515  71.1008601   2.0405653  27.7099261
  56.5155061  -3.4302315  41.3798493  57.1613925  -3.9403361  41.8685719
  56.3072212  -2.6933633  41.9541919  69.0408453   3.6378532  46.8790634
  69.9099613   3.8119185  46.5177269  68.5615205   4.4572949  46.7566363
  63.2094634  10.7575633  38.5580068  64.1121880  10.7899244  38.8746563
  62.9832004   9.8276084  38.5726403  64.9648236   9.5106620  35.2190146
  64.0143867   9.5108482  35.1054518  65.2680722   8.7639354  34.7026181
  80.7000929  15.3467158  36.2835909  81.3379339  15.2273906  35.5799249
  80.5821772  16.2948002  36.3423861  77.5090635  15.2994586  36.2197433
  77.1709147  15.1835651  35.3317968  78.3780404  14.8985751  36.1998439
  73.3677451  17.1530063  32.2094324  72.8042316  17.0620000  31.4410612
  73.2529846  16.3329967  32.6896817  77.9910418  16.4529438  42.1783639
  77.9799059  16.0582236  41.3064142  78.1531058  15.7195511  42.7717410
  70.9141883  18.6481254  35.0478545  71.7063175  18.3072079  34.6324844
  71.1538533  18.7576229  35.9680698  78.9477010  20.8201031  27.5208789
  78.2964990  21.4055111  27.1342803  79.7421373  21.3507225  27.5803827
  72.8732637  17.9090168  27.9195923  73.6463513  17.3619155  27.7808799
  73.2258036  18.7734417  28.1310385  74.7117679  19.2366550  41.1262823
  74.4207545  20.1412181  41.0109489  75.3474664  19.2783078  41.8406892
  75.6373886  16.6143398  37.7164182  76.2337459  16.3899421  37.0021145
  75.6948858  15.8728144  38.3189630  75.2098915  14.0682834  25.5514373
  75.4624435  13.5464355  24.7897836  74.2723474  13.9048979  25.6541057
  80.2542198  13.0718612  33.3589117  81.0405287  12.6538035  33.0079534
  80.5180902  13.9764704  33.5270765  80.4252275  18.5091462  28.0577773
  79.7898108  18.5826089  28.7698678  80.0949681  19.0985061  27.3796853
  85.6550625  13.0093845  34.2622095  86.3875797  12.4393062  34.4959925
  84.8989980  12.6215446  34.7028601  74.9295203  15.9710940  27.7538748
  74.8131462  15.2955843  28.4219833  75.0397463  15.4843314  26.9370901
  77.2726744  15.4321087  31.4585438  76.9084952  14.9051708  32.1698359
  78.1293860  15.0419556  31.2851923  83.1776045   6.7215419  38.7216704
  82.8459370   7.5910830  38.4977919  82.5821658   6.4051703  39.4010734
  76.9132231  10.4610987  26.4546786  77.0806634  11.3291223  26.8217257
  76.7229400  10.6238268  25.5308075  79.6707565  18.9227965  38.1212616
  79.3708288  19.8253004  38.0128424  79.3258624  18.6560149  38.9733769
  73.1220046  15.3741762  34.1549321  72.1970543  15.2417976  34.3627013
  73.3704459  16.1535982  34.6519263  83.0704708  11.4410506  35.8010054
  82.1621586  11.3725914  35.5068815  83.0192304  11.9182451  36.6291879
  76.8921452  12.9168644  27.4393453  76.7721077  13.3625695  28.2778933
  76.1974041  13.2653962  26.8806991  70.4828857  15.0175036  34.9893110
  70.6121238  15.2709515  35.9032522  69.8026308  15.6102744  34.6697765
  74.6528344  25.6872286  31.0883584  74.5752374  26.6380111  31.1672065
  74.0489988  25.3418158  31.7458510  77.1445574  12.8600151  43.7444951
  76.3678908  13.4194071  43.7347816  77.7836137  13.3456934  44.2659821
  84.9366355   9.6426944  37.5787928  84.2940735   9.9359477  36.9327722
  84.4321283   9.5279864  38.3841124  82.5906518  13.3890117  28.2673787
  83.5024375  13.6217504  28.0921485  82.0816165  13.9727161  27.7048866
  75.3991946  15.6685605  43.3062918  76.1406631  16.2070649  43.0297742
  74.6928932  16.2951893  43.4634470  80.8747286  17.8114745  41.9035080
  81.2830642  17.3697156  41.1589712  80.1524548  17.2367373  42.1569272
  77.2278356  12.7487352  39.2768636  78.0739551  13.1726765  39.4203285
  77.1676994  12.0920976  39.9707200  81.1976101  18.3715936  35.6587368
  80.5684963  18.5361650  34.9563436  80.8101763  18.7857545  36.4298332
  85.0765333  19.3070374  33.0131732  84.3916371  19.6869275  32.4628765
  85.1609182  19.9165700  33.7463680  80.3777801  10.4091720  40.9349810
  80.1338733  11.1633781  40.3984086  80.6537732  10.7877068  41.7697057
  82.3316264  16.9530333  39.6127076  82.5433159  17.5962092  38.9361457
  82.2846012  16.1192649  39.1449006  79.9342493   9.5648153  36.5163648
  79.0726972   9.8629407  36.8080385  79.9604928   9.7818552  35.5844680
  76.7504063  18.1090344  32.9237454  77.2142408  18.3878047  32.1342076
  76.4860861  17.2073788  32.7410544  73.6428144  17.6561825  35.8617217
  74.2129501  18.0849094  35.2234701  74.2336255  17.3744410  36.5601402
  75.6872949  14.2313496  29.7327019  76.3896992  14.6834540  30.2000945
  75.3553577  13.5897315  30.3606912  74.1353310  12.8225253  44.1078228
  73.5051971  13.5041534  44.3413625  74.0289398  12.7108334  43.1631366
  69.4298283  12.4897049  35.0344152  68.6397337  12.7454577  34.5584263
  69.9209530  13.3045387  35.1396193  83.4462092  19.8302288  37.7849433
  84.2679536  19.4282475  37.5032115  83.4424495  19.7270522  38.7365549
  71.3813028  12.8541628  31.9927629  70.5844191  12.9660322  32.5111125
  71.1538620  13.1928280  31.1268519  77.2118696  19.3786331  39.9410144
  77.2763128  19.8406738  40.7768315  76.5029619  18.7483696  40.0692453
  67.7135986  12.7427539  37.4659143  67.9644024  13.6274549  37.7316719
  68.2495534  12.5632141  36.6934235  91.5368085  16.1741036  34.1334405
  90.7831794  15.6048435  33.9778409  91.6715626  16.1403701  35.0805039
  76.9266713  21.0454439  29.8089124  76.7912388  21.8905974  30.2373972
  77.4676526  21.2473716  29.0455058  73.4134053   7.1246019  46.4703479
  73.0200998   6.5712217  47.1451123  74.2300193   7.4356597  46.8609997
  70.3796111  18.5629877  30.3817049  70.8920631  19.3573127  30.5322614
  71.0318823  17.8656167  30.3150650  72.1890995  21.6795633  32.4639802
  72.3657624  22.6013598  32.2760786  72.9847829  21.3654052  32.8934182
  76.3302014   8.5403898  44.0623736  77.0711727   9.1411051  43.9828198
  76.5619937   7.7981535  43.5041778  71.4743352  13.7260265  42.3401965
  71.3596867  12.8245522  42.6409064  70.6187870  13.9723962  41.9886782
  78.5535190  21.6678005  43.9389466  78.1099044  20.8814384  43.6210370
  79.2152403  21.8557156  43.2733357  73.3122311  23.1973807  38.4650144
  73.8629736  23.0690870  37.6927138  72.4733787  23.4968696  38.1145037
  80.6516428  21.9480805  41.9670867  80.6334903  22.7689686  41.4751136
  81.5736348  21.8234880  42.1921008  77.1089482  19.4624935  42.8094376
  77.6417819  18.7013223  42.5793684  76.5803563  19.1698586  43.5518530
  80.2759177   4.5685001  38.3388017  79.9323446   5.4586642  38.2627128
  80.6438139   4.3786658  37.4757602  68.3445027  16.8918531  31.1576620
  69.1820249  17.3015539  30.9410327  68.5223295  15.9517973  31.1276813
  80.2409460  14.5593612  26.8460452  79.7256083  15.3298216  27.0848840
  79.9686768  13.8858748  27.4693514  77.8256571   9.4043313  31.9045691
  76.9698167   9.0150163  31.7251330  78.2383522   9.4835273  31.0445476
  79.3555717   6.9389656  36.3037251  78.8520513   6.9019791  35.4905056
  79.6486324   7.8482399  36.3633907  75.5998603   7.0228386  35.3103432
  76.4651600   6.8271194  34.9509322  75.6676112   6.7938737  36.2372789
  85.2143734  17.3125966  28.7813626  84.4373176  16.9737126  28.3368788
  85.8935215  17.3178590  28.1068591  80.0295763  12.4320704  28.6720234
  79.7245898  12.7466853  29.5230377  80.9826205  12.5102124  28.7147567
  78.4742195  18.5910927  30.3213188  77.9463556  17.8563687  30.0086425
  77.9729697  19.3685603  30.0753156  83.4535041  16.7859948  35.4380234
  82.7958715  17.4759209  35.5260363  84.2575440  17.1756380  35.7814220
  73.2060922   9.2530593  32.6819799  73.7804674   9.0305775  31.9492992
  73.7931905   9.3219288  33.4348400  82.2640499  15.1404320  33.4884176
  82.7772381  15.7734312  33.9905885  82.9141723  14.5405516  33.1227536
  73.5330509  11.2835054  26.7015684  72.6967822  11.6209741  27.0224959
  73.3935279  11.1484034  25.7642821  75.5083590   6.1271842  31.4094869
  74.8548002   5.8120860  30.7851483  75.4664064   5.5047583  32.1354692
  76.6194795  16.4091137  23.3248161  75.7121856  16.1780391  23.5239310
  77.1165827  15.6128757  23.5122142  79.5262874  25.1188645  26.2444847
  78.8524572  25.4220341  26.8529805  79.9128696  25.9217725  25.8950304
  78.7421330  12.6153776  35.7342516  77.8243892  12.8368723  35.5764204
  79.1581474  12.6900086  34.8754224  79.5256378  14.0145192  30.8645196
  80.2728197  14.5266589  30.5552319  79.7947968  13.6929244  31.7249590
  77.7983028  16.5103732  27.8472151  76.8894247  16.2262765  27.9444620
  77.8278112  16.9302811  26.9875458  83.0302296  20.1210322  31.6163318
  82.5764623  19.2801232  31.6728509  82.3996262  20.7571720  31.9538098
  81.9735215  11.0502308  32.8463986  81.2357972  10.5379694  33.1774228
  82.2261989  10.6102689  32.0347263  81.4735235  21.9586818  32.5513136
  81.7658209  22.5191876  31.8325502  81.9833855  22.2515379  33.3066296
  68.3671199  14.2309246  31.8287353  68.1695598  13.6378607  31.1038420
  67.8117863  13.9261457  32.5463292  76.3467922  14.1232353  33.9481946
  76.4016532  13.1706189  33.8724423  75.5359124  14.2791792  34.4323245
  77.4959116  18.0512476  25.1860229  77.0578546  17.3348335  24.7265867
  78.2369557  18.2788591  24.6245321  74.2860282  12.7409413  31.7072325
  73.4728148  13.0403583  32.1137517  74.7819276  12.3465101  32.4246807
  76.4368860  22.7367170  33.6406590  76.3945039  22.9628016  32.7115122
  77.3531559  22.5030544  33.7892391  79.8834494  13.2051237  40.5387219
  80.2383882  13.4322710  41.3981685  80.5306625  13.5369614  39.9164474
  85.6132231  16.3269673  31.2436548  85.4750129  16.5171269  30.3157737
  85.2568450  17.0889056  31.7004599  73.7774357  10.3127768  37.3233560
  74.4173736  10.1716527  36.6256523  72.9451887  10.0262282  36.9472162
  85.6401610  18.3946200  36.2547819  86.0738117  18.3021489  37.1030873
  86.3533191  18.3703700  35.6167835  74.5534661  19.6130199  33.4368552
  75.3475259  19.1180519  33.2351127  73.8426353  19.0848062  33.0736258
  79.3729505  21.9948294  37.7880920  79.4266528  22.5639230  38.5558636
  78.5044287  22.1650179  37.4234957  70.8617424  13.7573280  29.5128305
  69.9315012  13.6957736  29.7298267  70.9574896  13.2349233  28.7164946
  70.7802973  10.2828093  32.1006547  71.0409791  11.1973426  31.9915707
  71.6020146   9.8152536  32.2503160  72.2527899  11.6965850  39.2705371
  72.9250952  11.4883212  38.6218020  71.4257685  11.4987936  38.8310604
  86.5017160  18.4369901  38.7880705  86.6953050  19.3415711  39.0339980
  86.4017778  17.9777320  39.6219290  78.1553471   8.3227791  41.2871032
  77.5081386   9.0217741  41.1935509  78.9254486   8.7563935  41.6547280
  81.5632269  18.5876643  44.3621585  81.4117775  18.3587195  43.4451669
  81.5536948  19.5447245  44.3752930  78.3317605  16.1608556  39.3467852
  79.2609665  16.3119716  39.1736819  77.9108635  16.2492577  38.4916498
  77.1305937  20.1859221  37.1166389  76.9917023  19.8178005  37.9892328
  76.3420533  20.7006860  36.9450347  77.7254089  25.2868317  28.4591926
  77.9005844  24.8156360  29.2737549  77.0386877  25.9134083  28.6873187
  78.6811152  19.5640823  34.5055227  78.3460985  19.5241593  35.4012877
  78.1815098  18.8985539  34.0325637  72.6555396  14.9708453  40.0307808
  72.5175194  14.2388692  40.6319347  73.5660319  14.8817353  39.7491996
  81.6170344  16.9096858  24.7792287  80.9999514  16.1843686  24.6825340
  81.1486832  17.6706218  24.4359361  75.2837697  14.6828413  39.5191488
  75.9937315  14.0421605  39.4778106  75.2407005  14.9341307  40.4417669
  83.2724475  21.6195766  42.4398067  83.2137021  20.9354986  41.7728650
  83.6743994  22.3614756  41.9878693  73.9966631  11.6693630  41.3387128
  73.4603988  11.2184369  41.9908724  73.4083339  11.8039539  40.5957592
  73.4068890  11.1282282  23.9013591  72.5298356  11.0071083  23.5375838
  73.8826643  10.3368360  23.6492480  83.2741883  19.5835350  40.6712047
  82.3868661  19.2461272  40.7938446  83.8440434  18.8518381  40.9080812
  64.9271030  15.9159442  33.9955098  65.6142069  15.6021172  33.4076114
  64.7719158  16.8200806  33.7222350  69.7305752  10.8049638  38.4240122
  69.6463941  10.1975308  37.6890532  68.9088458  11.2958657  38.4249618
  76.8043036  24.2436802  37.6373290  76.7313207  25.0491774  38.1492595
  76.3620429  24.4428768  36.8121312  76.5932816  23.4808572  31.1476112
  75.8100337  24.0230252  31.2414336  77.2925561  23.9982552  31.5470353
  79.9029466   9.2903202  33.7910317  80.3998165   8.5373164  33.4711387
  79.1316447   9.3267518  33.2253526  87.7559223  14.9943567  35.4328609
  87.7449099  15.8768283  35.0622542  86.8876603  14.6415118  35.2383146
  80.9859246  18.0474889  31.3648740  80.0515525  18.1676351  31.1953445
  81.1635915  17.1447356  31.1008750  76.4864434  11.4320585  33.5182002
  76.1162222  10.8791625  34.2062907  76.9823527  10.8278718  32.9657002
  84.3731798  13.8892208  31.8998775  84.8392250  14.7220200  31.8259077
  84.8239298  13.4237190  32.6044033  74.3153633  21.8918080  40.6137020
  75.0163092  22.5254563  40.7666414  73.8448748  22.2332811  39.8532659
  82.4408029  20.2336030  28.8984927  82.7167873  20.1192624  29.8078801
  81.5712528  19.8353514  28.8597100  82.3448460   6.2572795  35.9389676
  81.4311540   6.4877022  36.1071883  82.7741562   6.3411239  36.7903708
  82.1154919  14.4462687  38.4389570  81.4626369  14.6938595  37.7842023
  82.4935299  13.6326825  38.1052047  79.0762093  24.4822380  32.5417740
  79.2584487  23.6644036  33.0045493  79.8995079  24.6990073  32.1042630
  79.4104258  23.4090565  29.8032789  79.9392025  22.8983020  29.1902951
  79.6732478  23.0933096  30.6678322  78.1642492  15.1882498  44.9255607
  77.4883129  15.0876628  45.5957982  78.9870126  15.0321712  45.3891604
  69.9121351  21.4254435  37.5468122  70.4974788  20.6798123  37.6796027
  69.7146189  21.7358391  38.4304786  72.7660006  24.4605682  32.5630565
  72.0970382  24.9451810  32.0794605  72.6272876  24.7074903  33.4773943
  64.5039006  13.9960035  36.2672565  64.5423105  13.4623626  37.0609684
  63.9979299  13.4695241  35.6483543  76.9065275  26.4949426  39.1613223
  77.4583583  26.6581047  39.9262308  77.2471468  27.0853864  38.4893248
  71.8829768   8.8424575  39.7635108  71.9471095   9.7039406  39.3512505
  71.8196888   8.2298577  39.0307466  71.3582041  10.9147708  43.4108142
  71.9854079  10.5324785  44.0245666  70.5009959  10.6961910  43.7763835
  81.7576149  21.3210683  45.0161877  82.3016053  21.9340641  44.5216832
  81.1762994  21.8790262  45.5328890  68.1347583  12.7224137  29.3426497
  68.4301024  11.8134816  29.2893551  67.2335619  12.7011877  29.0207499
  80.0433662  24.4431401  36.1476905  79.9184802  23.6421141  35.6387851
  80.7012753  24.9377595  35.6590875  71.6641830  10.7980134  35.3254045
  70.9428416  11.4116101  35.1861519  72.4535086  11.3337899  35.2470691
  82.1068571  22.2440421  37.7756455  81.1598906  22.1245772  37.7034782
  82.4551344  21.3562919  37.8582717  74.4668144   8.1334560  41.5994697
  74.9902546   8.3796857  42.3621007  74.2480477   8.9654595  41.1797835
  69.8635425  10.4038235  29.4665822  69.5348131   9.5235614  29.2840928
  70.2174796  10.3485903  30.3542211  79.1115004  22.0393138  33.9760808
  78.9639966  21.1109845  34.1568378  79.9368497  22.0613228  33.4917883
  72.9777248  10.6911205  29.8341300  73.3173321  11.2197126  29.1119908
  73.4249369  11.0291611  30.6099866  82.7149126  22.8621696  35.0625680
  83.6395673  22.6564558  34.9250131  82.5464429  22.6138097  35.9715022
  75.6720689   9.0748255  39.2844368  75.3317509   8.2756068  39.6865048
  74.9659695   9.3749966  38.7121201  76.3237161   6.1597568  37.7371691
  77.1463230   5.6858046  37.6150581  76.5675224   6.9388052  38.2370377
  74.9645395   9.1885826  28.0334592  75.6853758   9.5667079  27.5298309
  74.3410699   9.9074703  28.1369570  79.1076518   9.8930975  28.9692925
  79.3240133  10.7755613  28.6681753  78.6270585   9.5017189  28.2398567
  73.8475740  12.8516688  35.5463669  73.7020320  13.1656991  36.4387951
  73.3700943  13.4701589  34.9934568  75.7072122   9.8419236  35.5944559
  75.6933691   8.9460330  35.2576857  76.4244551   9.8489900  36.2282845
  77.5598253  10.2756577  37.6397686  77.3016031  11.1973647  37.6382017
  77.0283293   9.8787011  38.3298150  82.5044442  23.3807364  30.4187772
  82.6781319  22.8153786  29.6661624  82.9973333  24.1808259  30.2367262
  68.3221402  15.3922033  38.4851331  67.7774870  16.1681841  38.6171605
  69.2000752  15.7392837  38.3270452  75.1109018   8.7233617  30.8632129
  75.2324930   7.7950263  31.0623017  74.8211061   8.7372303  29.9510444
  77.9800209   6.4088527  33.9998849  78.0021906   6.4727860  33.0450828
  78.3968268   5.5693036  34.1939355  88.3583833  16.1443787  32.0378071
  88.8014979  15.3951112  31.6397195  87.4810343  16.1353923  31.6551803
  83.4919614  22.6974128  27.5184670  84.1870519  23.3180821  27.7371985
  83.8342764  21.8469479  27.7937048  69.1087424  14.5191929  41.3781487
  68.3669160  14.6674564  41.9646118  68.7880168  14.7800195  40.5148237
  85.3911037  20.1473834  29.0472001  85.9162362  20.4861106  28.3221321
  85.3033390  19.2120849  28.8635135  77.0531086  24.0607907  41.1761877
  77.3618213  23.8157054  42.0484577  77.8506568  24.2654546  40.6880748
  77.0751698  26.2145817  33.4067254  76.6356689  25.7222196  34.1000111
  77.8259815  25.6718785  33.1659329  69.5544037  22.4057358  33.4091882
  70.3802057  22.1061130  33.0290526  69.2038089  21.6364980  33.8581671
  74.5225570  21.7583826  35.4789556  73.9005580  21.0954531  35.1791784
  75.1930437  21.7844958  34.7963203  67.7552642  20.3243684  34.3680816
  66.9184551  19.8965859  34.1864817  67.7276288  20.5176128  35.3051607
  74.5950098  10.2365614  45.0722062  74.6438253  11.1127737  44.6899831
  75.1372612   9.6943007  44.4993705  85.0804944  20.7806737  44.3523199
  84.2900487  20.7630876  43.8127698  84.8438298  21.3195031  45.1072235
  85.2002819  17.6299204  41.6655927  85.2500824  17.4649211  42.6071450
  85.0916742  16.7626463  41.2753808  74.0839077  20.3087749  28.9548016
  74.2327198  20.9923214  28.3014689  74.8905521  20.2892839  29.4697472
  82.4906581  13.6130132  42.9815234  83.3916444  13.4736597  42.6899232
  82.5654555  13.7784587  43.9213411  76.8249386  10.9896986  41.8268420
  75.9552696  11.2830552  41.5551009  77.0608867  11.5737431  42.5475684
  86.7021015  20.0496145  41.9097949  86.4105824  20.4126126  42.7461410
  86.0893147  19.3363153  41.7311281  87.9016698  17.6149025  34.4300519
  88.7363589  18.0538829  34.5938079  88.0375827  17.1387678  33.6108765
  84.9508204  15.1728760  40.3778007  85.4262325  15.3656406  39.5696858
  84.0273769  15.2287946  40.1321390  71.8391710  16.3352927  29.9609085
  71.5937752  15.4315257  30.1589295  72.0087625  16.3370077  29.0188563
  79.5288420   7.2076603  39.3433841  80.0470364   7.9437630  39.0180329
  79.1743553   7.5140597  40.1780600  71.1087358  12.0681285  27.4595247
  70.4156603  12.1425640  26.8035283  70.8639110  11.3041628  27.9816763
  77.5834483  22.8035880  26.4259764  77.0108450  23.4226067  25.9730235
  78.1567276  23.3535241  26.9599686  83.6509873  12.0494520  38.6106312
  84.6027296  12.1492618  38.6318536  83.4813323  11.2572788  39.1204397
  81.6724252   9.1350103  38.7965713  81.0774184   9.4155116  38.1012202
  81.3873949   9.6244004  39.5682454  80.8031743  23.0873030  27.5568346
  81.7362416  23.0218592  27.7601221  80.7154955  23.9229297  27.0982879
  83.4319759  22.4038900  24.5172293  83.3533391  22.0698764  25.4108051
  84.2529426  22.8960668  24.5163766  86.1297950  15.2700640  37.7248612
  86.0974271  14.3316640  37.9108296  86.7398574  15.3484676  36.9914437
  77.9681281  14.1396693  23.7675816  78.9140386  14.0102901  23.8364234
  77.5895526  13.4011354  24.2445244  86.2792439  12.0611683  37.7706895
  85.7631488  11.2770140  37.5836824  87.1632387  11.7330400  37.9353415
  83.9403166   5.8052699  33.7302708  83.7427987   5.4967787  34.6146040
  84.5502871   6.5314337  33.8600638  91.9474500  16.3316646  36.8654649
  92.6777889  16.0701935  37.4262352  91.3381446  15.5945368  36.9056717
  90.0289797  14.4724509  37.4629100  89.3022961  14.3380474  36.8545592
  89.6137084  14.7801338  38.2685818  77.8519974  18.1914439  45.2276473
  78.7722983  18.3693038  45.4216520  77.8169557  17.2470484  45.0756172
  76.1524198  12.0646669  23.7030701  75.2455654  11.7679782  23.7793415
  76.4300179  11.7676487  22.8364988  67.0702139  13.3853032  34.1529748
  66.7504923  12.5318341  33.8604122  66.5235567  13.6001610  34.9087715
  70.8482046  16.1015473  37.8699254  71.0668056  17.0332581  37.8887288
  71.2607820  15.7423448  38.6554058  77.7686264   6.6083559  29.8574943
  76.9586993   6.2630644  30.2330189  78.4570681   6.2991102  30.4462554
  79.6976812   5.6861605  31.4799239  80.2507851   6.1057059  32.1389262
  79.9346899   4.7597354  31.5222195  75.7209912  11.6748679  47.2602003
  75.6206639  12.6243036  47.1914094  75.5031454  11.3466918  46.3878073
  74.9222983   8.9233604  23.8442681  75.7842147   9.2488502  24.1038498
  75.1073327   8.1365100  23.3315746  66.9390399  17.0055944  36.1222869
  66.2453870  16.5909897  35.6092824  67.6863390  17.0476480  35.5256288
  83.0755620   7.7962131  30.9877904  82.4954289   8.4546935  30.6055956
  82.8091552   6.9739475  30.5765321  81.5259186   7.1967188  33.1899224
  82.0258964   7.3083723  32.3813543  82.1694794   6.8928241  33.8300032
  75.5841182  15.1045818  46.0767065  75.1008263  15.9046178  46.2830954
  75.6702121  15.1153763  45.1234509  68.8527141  16.9374198  33.9988884
  68.8297829  17.0361885  33.0470767  69.1627778  17.7839348  34.3206050
  71.5114519  18.9950353  38.1135499  72.4657773  18.9634295  38.0465430
  71.3127043  18.5340976  38.9285725  72.1013901  17.5651469  40.6806296
  72.9206790  18.0595547  40.7041134  72.3750709  16.6483437  40.6523864
  81.8580498   9.9562221  30.0434252  80.9706353  10.2411872  29.8254447
  82.2734487   9.7955984  29.1961529  85.2095034   9.9808742  33.7588591
  85.9855424  10.4705194  34.0313208  84.4843168  10.4066796  34.2160461
  87.6467592  10.6936361  34.8162532  88.2412083  10.4532097  34.1055840
  87.7194176   9.9743492  35.4436068  69.8664748  24.5369972  35.1305696
  69.7319216  23.7770373  34.5643695  69.4496810  25.2610872  34.6634485
  81.0023711  19.7206896  24.1382272  81.7059561  19.9256898  24.7539927
  80.2786360  20.2883658  24.4031355  81.8321521  15.4716757  30.2584542
  81.7756723  15.9285308  29.4192174  82.3849864  14.7107442  30.0807385
  85.6426327  11.2606489  31.0834661  85.3863261  10.8603124  31.9142869
  85.0179195  11.9750283  30.9584801  89.9538665  14.0002562  33.5905953
  89.3938223  14.0695751  34.3637515  89.3482168  13.8243547  32.8705449
  73.0233874  25.4339289  35.3424139  72.9066258  26.3784722  35.2402829
  72.2026320  25.1312851  35.7309938  82.9110408  20.1589425  26.1880732
  83.7456012  19.7270623  26.0058207  82.7494751  19.9871439  27.1157626
  82.5656301  16.6621538  27.5537071  82.5105104  16.4965810  26.6125515
  81.9402356  17.3697571  27.7099261  67.3548816  11.8989603  41.3798493
  68.0007679  11.3888557  41.8685719  67.1465967  12.6358284  41.9541919
  79.8802208  18.9670450  46.8790634  80.7493367  19.1411102  46.5177269
  79.4008959  19.7864867  46.7566363  75.8752426   6.1629647  27.1322390
  75.8631096   7.1071487  27.2890660  76.7675848   5.9799793  26.8381851
  74.0488388  26.0867551  38.5580068  74.9515635  26.1191161  38.8746563
  73.8225758  25.1568002  38.5726403  75.8041990  24.8398538  35.2190146
  74.8537621  24.8400399  35.1054518  76.1074476  24.0931272  34.7026181
  71.6946307   9.0457220  45.4773508  72.5577768   8.6894024  45.6876832
  71.1211717   8.7071114  46.1648912  91.5394684  30.6759076  36.2835909
  92.1773093  30.5565823  35.5799249  91.4215526  31.6239920  36.3423861
  88.3484390  30.6286504  36.2197433  88.0102901  30.5127569  35.3317968
  89.2174158  30.2277669  36.1998439  86.0492669  29.3974751  25.5514373
  86.3018190  28.8756273  24.7897836  85.1117228  29.2340897  25.6541057
  91.0935952  28.4010530  33.3589117  91.8799041  27.9829953  33.0079534
  91.3574656  29.3056622  33.5270765  96.4944379  28.3385763  34.2622095
  97.2269551  27.7684980  34.4959925  95.7383735  27.9507363  34.7028601
  85.7688958  31.3002857  27.7538748  85.6525216  30.6247761  28.4219833
  85.8791218  30.8135231  26.9370901  88.1120499  30.7613005  31.4585438
  87.7478706  30.2343625  32.1698359  88.9687615  30.3711474  31.2851923
  94.0169799  22.0507337  38.7216704  93.6853124  22.9202748  38.4977919
  93.4215413  21.7343621  39.4010734  87.7525986  25.7902904  26.4546786
  87.9200388  26.6583141  26.8217257  87.5623155  25.9530186  25.5308075
  93.9098463  26.7702423  35.8010054  93.0015340  26.7017832  35.5068815
  93.8586059  27.2474368  36.6291879  87.7315207  28.2460562  27.4393453
  87.6114832  28.6917612  28.2778933  87.0367795  28.5945879  26.8806991
  87.9839329  28.1892069  43.7444951  87.2072663  28.7485989  43.7347816
  88.6229892  28.6748852  44.2659821  95.7760109  24.9718862  37.5787928
  95.1334489  25.2651395  36.9327722  95.2715038  24.8571782  38.3841124
  93.4300273  28.7182035  28.2673787  94.3418129  28.9509422  28.0921485
  92.9209920  29.3019079  27.7048866  88.0672111  28.0779269  39.2768636
  88.9133306  28.5018683  39.4203285  88.0070748  27.4212894  39.9707200
  92.0369855  33.7007853  35.6587368  91.4078718  33.8653567  34.9563436
  91.6495517  34.1149463  36.4298332  95.9159087  34.6362291  33.0131732
  95.2310125  35.0161193  32.4628765  96.0002936  35.2457618  33.7463680
  91.2171556  25.7383638  40.9349810  90.9732488  26.4925698  40.3984086
  91.4931486  26.1168985  41.7697057  90.7736248  24.8940071  36.5163648
  89.9120727  25.1921324  36.8080385  90.7998682  25.1110470  35.5844680
  86.5266703  29.5605414  29.7327019  87.2290746  30.0126457  30.2000945
  86.1947332  28.9189233  30.3606912  80.2692037  27.8188966  35.0344152
  79.4791091  28.0746495  34.5584263  80.7603284  28.6337304  35.1396193
  82.2206782  28.1833546  31.9927629  81.4237946  28.2952240  32.5111125
  81.9932375  28.5220198  31.1268519  78.5529740  28.0719457  37.4659143
  78.8037778  28.9566467  37.7316719  79.0889288  27.8924058  36.6934235
 102.3761840  31.5032954  34.1334405 101.6225548  30.9340352  33.9778409
 102.5109381  31.4695619  35.0805039  84.2527807  22.4537936  46.4703479
  83.8594753  21.9004135  47.1451123  85.0693948  22.7648515  46.8609997
  87.1695768  23.8695815  44.0623736  87.9105482  24.4702969  43.9828198
  87.4013691  23.1273453  43.5041778  91.1152931  19.8976918  38.3388017
  90.7717201  20.7878560  38.2627128  91.4831894  19.7078576  37.4757602
  91.0803214  29.8885529  26.8460452  90.5649837  30.6590134  27.0848840
  90.8080522  29.2150666  27.4693514  88.6650325  24.7335230  31.9045691
  87.8091921  24.3442081  31.7251330  89.0777277  24.8127191  31.0445476
  90.1949472  22.2681573  36.3037251  89.6914267  22.2311709  35.4905056
  90.4880079  23.1774316  36.3633907  86.4392358  22.3520303  35.3103432
  87.3045354  22.1563112  34.9509322  86.5069867  22.1230655  36.2372789
  96.0537488  32.6417884  28.7813626  95.2766931  32.3029044  28.3368788
  96.7328969  32.6470507  28.1068591  90.8689517  27.7612622  28.6720234
  90.5639653  28.0758771  29.5230377  91.8219959  27.8394041  28.7147567
  94.2928795  32.1151865  35.4380234  93.6352470  32.8051127  35.5260363
  95.0969194  32.5048297  35.7814220  84.0454677  24.5822511  32.6819799
  84.6198429  24.3597693  31.9492992  84.6325659  24.6511206  33.4348400
  93.1034254  30.4696238  33.4884176  93.6166136  31.1026230  33.9905885
  93.7535478  29.8697434  33.1227536  84.3724264  26.6126972  26.7015684
  83.5361576  26.9501659  27.0224959  84.2329033  26.4775952  25.7642821
  86.3477344  21.4563760  31.4094869  85.6941757  21.1412777  30.7851483
  86.3057819  20.8339500  32.1354692  87.4588549  31.7383055  23.3248161
  86.5515611  31.5072309  23.5239310  87.9559581  30.9420674  23.5122142
  89.5815085  27.9445694  35.7342516  88.6637646  28.1660641  35.5764204
  89.9975228  28.0192004  34.8754224  90.3650133  29.3437109  30.8645196
  91.1121951  29.8558506  30.5552319  90.6341722  29.0221162  31.7249590
  93.8696050  35.4502239  31.6163318  93.4158377  34.6093149  31.6728509
  93.2390017  36.0863638  31.9538098  92.8128970  26.3794225  32.8463986
  92.0751726  25.8671612  33.1774228  93.0655743  25.9394607  32.0347263
  92.3128989  37.2878736  32.5513136  92.6051964  37.8483793  31.8325502
  92.8227610  37.5807297  33.3066296  92.9140597  19.1570477  33.4405755
  93.2199474  18.2967841  33.1531670  93.6393202  19.7488098  33.2404749
  87.1861677  29.4524271  33.9481946  87.2410287  28.4998107  33.8724423
  86.3752879  29.6083710  34.4323245  85.1254037  28.0701330  31.7072325
  84.3121902  28.3695501  32.1137517  85.6213031  27.6757019  32.4246807
  90.7228248  28.5343155  40.5387219  91.0777636  28.7614628  41.3981685
  91.3700380  28.8661532  39.9164474  96.4525985  31.6561591  31.2436548
  96.3143884  31.8463187  30.3157737  96.0962204  32.4180973  31.7004599
  84.6168111  25.6419686  37.3233560  85.2567491  25.5008445  36.6256523
  83.7845642  25.3554199  36.9472162  96.4795365  33.7238118  36.2547819
  96.9131872  33.6313407  37.1030873  97.1926946  33.6995618  35.6167835
  81.7011179  29.0865198  29.5128305  80.7708767  29.0249653  29.7298267
  81.7968651  28.5641151  28.7164946  81.6196728  25.6120011  32.1006547
  81.8803545  26.5265344  31.9915707  82.4413900  25.1444453  32.2503160
  83.0921653  27.0257768  39.2705371  83.7644707  26.8175130  38.6218020
  82.2651440  26.8279854  38.8310604  97.3410914  33.7661818  38.7880705
  97.5346805  34.6707629  39.0339980  97.2411533  33.3069237  39.6219290
  88.9947225  23.6519709  41.2871032  88.3475140  24.3509659  41.1935509
  89.7648241  24.0855853  41.6547280  92.4564098  32.2388775  24.7792287
  91.8393269  31.5135603  24.6825340  91.9880587  32.9998136  24.4359361
  84.8360385  26.9985548  41.3387128  84.2997742  26.5476287  41.9908724
  84.2477094  27.1331457  40.5957592  84.2462644  26.4574200  23.9013591
  83.3692110  26.3363000  23.5375838  84.7220397  25.6660278  23.6492480
  80.5699506  26.1341556  38.4240122  80.4857695  25.5267225  37.6890532
  79.7482213  26.6250574  38.4249618  90.7423220  24.6195119  33.7910317
  91.2391920  23.8665082  33.4711387  89.9710202  24.6559436  33.2253526
  98.5952978  30.3235485  35.4328609  98.5842854  31.2060200  35.0622542
  97.7270357  29.9707036  35.2383146  91.8253001  33.3766807  31.3648740
  90.8909280  33.4968269  31.1953445  92.0029669  32.4739273  31.1008750
  87.3258189  26.7612502  33.5182002  86.9555976  26.2083543  34.2062907
  87.8217281  26.1570636  32.9657002  95.2125552  29.2184126  31.8998775
  95.6786004  30.0512117  31.8259077  95.6633053  28.7529107  32.6044033
  93.2801783  35.5627947  28.8984927  93.5561627  35.4484542  29.8078801
  92.4106282  35.1645432  28.8597100  93.1842215  21.5864713  35.9389676
  92.2705295  21.8168940  36.1071883  93.6135316  21.6703157  36.7903708
  92.9548673  29.7754605  38.4389570  92.3020124  30.0230512  37.7842023
  93.3329053  28.9618743  38.1052047  89.9155847  39.8114298  32.5417740
  90.0978242  38.9935954  33.0045493  90.7388833  40.0281990  32.1042630
  90.2498013  38.7382483  29.8032789  90.7785779  38.2274938  29.1902951
  90.5126232  38.4225013  30.6678322  82.7223523  24.1716493  39.7635108
  82.7864849  25.0331324  39.3512505  82.6590643  23.5590495  39.0307466
  78.9741338  28.0516055  29.3426497  79.2694779  27.1426733  29.2893551
  78.0729374  28.0303794  29.0207499  82.5035585  26.1272051  35.3254045
  81.7822171  26.7408019  35.1861519  83.2928841  26.6629816  35.2470691
  85.3061898  23.4626478  41.5994697  85.8296300  23.7088774  42.3621007
  85.0874232  24.2946513  41.1797835  80.7029179  25.7330152  29.4665822
  80.3741886  24.8527531  29.2840928  81.0568550  25.6777821  30.3542211
  83.8171003  26.0203122  29.8341300  84.1567075  26.5489044  29.1119908
  84.2643123  26.3583528  30.6099866  86.5114443  24.4040173  39.2844368
  86.1711264  23.6047986  39.6865048  85.8053450  24.7041884  38.7121201
  87.1630915  21.4889485  37.7371691  87.9856985  21.0149964  37.6150581
  87.4068979  22.2679969  38.2370377  85.8039150  24.5177744  28.0334592
  86.5247512  24.8958997  27.5298309  85.1804454  25.2366621  28.1369570
  89.9470273  25.2222893  28.9692925  90.1633887  26.1047531  28.6681753
  89.4664340  24.8309106  28.2398567  84.6869494  28.1808606  35.5463669
  84.5414075  28.4948909  36.4387951  84.2094698  28.7993506  34.9934568
  86.5465877  25.1711154  35.5944559  86.5327446  24.2752247  35.2576857
  87.2638305  25.1781818  36.2282845  88.3992008  25.6048494  37.6397686
  88.1409785  26.5265565  37.6382017  87.8677048  25.2078929  38.3298150
  93.3438196  38.7099281  30.4187772  93.5175074  38.1445704  29.6661624
  93.8367088  39.5100176  30.2367262  85.9502773  24.0525534  30.8632129
  86.0718684  23.1242181  31.0623017  85.6604815  24.0664220  29.9510444
  88.8193963  21.7380445  33.9998849  88.8415660  21.8019778  33.0450828
  89.2362022  20.8984953  34.1939355  99.1977588  31.4735704  32.0378071
  99.6408734  30.7243030  31.6397195  98.3204098  31.4645841  31.6551803
  94.3313369  38.0266046  27.5184670  95.0264273  38.6472738  27.7371985
  94.6736519  37.1761397  27.7937048  96.2304792  35.4765751  29.0472001
  96.7556116  35.8153024  28.3221321  96.1427145  34.5412767  28.8635135
  95.9198698  36.1098655  44.3523199  95.1294242  36.0922794  43.8127698
  95.6832053  36.6486949  45.1072235  96.0396573  32.9591121  41.6655927
  96.0894578  32.7941129  42.6071450  95.9310496  32.0918380  41.2753808
  93.3300335  28.9422049  42.9815234  94.2310198  28.8028514  42.6899232
  93.4048310  29.1076504  43.9213411  87.6643141  26.3188904  41.8268420
  86.7946450  26.6122470  41.5551009  87.9002621  26.9029349  42.5475684
  97.5414770  35.3788063  41.9097949  97.2499578  35.7418043  42.7461410
  96.9286901  34.6655071  41.7311281  98.7410452  32.9440943  34.4300519
  99.5757344  33.3830747  34.5938079  98.8769581  32.4679596  33.6108765
  95.7901958  30.5020677  40.3778007  96.2656080  30.6948324  39.5696858
  94.8667524  30.5579863  40.1321390  90.3682175  22.5368521  39.3433841
  90.8864119  23.2729548  39.0180329  90.0137307  22.8432514  40.1780600
  81.9481112  27.3973202  27.4595247  81.2550357  27.4717557  26.8035283
  81.7032864  26.6333546  27.9816763  90.6194769  18.9568804  34.8634737
  90.8996523  18.2891993  35.4895164  91.4045376  19.1497899  34.3509401
  94.4903627  27.3786438  38.6106312  95.4421050  27.4784535  38.6318536
  94.3207078  26.5864706  39.1204397  92.5118007  24.4642021  38.7965713
  91.9167939  24.7447033  38.1012202  92.2267703  24.9535922  39.5682454
  91.6425497  38.4164948  27.5568346  92.5756170  38.3510509  27.7601221
  91.5548710  39.2521214  27.0982879  94.2713514  37.7330818  24.5172293
  94.1927145  37.3990682  25.4108051  95.0923181  38.2252586  24.5163766
  96.9691705  30.5992557  37.7248612  96.9368025  29.6608558  37.9108296
  97.5792329  30.6776594  36.9914437  88.8075036  29.4688610  23.7675816
  89.7534141  29.3394818  23.8364234  88.4289281  28.7303272  24.2445244
  97.1186193  27.3903601  37.7706895  96.6025242  26.6062057  37.5836824
  98.0026142  27.0622317  37.9353415  94.7796920  21.1344616  33.7302708
  94.5821741  20.8259704  34.6146040  95.3896626  21.8606255  33.8600638
 102.7868255  31.6608564  36.8654649 103.5171643  31.3993852  37.4262352
 102.1775200  30.9237286  36.9056717 100.8683552  29.8016427  37.4629100
 100.1416715  29.6672392  36.8545592 100.4530839  30.1093255  38.2685818
  86.9917953  27.3938587  23.7030701  86.0849408  27.0971699  23.7793415
  87.2693934  27.0968405  22.8364988  88.6080019  21.9375476  29.8574943
  87.7980747  21.5922561  30.2330189  89.2964436  21.6283020  30.4462554
  90.5370567  21.0153523  31.4799239  91.0901606  21.4348977  32.1389262
  90.7740653  20.0889271  31.5222195  86.5603666  27.0040597  47.2602003
  86.4600393  27.9534954  47.1914094  86.3425208  26.6758836  46.3878073
  85.7616738  24.2525522  23.8442681  86.6235902  24.5780420  24.1038498
  85.9467082  23.4657018  23.3315746  93.9149374  23.1254048  30.9877904
  93.3348043  23.7838852  30.6055956  93.6485307  22.3031393  30.5765321
  92.3652940  22.5259106  33.1899224  92.8652719  22.6375641  32.3813543
  93.0088548  22.2220159  33.8300032  92.6974252  25.2854139  30.0434252
  91.8100107  25.5703789  29.8254447  93.1128241  25.1247902  29.1961529
  96.0488788  25.3100660  33.7588591  96.8249178  25.7997112  34.0313208
  95.3236922  25.7358714  34.2160461  98.4861347  26.0228279  34.8162532
  99.0805838  25.7824015  34.1055840  98.5587931  25.3035409  35.4436068
  91.8417466  35.0498813  24.1382272  92.5453316  35.2548816  24.7539927
  91.1180114  35.6175575  24.4031355  92.6715276  30.8008675  30.2584542
  92.6150477  31.2577226  29.4192174  93.2243618  30.0399359  30.0807385
  96.4820082  26.5898406  31.0834661  96.2257016  26.1895042  31.9142869
  95.8572950  27.3042200  30.9584801 100.7932420  29.3294480  33.5905953
 100.2331978  29.3987669  34.3637515 100.1875923  29.1535464  32.8705449
  93.7504163  35.4881343  26.1880732  94.5849767  35.0562541  26.0058207
  93.5888506  35.3163356  27.1157626  93.4050055  31.9913456  27.5537071
  93.3498859  31.8257727  26.6125515  92.7796110  32.6989489  27.7099261
  86.7146181  21.4921565  27.1322390  86.7024850  22.4363405  27.2890660
  87.6069602  21.3091710  26.8381851  90.5298300  18.0864341  31.3868326
  89.7630696  17.5322828  31.5325009  90.9409005  18.1586210  32.2482478
 102.3788438  46.0050994  36.2835909 103.0166848  45.8857741  35.5799249
 102.2609281  46.9531838  36.3423861  99.1878144  45.9578422  36.2197433
  98.8496656  45.8419486  35.3317968 100.0567913  45.5569587  36.1998439
  99.6697927  47.1113273  42.1783639  99.6586568  46.7166072  41.3064142
  99.8318567  46.3779346  42.7717410 100.6264519  51.4784866  27.5208789
  99.9752498  52.0638946  27.1342803 101.4208882  52.0091061  27.5803827
  94.5520146  48.5674003  27.9195923  95.3251022  48.0202990  27.7808799
  94.9045545  49.4318252  28.1310385  96.3905188  49.8950385  41.1262823
  96.0995054  50.7996016  41.0109489  97.0262173  49.9366913  41.8406892
  96.8886424  44.7266669  25.5514373  97.1411944  44.2048190  24.7897836
  95.9510983  44.5632815  25.6541057 101.9329707  43.7302447  33.3589117
 102.7192796  43.3121871  33.0079534 102.1968411  44.6348540  33.5270765
 102.1039784  49.1675298  28.0577773 101.4685617  49.2409924  28.7698678
 101.7737190  49.7568897  27.3796853 107.3338134  43.6677681  34.2622095
 108.0663306  43.0976898  34.4959925 106.5777489  43.2799281  34.7028601
  96.6082712  46.6294775  27.7538748  96.4918971  45.9539678  28.4219833
  96.7184972  46.1427149  26.9370901  98.9514253  46.0904922  31.4585438
  98.5872461  45.5635543  32.1698359  99.8081369  45.7003391  31.2851923
 104.8563554  37.3799255  38.7216704 104.5246879  38.2494666  38.4977919
 104.2609167  37.0635539  39.4010734  98.5919740  41.1194822  26.4546786
  98.7594143  41.9875058  26.8217257  98.4016909  41.2822104  25.5308075
 101.3495074  49.5811801  38.1212616 101.0495797  50.4836840  38.0128424
 101.0046133  49.3143984  38.9733769 104.7492217  42.0994341  35.8010054
 103.8409095  42.0309749  35.5068815 104.6979813  42.5766286  36.6291879
  98.5708961  43.5752479  27.4393453  98.4508586  44.0209530  28.2778933
  97.8761550  43.9237797  26.8806991  98.8233083  43.5183987  43.7444951
  98.0466417  44.0777907  43.7347816  99.4623646  44.0040770  44.2659821
 106.6153864  40.3010779  37.5787928 105.9728244  40.5943313  36.9327722
 106.1108792  40.1863700  38.3841124 104.2694027  44.0473953  28.2673787
 105.1811883  44.2801339  28.0921485 103.7603674  44.6310997  27.7048866
  97.0779455  46.3269440  43.3062918  97.8194140  46.8654484  43.0297742
  96.3716441  46.9535729  43.4634470 102.5534795  48.4698580  41.9035080
 102.9618151  48.0280991  41.1589712 101.8312057  47.8951208  42.1569272
  98.9065865  43.4071187  39.2768636  99.7527060  43.8310601  39.4203285
  98.8464503  42.7504811  39.9707200 102.8763610  49.0299771  35.6587368
 102.2472472  49.1945485  34.9563436 102.4889272  49.4441381  36.4298332
 106.7552842  49.9654209  33.0131732 106.0703880  50.3453110  32.4628765
 106.8396691  50.5749536  33.7463680 102.0565310  41.0675556  40.9349810
 101.8126242  41.8217616  40.3984086 102.3325241  41.4460903  41.7697057
 104.0103773  47.6114168  39.6127076 104.2220668  48.2545928  38.9361457
 103.9633521  46.7776484  39.1449006 101.6130002  40.2231989  36.5163648
 100.7514481  40.5213242  36.8080385 101.6392437  40.4402387  35.5844680
  97.3660458  44.8897331  29.7327019  98.0684501  45.3418375  30.2000945
  97.0341086  44.2481150  30.3606912  95.8140819  43.4809088  44.1078228
  95.1839480  44.1625369  44.3413625  95.7076907  43.3692170  43.1631366
  91.1085792  43.1480884  35.0344152  90.3184846  43.4038413  34.5584263
  91.5997039  43.9629222  35.1396193 105.1249601  50.4886123  37.7849433
 105.9467045  50.0866311  37.5032115 105.1212004  50.3854357  38.7365549
  93.0600537  43.5125463  31.9927629  92.2631700  43.6244158  32.5111125
  92.8326129  43.8512116  31.1268519  89.3923495  43.4011375  37.4659143
  89.6431533  44.2858385  37.7316719  89.9283043  43.2215976  36.6934235
 113.2155594  46.8324872  34.1334405 112.4619303  46.2632270  33.9778409
 113.3503135  46.7987536  35.0805039  98.6054222  51.7038274  29.8089124
  98.4699897  52.5489810  30.2373972  99.1464035  51.9057552  29.0455058
  98.0089523  39.1987733  44.0623736  98.7499236  39.7994886  43.9828198
  98.2407446  38.4565371  43.5041778  93.1530861  44.3844100  42.3401965
  93.0384376  43.4829358  42.6409064  92.2975379  44.6307797  41.9886782
 100.2322699  52.3261841  43.9389466  99.7886553  51.5398219  43.6210370
 100.8939912  52.5140991  43.2733357 102.3303937  52.6064641  41.9670867
 102.3122412  53.4273522  41.4751136 103.2523857  52.4818716  42.1921008
  98.7876991  50.1208770  42.8094376  99.3205328  49.3597058  42.5793684
  98.2591072  49.8282422  43.5518530 101.9546686  35.2268836  38.3388017
 101.6110955  36.1170478  38.2627128 102.3225648  35.0370494  37.4757602
 101.9196969  45.2177447  26.8460452 101.4043592  45.9882052  27.0848840
 101.6474277  44.5442583  27.4693514  99.5044080  40.0627148  31.9045691
  98.6485676  39.6733998  31.7251330  99.9171031  40.1419109  31.0445476
 101.0343226  37.5973491  36.3037251 100.5308022  37.5603626  35.4905056
 101.3273833  38.5066234  36.3633907  97.2786112  37.6812221  35.3103432
  98.1439109  37.4855030  34.9509322  97.3463621  37.4522573  36.2372789
 106.8931243  47.9709802  28.7813626 106.1160685  47.6320961  28.3368788
 107.5722724  47.9762425  28.1068591 101.7083272  43.0904539  28.6720234
 101.4033407  43.4050688  29.5230377 102.6613714  43.1685959  28.7147567
 100.1529704  49.2494763  30.3213188  99.6251065  48.5147522  30.0086425
  99.6517206  50.0269439  30.0753156 105.1322550  47.4443783  35.4380234
 104.4746224  48.1343044  35.5260363 105.9362949  47.8340215  35.7814220
  94.8848431  39.9114429  32.6819799  95.4592183  39.6889610  31.9492992
  95.4719414  39.9803123  33.4348400 103.9428008  45.7988156  33.4884176
 104.4559890  46.4318148  33.9905885 104.5929232  45.1989351  33.1227536
  95.2118018  41.9418890  26.7015684  94.3755331  42.2793576  27.0224959
  95.0722788  41.8067870  25.7642821  97.1871099  36.7855678  31.4094869
  96.5335511  36.4704695  30.7851483  97.1451573  36.1631418  32.1354692
  98.2982304  47.0674973  23.3248161  97.3909365  46.8364226  23.5239310
  98.7953336  46.2712592  23.5122142 101.2050383  55.7772480  26.2444847
 100.5312081  56.0804177  26.8529805 101.5916205  56.5801560  25.8950304
 100.4208839  43.2737611  35.7342516  99.5031401  43.4952558  35.5764204
 100.8368983  43.3483922  34.8754224 101.2043887  44.6729027  30.8645196
 101.9515706  45.1850424  30.5552319 101.4735477  44.3513080  31.7249590
  99.4770537  47.1687568  27.8472151  98.5681756  46.8846600  27.9444620
  99.5065621  47.5886646  26.9875458 104.7089805  50.7794157  31.6163318
 104.2552132  49.9385067  31.6728509 104.0783771  51.4155556  31.9538098
 103.6522724  41.7086143  32.8463986 102.9145481  41.1963529  33.1774228
 103.9049498  41.2686525  32.0347263 103.1522744  52.6170654  32.5513136
 103.4445718  53.1775711  31.8325502 103.6621364  52.9099215  33.3066296
 103.7534351  34.4862395  33.4405755 104.0593228  33.6259759  33.1531670
 104.4786956  35.0780015  33.2404749  90.0458708  44.8893082  31.8287353
  89.8483107  44.2962442  31.1038420  89.4905372  44.5845292  32.5463292
  98.0255431  44.7816188  33.9481946  98.0804041  43.8290025  33.8724423
  97.2146633  44.9375627  34.4323245  99.1746625  48.7096311  25.1860229
  98.7366055  47.9932170  24.7265867  99.9157066  48.9372426  24.6245321
  95.9647791  43.3993248  31.7072325  95.1515657  43.6987419  32.1137517
  96.4606785  43.0048937  32.4246807 101.5622003  43.8635072  40.5387219
 101.9171391  44.0906546  41.3981685 102.2094134  44.1953449  39.9164474
 107.2919740  46.9853508  31.2436548 107.1537638  47.1755104  30.3157737
 106.9355959  47.7472891  31.7004599 107.3189119  49.0530035  36.2547819
 107.7525626  48.9605324  37.1030873 108.0320700  49.0287536  35.6167835
  92.5404933  44.4157116  29.5128305  91.6102521  44.3541571  29.7298267
  92.6362405  43.8933068  28.7164946  92.4590482  40.9411928  32.1006547
  92.7197300  41.8557262  31.9915707  93.2807655  40.4736371  32.2503160
 108.1804669  49.0953736  38.7880705 108.3740559  49.9999547  39.0339980
 108.0805287  48.6361155  39.6219290  99.8340980  38.9811627  41.2871032
  99.1868895  39.6801576  41.1935509 100.6041995  39.4147771  41.6547280
 103.2419778  49.2460479  44.3621585 103.0905284  49.0171030  43.4451669
 103.2324457  50.2031080  44.3752930 100.0105114  46.8192391  39.3467852
 100.9397174  46.9703551  39.1736819  99.5896144  46.9076412  38.4916498
  99.4041598  55.9452152  28.4591926  99.5793353  55.4740196  29.2737549
  98.7174386  56.5717919  28.6873187 100.3598661  50.2224659  34.5055227
 100.0248494  50.1825429  35.4012877  99.8602607  49.5569375  34.0325637
  94.3342905  45.6292289  40.0307808  94.1962703  44.8972527  40.6319347
  95.2447828  45.5401189  39.7491996 103.2957853  47.5680693  24.7792287
 102.6787023  46.8427521  24.6825340 102.8274341  48.3290053  24.4359361
  96.9625206  45.3412248  39.5191488  97.6724824  44.7005440  39.4778106
  96.9194514  45.5925143  40.4417669 104.9511984  52.2779601  42.4398067
 104.8924530  51.5938821  41.7728650 105.3531503  53.0198591  41.9878693
  95.6754140  42.3277466  41.3387128  95.1391497  41.8768204  41.9908724
  95.0870848  42.4623375  40.5957592  95.0856398  41.7866117  23.9013591
  94.2085865  41.6654918  23.5375838  95.5614152  40.9952196  23.6492480
 104.9529392  50.2419185  40.6712047 104.0656170  49.9045107  40.7938446
 105.5227943  49.5102216  40.9080812 101.5816975  39.9487037  33.7910317
 102.0785674  39.1956999  33.4711387 100.8103956  39.9851354  33.2253526
 109.4346732  45.6527403  35.4328609 109.4236608  46.5352118  35.0622542
 108.5664111  45.2998953  35.2383146 102.6646755  48.7058724  31.3648740
 101.7303034  48.8260187  31.1953445 102.8423424  47.8031191  31.1008750
  98.1651943  42.0904420  33.5182002  97.7949731  41.5375460  34.2062907
  98.6611036  41.4862554  32.9657002 106.0519307  44.5476044  31.8998775
 106.5179759  45.3804035  31.8259077 106.5026807  44.0821025  32.6044033
 104.1195538  50.8919865  28.8984927 104.3955382  50.7776459  29.8078801
 103.2500037  50.4937350  28.8597100 104.0235969  36.9156631  35.9389676
 103.1099049  37.1460857  36.1071883 104.4529071  36.9995075  36.7903708
 103.7942428  45.1046523  38.4389570 103.1413878  45.3522430  37.7842023
 104.1722808  44.2910661  38.1052047 100.7549602  55.1406216  32.5417740
 100.9371996  54.3227872  33.0045493 101.5782588  55.3573908  32.1042630
 101.0891767  54.0674401  29.8032789 101.6179534  53.5566855  29.1902951
 101.3519987  53.7516931  30.6678322  99.8430001  45.8466334  44.9255607
  99.1670638  45.7460463  45.5957982 100.6657635  45.6905547  45.3891604
  93.0369550  41.5731543  43.4108142  93.6641588  41.1908621  44.0245666
  92.1797468  41.3545745  43.7763835 103.4363658  51.9794519  45.0161877
 103.9803562  52.5924477  44.5216832 102.8550503  52.5374097  45.5328890
  89.8135092  43.3807973  29.3426497  90.1088533  42.4718651  29.2893551
  88.9123128  43.3595712  29.0207499 101.7221171  55.1015237  36.1476905
 101.5972311  54.3004976  35.6387851 102.3800262  55.5961430  35.6590875
 103.7856079  52.9024257  37.7756455 102.8386415  52.7829608  37.7034782
 104.1338853  52.0146755  37.8582717  91.5422934  41.0622070  29.4665822
  91.2135640  40.1819449  29.2840928  91.8962305  41.0069739  30.3542211
 100.7902513  52.6976973  33.9760808 100.6427475  51.7693680  34.1568378
 101.6156006  52.7197064  33.4917883  94.6564757  41.3495040  29.8341300
  94.9960830  41.8780961  29.1119908  95.1036878  41.6875446  30.6099866
 104.3936635  53.5205532  35.0625680 105.3183182  53.3148393  34.9250131
 104.2251938  53.2721933  35.9715022  98.0024670  36.8181403  37.7371691
  98.8250739  36.3441881  37.6150581  98.2462733  37.5971887  38.2370377
  96.6432904  39.8469662  28.0334592  97.3641267  40.2250914  27.5298309
  96.0198208  40.5658538  28.1369570 100.7864027  40.5514811  28.9692925
 101.0027641  41.4339448  28.6681753 100.3058094  40.1601024  28.2398567
  95.5263248  43.5100524  35.5463669  95.3807829  43.8240827  36.4387951
  95.0488452  44.1285424  34.9934568  97.3859631  40.5003072  35.5944559
  97.3721200  39.6044165  35.2576857  98.1032059  40.5073735  36.2282845
  99.2385762  40.9340412  37.6397686  98.9803540  41.8557483  37.6382017
  98.7070802  40.5370846  38.3298150 104.1831951  54.0391199  30.4187772
 104.3568828  53.4737622  29.6661624 104.6760842  54.8392094  30.2367262
  96.7896527  39.3817452  30.8632129  96.9112438  38.4534098  31.0623017
  96.4998570  39.3956138  29.9510444  99.6587718  37.0672362  33.9998849
  99.6809415  37.1311696  33.0450828 100.0755777  36.2276871  34.1939355
 110.0371342  46.8027622  32.0378071 110.4802488  46.0534947  31.6397195
 109.1597852  46.7937758  31.6551803 105.1707123  53.3557963  27.5184670
 105.8658028  53.9764656  27.7371985 105.5130273  52.5053315  27.7937048
  90.7874933  45.1775764  41.3781487  90.0456669  45.3258400  41.9646118
  90.4667677  45.4384030  40.5148237 107.0698546  50.8057669  29.0472001
 107.5949871  51.1444942  28.3221321 106.9820899  49.8704684  28.8635135
  96.2737607  40.8949449  45.0722062  96.3225762  41.7711572  44.6899831
  96.8160121  40.3526842  44.4993705 106.7592453  51.4390573  44.3523199
 105.9687996  51.4214711  43.8127698 106.5225807  51.9778866  45.1072235
 106.8790328  48.2883039  41.6655927 106.9288333  48.1233046  42.6071450
 106.7704251  47.4210298  41.2753808  95.7626586  50.9671585  28.9548016
  95.9114707  51.6507049  28.3014689  96.5693030  50.9476675  29.4697472
 104.1694090  44.2713967  42.9815234 105.0703953  44.1320432  42.6899232
 104.2442064  44.4368422  43.9213411  98.5036895  41.6480822  41.8268420
  97.6340205  41.9414388  41.5551009  98.7396376  42.2321267  42.5475684
 108.3808524  50.7079981  41.9097949 108.0893333  51.0709961  42.7461410
 107.7680656  49.9946989  41.7311281 109.5804207  48.2732860  34.4300519
 110.4151098  48.7122664  34.5938079 109.7163336  47.7971514  33.6108765
 106.6295713  45.8312595  40.3778007 107.1049834  46.0240241  39.5696858
 105.7061278  45.8871781  40.1321390  93.5179219  46.9936762  29.9609085
  93.2725261  46.0899092  30.1589295  93.6875134  46.9953913  29.0188563
 101.2075929  37.8660439  39.3433841 101.7257873  38.6021466  39.0180329
 100.8531062  38.1724432  40.1780600  92.7874867  42.7265120  27.4595247
  92.0944112  42.8009475  26.8035283  92.5426619  41.9625464  27.9816763
 101.4588523  34.2860721  34.8634737 101.7390277  33.6183910  35.4895164
 102.2439130  34.4789817  34.3509401  99.2621992  53.4619715  26.4259764
  98.6895959  54.0809902  25.9730235  99.8354785  54.0119077  26.9599686
 105.3297382  42.7078355  38.6106312 106.2814805  42.8076453  38.6318536
 105.1600832  41.9156624  39.1204397 103.3511761  39.7933938  38.7965713
 102.7561693  40.0738951  38.1012202 103.0661458  40.2827839  39.5682454
 102.4819252  53.7456865  27.5568346 103.4149925  53.6802427  27.7601221
 102.3942464  54.5813132  27.0982879 105.1107268  53.0622736  24.5172293
 105.0320900  52.7282599  25.4108051 105.9316935  53.5544504  24.5163766
 107.8085459  45.9284475  37.7248612 107.7761780  44.9900476  37.9108296
 108.4186083  46.0068512  36.9914437  99.6468790  44.7980528  23.7675816
 100.5927895  44.6686736  23.8364234  99.2683035  44.0595190  24.2445244
 107.9579948  42.7195518  37.7706895 107.4418997  41.9353975  37.5836824
 108.8419896  42.3914235  37.9353415 105.6190675  36.4636534  33.7302708
 105.4215496  36.1551622  34.6146040 106.2290380  37.1898173  33.8600638
 113.6262009  46.9900482  36.8654649 114.3565398  46.7285770  37.4262352
 113.0168955  46.2529204  36.9056717 111.7077306  45.1308344  37.4629100
 110.9810470  44.9964309  36.8545592 111.2924593  45.4385173  38.2685818
  99.5307483  48.8498274  45.2276473 100.4510492  49.0276873  45.4216520
  99.4957066  47.9054319  45.0756172  97.8311707  42.7230504  23.7030701
  96.9243163  42.4263617  23.7793415  98.1087688  42.4260322  22.8364988
  88.7489648  44.0436868  34.1529748  88.4292432  43.1902176  33.8604122
  88.2023076  44.2585446  34.9087715  99.4473773  37.2667394  29.8574943
  98.6374501  36.9214479  30.2330189 100.1358190  36.9574938  30.4462554
 101.3764321  36.3445441  31.4799239 101.9295360  36.7640894  32.1389262
 101.6134408  35.4181189  31.5222195  97.3997421  42.3332514  47.2602003
  97.2994148  43.2826871  47.1914094  97.1818963  42.0050753  46.3878073
  96.6010492  39.5817440  23.8442681  97.4629656  39.9072338  24.1038498
  96.7860836  38.7948935  23.3315746 104.7543129  38.4545966  30.9877904
 104.1741798  39.1130770  30.6055956 104.4879061  37.6323311  30.5765321
 103.2046695  37.8551024  33.1899224 103.7046473  37.9667558  32.3813543
 103.8482303  37.5512077  33.8300032  97.2628691  45.7629653  46.0767065
  96.7795772  46.5630013  46.2830954  97.3489630  45.7737598  45.1234509
 103.5368007  40.6146056  30.0434252 102.6493862  40.8995707  29.8254447
 103.9521996  40.4539820  29.1961529 106.8882543  40.6392577  33.7588591
 107.6642933  41.1289030  34.0313208 106.1630677  41.0650632  34.2160461
 109.3255101  41.3520197  34.8162532 109.9199592  41.1115933  34.1055840
 109.3981685  40.6327327  35.4436068 102.6811220  50.3790731  24.1382272
 103.3847070  50.5840734  24.7539927 101.9573869  50.9467493  24.4031355
 103.5109030  46.1300592  30.2584542 103.4544232  46.5869144  29.4192174
 104.0637373  45.3691277  30.0807385 107.3213836  41.9190324  31.0834661
 107.0650770  41.5186960  31.9142869 106.6966704  42.6334118  30.9584801
 111.6326174  44.6586397  33.5905953 111.0725732  44.7279587  34.3637515
 111.0269677  44.4827382  32.8705449 104.5897917  50.8173260  26.1880732
 105.4243521  50.3854459  26.0058207 104.4282260  50.6455274  27.1157626
 104.2443810  47.3205374  27.5537071 104.1892613  47.1549645  26.6125515
 103.6189865  48.0281406  27.7099261 101.5589717  49.6254285  46.8790634
 102.4280876  49.7994938  46.5177269 101.0796468  50.4448702  46.7566363
  97.5539935  36.8213483  27.1322390  97.5418605  37.7655322  27.2890660
  98.4463357  36.6383628  26.8381851 101.3692055  33.4156259  31.3868326
 100.6024450  32.8614746  31.5325009 101.7802759  33.4878128  32.2482478
  93.3733816  39.7041055  45.4773508  94.2365277  39.3477860  45.6876832
  92.7999226  39.3654950  46.1648912 113.2182193  61.3342911  36.2835909
 113.8560602  61.2149659  35.5799249 113.1003035  62.2823755  36.3423861
 110.0271899  61.2870339  36.2197433 109.6890410  61.1711404  35.3317968
 110.8961667  60.8861505  36.1998439 105.8858714  63.1405816  32.2094324
 105.3223580  63.0495753  31.4410612 105.7711110  62.3205720  32.6896817
 110.5091682  62.4405191  42.1783639 110.4980323  62.0457989  41.3064142
 110.6712321  61.7071264  42.7717410 103.4323146  64.6357007  35.0478545
 104.2244438  64.2947832  34.6324844 103.6719797  64.7451982  35.9680698
 111.4658273  66.8076784  27.5208789 110.8146253  67.3930864  27.1342803
 112.2602636  67.3382978  27.5803827 105.3913900  63.8965921  27.9195923
 106.1644776  63.3494908  27.7808799 105.7439299  64.7610170  28.1310385
 107.2298943  65.2242303  41.1262823 106.9388809  66.1287934  41.0109489
 107.8655927  65.2658831  41.8406892 108.1555150  62.6019151  37.7164182
 108.7518722  62.3775174  37.0021145 108.2130121  61.8603897  38.3189630
 107.7280178  60.0558587  25.5514373 107.9805699  59.5340108  24.7897836
 106.7904737  59.8924732  25.6541057 112.7723461  59.0594365  33.3589117
 113.5586550  58.6413788  33.0079534 113.0362165  59.9640457  33.5270765
 112.9433538  64.4967215  28.0577773 112.3079371  64.5701842  28.7698678
 112.6130945  65.0860814  27.3796853 118.1731888  58.9969598  34.2622095
 118.9057060  58.4268815  34.4959925 117.4171244  58.6091199  34.7028601
 107.4476467  61.9586693  27.7538748 107.3312725  61.2831596  28.4219833
 107.5578727  61.4719067  26.9370901 109.7908008  61.4196840  31.4585438
 109.4266215  60.8927461  32.1698359 110.6475124  61.0295309  31.2851923
 115.6957308  52.7091172  38.7216704 115.3640633  53.5786583  38.4977919
 115.1002922  52.3927456  39.4010734 109.4313495  56.4486740  26.4546786
 109.5987897  57.3166976  26.8217257 109.2410664  56.6114021  25.5308075
 112.1888828  64.9103718  38.1212616 111.8889551  65.8128757  38.0128424
 111.8439888  64.6435902  38.9733769 105.6401309  61.3617515  34.1549321
 104.7151806  61.2293729  34.3627013 105.8885723  62.1411735  34.6519263
 115.5885972  57.4286259  35.8010054 114.6802849  57.3601667  35.5068815
 115.5373568  57.9058204  36.6291879 109.4102716  58.9044397  27.4393453
 109.2902341  59.3501448  28.2778933 108.7155304  59.2529715  26.8806991
 103.0010121  61.0050789  34.9893110 103.1302502  61.2585268  35.9032522
 102.3207572  61.5978497  34.6697765 107.1709608  71.6748039  31.0883584
 107.0933638  72.6255864  31.1672065 106.5671251  71.3293911  31.7458510
 109.6626838  58.8475904  43.7444951 108.8860172  59.4069824  43.7347816
 110.3017401  59.3332687  44.2659821 117.4547618  55.6302697  37.5787928
 116.8121998  55.9235230  36.9327722 116.9502547  55.5155617  38.3841124
 115.1087782  59.3765870  28.2673787 116.0205638  59.6093257  28.0921485
 114.5997429  59.9602914  27.7048866 107.9173210  61.6561358  43.3062918
 108.6587894  62.1946402  43.0297742 107.2110195  62.2827646  43.4634470
 113.3928550  63.7990498  41.9035080 113.8011906  63.3572909  41.1589712
 112.6705811  63.2243126  42.1569272 109.7459620  58.7363105  39.2768636
 110.5920815  59.1602518  39.4203285 109.6858257  58.0796729  39.9707200
 113.7157364  64.3591689  35.6587368 113.0866227  64.5237403  34.9563436
 113.3283026  64.7733298  36.4298332 117.5946596  65.2946127  33.0131732
 116.9097634  65.6745028  32.4628765 117.6790445  65.9041453  33.7463680
 112.8959065  56.3967473  40.9349810 112.6519997  57.1509534  40.3984086
 113.1718995  56.7752821  41.7697057 114.8497528  62.9406086  39.6127076
 115.0614423  63.5837845  38.9361457 114.8027276  62.1068402  39.1449006
 112.4523757  55.5523906  36.5163648 111.5908236  55.8505160  36.8080385
 112.4786191  55.7694305  35.5844680 109.2685326  64.0966097  32.9237454
 109.7323672  64.3753800  32.1342076 109.0042124  63.1949541  32.7410544
 106.1609407  63.6437578  35.8617217 106.7310764  64.0724847  35.2234701
 106.7517519  63.3620163  36.5601402 108.2054212  60.2189249  29.7327019
 108.9078255  60.6710293  30.2000945 107.8734841  59.5773068  30.3606912
 106.6534574  58.8101006  44.1078228 106.0233234  59.4917287  44.3413625
 106.5470662  58.6984087  43.1631366 101.9479546  58.4772802  35.0344152
 101.1578600  58.7330330  34.5584263 102.4390793  59.2921140  35.1396193
 115.9643356  65.8178041  37.7849433 116.7860799  65.4158228  37.5032115
 115.9605758  65.7146275  38.7365549 103.8994291  58.8417381  31.9927629
 103.1025455  58.9536075  32.5111125 103.6719884  59.1804033  31.1268519
 109.7299959  65.3662084  39.9410144 109.7944392  65.8282492  40.7768315
 109.0210883  64.7359449  40.0692453 109.4447977  67.0330192  29.8089124
 109.3093652  67.8781728  30.2373972 109.9857789  67.2349469  29.0455058
 105.9315316  53.1121772  46.4703479 105.5382262  52.5587970  47.1451123
 106.7481457  53.4232350  46.8609997 102.8977374  64.5505630  30.3817049
 103.4101895  65.3448880  30.5322614 103.5500087  63.8531920  30.3150650
 104.7072259  67.6671386  32.4639802 104.8838887  68.5889351  32.2760786
 105.5029092  67.3529805  32.8934182 108.8483277  54.5279651  44.0623736
 109.5892991  55.1286804  43.9828198 109.0801200  53.7857289  43.5041778
 111.0716453  67.6553758  43.9389466 110.6280307  66.8690137  43.6210370
 111.7333667  67.8432909  43.2733357 105.8303574  69.1849560  38.4650144
 106.3810999  69.0566623  37.6927138 104.9915050  69.4844449  38.1145037
 113.1697691  67.9356558  41.9670867 113.1516167  68.7565439  41.4751136
 114.0917611  67.8110633  42.1921008 109.6270745  65.4500688  42.8094376
 110.1599082  64.6888976  42.5793684 109.0984826  65.1574340  43.5518530
 112.7940440  50.5560754  38.3388017 112.4504710  51.4462395  38.2627128
 113.1619403  50.3662411  37.4757602 112.7590723  60.5469365  26.8460452
 112.2437346  61.3173969  27.0848840 112.4868031  59.8734501  27.4693514
 110.3437834  55.3919066  31.9045691 109.4879430  55.0025916  31.7251330
 110.7564786  55.4711026  31.0445476 111.8736981  52.9265409  36.3037251
 111.3701776  52.8895544  35.4905056 112.1667588  53.8358152  36.3633907
 108.1179867  53.0104139  35.3103432 108.9832863  52.8146947  34.9509322
 108.1857375  52.7814490  36.2372789 117.7324997  63.3001719  28.7813626
 116.9554440  62.9612879  28.3368788 118.4116478  63.3054343  28.1068591
 112.5477026  58.4196457  28.6720234 112.2427162  58.7342606  29.5230377
 113.5007468  58.4977877  28.7147567 110.9923458  64.5786680  30.3213188
 110.4644820  63.8439440  30.0086425 110.4910961  65.3561357  30.0753156
 115.9716304  62.7735701  35.4380234 115.3139978  63.4634962  35.5260363
 116.7756703  63.1632133  35.7814220 105.7242186  55.2406346  32.6819799
 106.2985938  55.0181528  31.9492992 106.3113168  55.3095041  33.4348400
 114.7821763  61.1280073  33.4884176 115.2953645  61.7610065  33.9905885
 115.4322987  60.5281269  33.1227536 106.0511773  57.2710807  26.7015684
 105.2149085  57.6085494  27.0224959 105.9116542  57.1359787  25.7642821
 108.0264853  52.1147595  31.4094869 107.3729266  51.7996613  30.7851483
 107.9845328  51.4923336  32.1354692 109.1376058  62.3966890  23.3248161
 108.2303120  62.1656144  23.5239310 109.6347090  61.6004510  23.5122142
 112.0444137  71.1064398  26.2444847 111.3705836  71.4096094  26.8529805
 112.4309959  71.9093478  25.8950304 111.2602594  58.6029529  35.7342516
 110.3425155  58.8244476  35.5764204 111.6762737  58.6775839  34.8754224
 112.0437641  60.0020945  30.8645196 112.7909460  60.5142342  30.5552319
 112.3129231  59.6804997  31.7249590 110.3164292  62.4979485  27.8472151
 109.4075511  62.2138518  27.9444620 110.3459375  62.9178564  26.9875458
 115.5483559  66.1086075  31.6163318 115.0945886  65.2676985  31.6728509
 114.9177526  66.7447473  31.9538098 114.4916479  57.0378061  32.8463986
 113.7539235  56.5255447  33.1774228 114.7443252  56.5978442  32.0347263
 113.9916498  67.9462572  32.5513136 114.2839473  68.5067629  31.8325502
 114.5015119  68.2391133  33.3066296 114.5928106  49.8154313  33.4405755
 114.8986983  48.9551676  33.1531670 115.3180711  50.4071933  33.2404749
 108.8649186  60.1108106  33.9481946 108.9197795  59.1581942  33.8724423
 108.0540388  60.2667545  34.4323245 110.0140379  64.0388229  25.1860229
 109.5759809  63.3224088  24.7265867 110.7550820  64.2664344  24.6245321
 106.8041546  58.7285166  31.7072325 105.9909411  59.0279336  32.1137517
 107.3000540  58.3340854  32.4246807 108.9550124  68.7242923  33.6406590
 108.9126302  68.9503769  32.7115122 109.8712822  68.4906297  33.7892391
 112.4015757  59.1926990  40.5387219 112.7565145  59.4198463  41.3981685
 113.0487889  59.5245367  39.9164474 118.1313494  62.3145426  31.2436548
 117.9931393  62.5047022  30.3157737 117.7749713  63.0764809  31.7004599
 106.2955620  56.3003521  37.3233560 106.9355000  56.1592280  36.6256523
 105.4633151  56.0138035  36.9472162 118.1582874  64.3821953  36.2547819
 118.5919381  64.2897242  37.1030873 118.8714455  64.3579453  35.6167835
 107.0715924  65.6005952  33.4368552 107.8656523  65.1056272  33.2351127
 106.3607617  65.0723815  33.0736258 111.8910769  67.9824047  37.7880920
 111.9447791  68.5514983  38.5558636 111.0225550  68.1525932  37.4234957
 103.3798688  59.7449033  29.5128305 102.4496276  59.6833489  29.7298267
 103.4756160  59.2224986  28.7164946 103.2984237  56.2703846  32.1006547
 103.5591054  57.1849179  31.9915707 104.1201409  55.8028289  32.2503160
 104.7709162  57.6841603  39.2705371 105.4432216  57.4758965  38.6218020
 103.9438949  57.4863689  38.8310604 119.0198423  64.4245654  38.7880705
 119.2134313  65.3291464  39.0339980 118.9199042  63.9653073  39.6219290
 110.6734734  54.3103544  41.2871032 110.0262649  55.0093494  41.1935509
 111.4435750  54.7439688  41.6547280 114.0813532  64.5752396  44.3621585
 113.9299038  64.3462948  43.4451669 114.0718212  65.5322998  44.3752930
 110.8498868  62.1484309  39.3467852 111.7790928  62.2995469  39.1736819
 110.4289899  62.2368330  38.4916498 109.6487200  66.1734974  37.1166389
 109.5098286  65.8053758  37.9892328 108.8601797  66.6882613  36.9450347
 110.2435352  71.2744070  28.4591926 110.4187108  70.8032113  29.2737549
 109.5568140  71.9009836  28.6873187 111.1992415  65.5516576  34.5055227
 110.8642248  65.5117346  35.4012877 110.6996361  64.8861292  34.0325637
 105.1736659  60.9584206  40.0307808 105.0356457  60.2264445  40.6319347
 106.0841583  60.8693106  39.7491996 114.1351607  62.8972611  24.7792287
 113.5180778  62.1719439  24.6825340 113.6668096  63.6581971  24.4359361
 107.8018960  60.6704166  39.5191488 108.5118579  60.0297358  39.4778106
 107.7588268  60.9217060  40.4417669 115.7905739  67.6071519  42.4398067
 115.7318285  66.9230739  41.7728650 116.1925257  68.3490509  41.9878693
 106.5147894  57.6569384  41.3387128 105.9785251  57.2060122  41.9908724
 105.9264602  57.7915292  40.5957592 104.8096438  74.4233433  35.2331786
 105.0493036  75.0551957  35.9110805 103.9665634  74.0721473  35.5197145
 105.9250153  57.1158035  23.9013591 105.0479619  56.9946836  23.5375838
 106.4007906  56.3244113  23.6492480 115.7923146  65.5711103  40.6712047
 114.9049925  65.2337025  40.7938446 116.3621697  64.8394134  40.9080812
 102.2487015  56.7925391  38.4240122 102.1645204  56.1851061  37.6890532
 101.4269722  57.2834410  38.4249618 109.3224299  70.2312555  37.6373290
 109.2494471  71.0367527  38.1492595 108.8801693  70.4304521  36.8121312
 109.1114079  69.4684325  31.1476112 108.3281601  70.0106005  31.2414336
 109.8106824  69.9858305  31.5470353 112.4210729  55.2778955  33.7910317
 112.9179429  54.5248917  33.4711387 111.6497711  55.3143271  33.2253526
 120.2740487  60.9819320  35.4328609 120.2630363  61.8644036  35.0622542
 119.4057866  60.6290871  35.2383146 111.7822983  70.1299389  39.7931449
 112.4950955  70.7646854  39.7207350 111.2913012  70.2263255  38.9771451
 113.5040510  64.0350642  31.3648740 112.5696789  64.1552104  31.1953445
 113.6817178  63.1323109  31.1008750 109.0045698  57.4196338  33.5182002
 108.6343485  56.8667378  34.2062907 109.5004790  56.8154471  32.9657002
 116.8913061  59.8767961  31.8998775 117.3573513  60.7095953  31.8259077
 117.3420562  59.4112943  32.6044033 106.8334896  67.8793833  40.6137020
 107.5344356  68.5130316  40.7666414 106.3630011  68.2208564  39.8532659
 114.9589292  66.2211783  28.8984927 115.2349136  66.1068377  29.8078801
 114.0893791  65.8229267  28.8597100 114.8629724  52.2448548  35.9389676
 113.9492804  52.4752775  36.1071883 115.2922825  52.3286992  36.7903708
 114.6336182  60.4338440  38.4389570 113.9807633  60.6814348  37.7842023
 115.0116562  59.6202578  38.1052047 111.5943356  70.4698133  32.5417740
 111.7765751  69.6519789  33.0045493 112.4176342  70.6865826  32.1042630
 111.9285522  69.3966319  29.8032789 112.4573288  68.8858773  29.1902951
 112.1913741  69.0808849  30.6678322 110.6823755  61.1758251  44.9255607
 110.0064392  61.0752381  45.5957982 111.5051389  61.0197465  45.3891604
 102.4302615  67.4130188  37.5468122 103.0156051  66.6673876  37.6796027
 102.2327453  67.7234145  38.4304786 105.2841270  70.4481435  32.5630565
 104.6151645  70.9327563  32.0794605 105.1454139  70.6950656  33.4773943
 109.4246538  72.4825179  39.1613223 109.9764846  72.6456800  39.9262308
 109.7652732  73.0729617  38.4893248 104.4011032  54.8300329  39.7635108
 104.4652358  55.6915159  39.3512505 104.3378152  54.2174330  39.0307466
 103.8763304  56.9023461  43.4108142 104.5035343  56.5200538  44.0245666
 103.0191223  56.6837663  43.7763835 114.2757413  67.3086436  45.0161877
 114.8197317  67.9216395  44.5216832 113.6944257  67.8666015  45.5328890
 112.5614926  70.4307154  36.1476905 112.4366065  69.6296894  35.6387851
 113.2194017  70.9253348  35.6590875 104.1823094  56.7855887  35.3254045
 103.4609680  57.3991854  35.1861519 104.9716350  57.3213652  35.2470691
 114.6249834  68.2316174  37.7756455 113.6780170  68.1121526  37.7034782
 114.9732607  67.3438672  37.8582717 106.9849407  54.1210313  41.5994697
 107.5083809  54.3672610  42.3621007 106.7661741  54.9530348  41.1797835
 102.3816688  56.3913988  29.4665822 102.0529395  55.5111367  29.2840928
 102.7356059  56.3361657  30.3542211 111.6296267  68.0268891  33.9760808
 111.4821230  67.0985598  34.1568378 112.4549761  68.0488981  33.4917883
 105.4958512  56.6786958  29.8341300 105.8354584  57.2072879  29.1119908
 105.9430632  57.0167364  30.6099866 115.2330389  68.8497449  35.0625680
 116.1576937  68.6440311  34.9250131 115.0645692  68.6013850  35.9715022
 108.1901952  55.0624008  39.2844368 107.8498773  54.2631821  39.6865048
 107.4840959  55.3625719  38.7121201 108.8418424  52.1473321  37.7371691
 109.6644494  51.6733799  37.6150581 109.0856488  52.9263805  38.2370377
 107.4826659  55.1761579  28.0334592 108.2035021  55.5542832  27.5298309
 106.8591963  55.8950456  28.1369570 111.6257782  55.8806728  28.9692925
 111.8421396  56.7631366  28.6681753 111.1451849  55.4892942  28.2398567
 106.3657003  58.8392441  35.5463669 106.2201584  59.1532744  36.4387951
 105.8882207  59.4577342  34.9934568 108.2253386  55.8294989  35.5944559
 108.2114955  54.9336083  35.2576857 108.9425814  55.8365653  36.2282845
 110.0779517  56.2632330  37.6397686 109.8197294  57.1849400  37.6382017
 109.5464557  55.8662764  38.3298150 115.0225705  69.3683117  30.4187772
 115.1962583  68.8029539  29.6661624 115.5154597  70.1684012  30.2367262
 100.8402665  61.3797786  38.4851331 100.2956133  62.1557594  38.6171605
 101.7182015  61.7268590  38.3270452 107.6290282  54.7109370  30.8632129
 107.7506193  53.7826016  31.0623017 107.3392324  54.7248056  29.9510444
 110.4981472  52.3964280  33.9998849 110.5203169  52.4603613  33.0450828
 110.9149531  51.5568789  34.1939355 120.8765097  62.1319540  32.0378071
 121.3196243  61.3826865  31.6397195 119.9991607  62.1229676  31.6551803
 116.0100878  68.6849881  27.5184670 116.7051782  69.3056574  27.7371985
 116.3524028  67.8345232  27.7937048 117.9092301  66.1349587  29.0472001
 118.4343625  66.4736859  28.3221321 117.8214654  65.1996602  28.8635135
 109.5712350  70.0483660  41.1761877 109.8799476  69.8032807  42.0484577
 110.3687832  70.2530299  40.6880748 109.5932962  72.2021570  33.4067254
 109.1537952  71.7097949  34.1000111 110.3441079  71.6594538  33.1659329
 102.0725301  68.3933111  33.4091882 102.8983321  68.0936883  33.0290526
 101.7219353  67.6240733  33.8581671 107.0406834  67.7459579  35.4789556
 106.4186843  67.0830284  35.1791784 107.7111701  67.7720711  34.7963203
 107.1131361  56.2241367  45.0722062 107.1619517  57.1003490  44.6899831
 107.6553876  55.6818760  44.4993705 117.5986207  66.7682490  44.3523199
 116.8081751  66.7506629  43.8127698 117.3619562  67.3070784  45.1072235
 117.7184082  63.6174957  41.6655927 117.7682087  63.4524964  42.6071450
 117.6098005  62.7502216  41.2753808 106.6020341  66.2963502  28.9548016
 106.7508461  66.9798967  28.3014689 107.4086784  66.2768592  29.4697472
 115.0087844  59.6005885  42.9815234 115.9097707  59.4612350  42.6899232
 115.0835819  59.7660340  43.9213411 109.3430650  56.9772739  41.8268420
 108.4733959  57.2706306  41.5551009 109.5790130  57.5613184  42.5475684
 119.2202279  66.0371898  41.9097949 118.9287087  66.4001879  42.7461410
 118.6074410  65.3238906  41.7311281 120.4197961  63.6024778  34.4300519
 121.2544853  64.0414582  34.5938079 120.5557090  63.1263431  33.6108765
 117.4689467  61.1604513  40.3778007 117.9443589  61.3532159  39.5696858
 116.5455033  61.2163699  40.1321390 104.3572974  62.3228680  29.9609085
 104.1119016  61.4191010  30.1589295 104.5268888  62.3245830  29.0188563
 112.0469684  53.1952356  39.3433841 112.5651627  53.9313383  39.0180329
 111.6924816  53.5016350  40.1780600 103.6268621  58.0557038  27.4595247
 102.9337866  58.1301393  26.8035283 103.3820373  57.2917381  27.9816763
 112.2982278  49.6152639  34.8634737 112.5784032  48.9475828  35.4895164
 113.0832885  49.8081735  34.3509401 110.1015746  68.7911633  26.4259764
 109.5289713  69.4101820  25.9730235 110.6748540  69.3410995  26.9599686
 116.1691136  58.0370273  38.6106312 117.1208559  58.1368371  38.6318536
 115.9994587  57.2448541  39.1204397 114.1905516  55.1225856  38.7965713
 113.5955448  55.4030869  38.1012202 113.9055212  55.6119757  39.5682454
 113.3213006  69.0748783  27.5568346 114.2543679  69.0094345  27.7601221
 113.2336219  69.9105050  27.0982879 115.9501023  68.3914653  24.5172293
 115.8714654  68.0574517  25.4108051 116.7710690  68.8836421  24.5163766
 118.6479214  61.2576393  37.7248612 118.6155534  60.3192393  37.9108296
 119.2579838  61.3360429  36.9914437 110.4862545  60.1272446  23.7675816
 111.4321650  59.9978654  23.8364234 110.1076790  59.3887107  24.2445244
 118.7973702  58.0487436  37.7706895 118.2812751  57.2645893  37.5836824
 119.6813651  57.7206153  37.9353415 116.4584429  51.7928452  33.7302708
 116.2609250  51.4843540  34.6146040 117.0684135  52.5190091  33.8600638
 110.3701237  64.1790192  45.2276473 111.2904247  64.3568791  45.4216520
 110.3350820  63.2346237  45.0756172 108.6705462  58.0522422  23.7030701
 107.7636917  57.7555535  23.7793415 108.9481443  57.7552240  22.8364988
 103.3663310  62.0891226  37.8699254 103.5849320  63.0208334  37.8887288
 103.7789084  61.7299201  38.6554058 110.2867528  52.5959312  29.8574943
 109.4768256  52.2506397  30.2330189 110.9751945  52.2866855  30.4462554
 112.2158076  51.6737358  31.4799239 112.7689115  52.0932812  32.1389262
 112.4528162  50.7473107  31.5222195 108.2391175  57.6624432  47.2602003
 108.1387902  58.6118789  47.1914094 108.0212717  57.3342671  46.3878073
 107.4404247  54.9109357  23.8442681 108.3023411  55.2364255  24.1038498
 107.6254591  54.1240853  23.3315746 115.5936883  53.7837884  30.9877904
 115.0135552  54.4422688  30.6055956 115.3272816  52.9615228  30.5765321
 114.0440449  53.1842941  33.1899224 114.5440228  53.2959476  32.3813543
 114.6876057  52.8803994  33.8300032 108.1022445  61.0921571  46.0767065
 107.6189527  61.8921931  46.2830954 108.1883384  61.1029516  45.1234509
 104.0295783  64.9826106  38.1135499 104.9839036  64.9510048  38.0465430
 103.8308306  64.5216729  38.9285725 104.6195165  63.5527222  40.6806296
 105.4388054  64.0471300  40.7041134 104.8931973  62.6359190  40.6523864
 114.3761761  55.9437974  30.0434252 113.4887616  56.2287625  29.8254447
 114.7915750  55.7831737  29.1961529 117.7276297  55.9684495  33.7588591
 118.5036687  56.4580947  34.0313208 117.0024431  56.3942549  34.2160461
 120.1648856  56.6812114  34.8162532 120.7593347  56.4407850  34.1055840
 120.2375440  55.9619245  35.4436068 102.3846012  70.5245725  35.1305696
 102.2500479  69.7646126  34.5643695 101.9678074  71.2486625  34.6634485
 113.5204975  65.7082649  24.1382272 114.2240825  65.9132651  24.7539927
 112.7967623  66.2759411  24.4031355 114.3502785  61.4592510  30.2584542
 114.2937986  61.9161061  29.4192174 114.9031127  60.6983195  30.0807385
 118.1607591  57.2482242  31.0834661 117.9044525  56.8478877  31.9142869
 117.5360459  57.9626036  30.9584801 122.4719929  59.9878315  33.5905953
 121.9119487  60.0571504  34.3637515 121.8663432  59.8119300  32.8705449
 105.5415137  71.4215042  35.3424139 105.4247522  72.3660475  35.2402829
 104.7207584  71.1188604  35.7309938 115.4291672  66.1465178  26.1880732
 116.2637276  65.7146376  26.0058207 115.2676015  65.9747192  27.1157626
 115.0837564  62.6497291  27.5537071 115.0286368  62.4841563  26.6125515
 114.4583619  63.3573324  27.7099261 112.3983471  64.9546203  46.8790634
 113.2674631  65.1286855  46.5177269 111.9190223  65.7740620  46.7566363
 108.3933690  52.1505400  27.1322390 108.3812359  53.0947240  27.2890660
 109.2857111  51.9675546  26.8381851 106.5669652  72.0743304  38.5580068
 107.4696898  72.1066914  38.8746563 106.3407022  71.1443755  38.5726403
 108.3223254  70.8274291  35.2190146 107.3718885  70.8276152  35.1054518
 108.6255740  70.0807025  34.7026181 112.2085809  48.7448177  31.3868326
 111.4418205  48.1906664  31.5325009 112.6196514  48.8170046  32.2482478
 104.2127570  55.0332973  45.4773508 105.0759032  54.6769778  45.6876832
 103.6392981  54.6946867  46.1648912 120.8665653  76.6162257  36.2197433
 120.5284165  76.5003322  35.3317968 121.7355421  76.2153422  36.1998439
 116.7252469  78.4697734  32.2094324 116.1617334  78.3787670  31.4410612
 116.6104864  77.6497638  32.6896817 121.3485436  77.7697109  42.1783639
 121.3374077  77.3749907  41.3064142 121.5106076  77.0363181  42.7717410
 114.2716901  79.9648925  35.0478545 115.0638193  79.6239750  34.6324844
 114.5113551  80.0743900  35.9680698 116.2307655  79.2257838  27.9195923
 117.0038531  78.6786825  27.7808799 116.5833054  80.0902088  28.1310385
 118.0692697  80.5534221  41.1262823 117.7782563  81.4579851  41.0109489
 118.7049682  80.5950748  41.8406892 118.9948904  77.9311069  37.7164182
 119.5912477  77.7067092  37.0021145 119.0523876  77.1895815  38.3189630
 118.5673933  75.3850504  25.5514373 118.8199453  74.8632026  24.7897836
 117.6298492  75.2216650  25.6541057 118.2870221  77.2878610  27.7538748
 118.1706480  76.6123514  28.4219833 118.3972481  76.8010984  26.9370901
 120.6301762  76.7488758  31.4585438 120.2659970  76.2219379  32.1698359
 121.4868878  76.3587227  31.2851923 120.2707249  71.7778657  26.4546786
 120.4381652  72.6458894  26.8217257 120.0804418  71.9405939  25.5308075
 116.4795064  76.6909433  34.1549321 115.5545560  76.5585647  34.3627013
 116.7279477  77.4703652  34.6519263 120.2496470  74.2336315  27.4393453
 120.1296095  74.6793366  28.2778933 119.5549059  74.5821632  26.8806991
 113.8403875  76.3342707  34.9893110 113.9696256  76.5877185  35.9032522
 113.1601326  76.9270415  34.6697765 118.0103362  87.0039957  31.0883584
 117.9327392  87.9547782  31.1672065 117.4065006  86.6585829  31.7458510
 120.5020592  74.1767822  43.7444951 119.7253926  74.7361742  43.7347816
 121.1411155  74.6624605  44.2659821 118.7566964  76.9853275  43.3062918
 119.4981649  77.5238319  43.0297742 118.0503950  77.6119564  43.4634470
 120.5853374  74.0655023  39.2768636 121.4314569  74.4894436  39.4203285
 120.5252012  73.4088647  39.9707200 120.1079081  79.4258014  32.9237454
 120.5717426  79.7045717  32.1342076 119.8435879  78.5241459  32.7410544
 117.0003162  78.9729496  35.8617217 117.5704519  79.4016764  35.2234701
 117.5911273  78.6912081  36.5601402 119.0447967  75.5481167  29.7327019
 119.7472010  76.0002211  30.2000945 118.7128595  74.9064986  30.3606912
 117.4928328  74.1392923  44.1078228 116.8626989  74.8209204  44.3413625
 117.3864416  74.0276005  43.1631366 112.7873301  73.8064719  35.0344152
 111.9972355  74.0622248  34.5584263 113.2784548  74.6213057  35.1396193
 114.7388046  74.1709299  31.9927629 113.9419209  74.2827993  32.5111125
 114.5113638  74.5095951  31.1268519 120.5693714  80.6954002  39.9410144
 120.6338146  81.1574409  40.7768315 119.8604637  80.0651367  40.0692453
 111.0711004  74.0595210  37.4659143 111.3219042  74.9442220  37.7316719
 111.6070552  73.8799811  36.6934235 120.2841731  82.3622109  29.8089124
 120.1487406  83.2073645  30.2373972 120.8251544  82.5641387  29.0455058
 116.7709071  68.4413689  46.4703479 116.3776016  67.8879888  47.1451123
 117.5875211  68.7524268  46.8609997 113.7371129  79.8797547  30.3817049
 114.2495649  80.6740798  30.5322614 114.3893841  79.1823838  30.3150650
 115.5466013  82.9963304  32.4639802 115.7232642  83.9181268  32.2760786
 116.3422847  82.6821723  32.8934182 119.6877032  69.8571568  44.0623736
 120.4286745  70.4578722  43.9828198 119.9194955  69.1149206  43.5041778
 114.8318370  75.0427936  42.3401965 114.7171885  74.1413193  42.6409064
 113.9762888  75.2891632  41.9886782 116.6697329  84.5141478  38.4650144
 117.2204754  84.3858541  37.6927138 115.8308805  84.8136367  38.1145037
 120.4664500  80.7792605  42.8094376 120.9992837  80.0180894  42.5793684
 119.9378581  80.4866257  43.5518530 111.7020045  78.2086202  31.1576620
 112.5395267  78.6183210  30.9410327 111.8798313  77.2685644  31.1276813
 121.1831589  70.7210983  31.9045691 120.3273185  70.3317834  31.7251330
 121.5958540  70.8002944  31.0445476 118.9573621  68.3396056  35.3103432
 119.8226618  68.1438865  34.9509322 119.0251130  68.1106408  36.2372789
 121.8317213  79.9078598  30.3213188 121.3038574  79.1731357  30.0086425
 121.3304715  80.6853274  30.0753156 116.5635940  70.5698264  32.6819799
 117.1379692  70.3473446  31.9492992 117.1506923  70.6386959  33.4348400
 116.8905527  72.6002725  26.7015684 116.0542840  72.9377412  27.0224959
 116.7510297  72.4651705  25.7642821 118.8658608  67.4439513  31.4094869
 118.2123020  67.1288530  30.7851483 118.8239082  66.8215254  32.1354692
 119.9769813  77.7258808  23.3248161 119.0696874  77.4948062  23.5239310
 120.4740845  76.9296427  23.5122142 121.1558046  77.8271403  27.8472151
 120.2469265  77.5430436  27.9444620 121.1853130  78.2470482  26.9875458
 111.7246217  75.5476917  31.8287353 111.5270616  74.9546278  31.1038420
 111.1692881  75.2429127  32.5463292 119.7042940  75.4400024  33.9481946
 119.7591550  74.4873860  33.8724423 118.8934142  75.5959463  34.4323245
 120.8534134  79.3680147  25.1860229 120.4153564  78.6516006  24.7265867
 121.5944575  79.5956261  24.6245321 117.6435300  74.0577083  31.7072325
 116.8303166  74.3571254  32.1137517 118.1394294  73.6632772  32.4246807
 119.7943878  84.0534840  33.6406590 119.7520057  84.2795687  32.7115122
 120.7106577  83.8198215  33.7892391 117.1349375  71.6295439  37.3233560
 117.7748754  71.4884198  36.6256523 116.3026905  71.3429952  36.9472162
 117.9109679  80.9297869  33.4368552 118.7050277  80.4348189  33.2351127
 117.2001371  80.4015732  33.0736258 114.2192442  75.0740951  29.5128305
 113.2890030  75.0125407  29.7298267 114.3149914  74.5516904  28.7164946
 114.1377991  71.5995764  32.1006547 114.3984809  72.5141097  31.9915707
 114.9595164  71.1320206  32.2503160 115.6102917  73.0133521  39.2705371
 116.2825970  72.8050883  38.6218020 114.7832703  72.8155607  38.8310604
 121.5128489  69.6395462  41.2871032 120.8656404  70.3385412  41.1935509
 122.2829504  70.0731606  41.6547280 120.4880955  81.5026891  37.1166389
 120.3492040  81.1345676  37.9892328 119.6995551  82.0174531  36.9450347
 121.0829107  86.6035988  28.4591926 121.2580862  86.1324031  29.2737549
 120.3961895  87.2301754  28.6873187 122.0386170  80.8808494  34.5055227
 121.7036003  80.8409264  35.4012877 121.5390116  80.2153210  34.0325637
 116.0130414  76.2876124  40.0307808 115.8750212  75.5556363  40.6319347
 116.9235337  76.1985024  39.7491996 118.6412715  75.9996083  39.5191488
 119.3512333  75.3589276  39.4778106 118.5982023  76.2508978  40.4417669
 117.3541649  72.9861301  41.3387128 116.8179006  72.5352040  41.9908724
 116.7658357  73.1207210  40.5957592 115.6490192  89.7525351  35.2331786
 115.8886790  90.3843875  35.9110805 114.8059389  89.4013391  35.5197145
 116.7643907  72.4449953  23.9013591 115.8873374  72.3238753  23.5375838
 117.2401661  71.6536031  23.6492480 108.2846048  77.2327112  33.9955098
 108.9717087  76.9188842  33.4076114 108.1294176  78.1368477  33.7222350
 113.0880770  72.1217309  38.4240122 113.0038958  71.5142978  37.6890532
 112.2663476  72.6126327  38.4249618 120.1618054  85.5604473  37.6373290
 120.0888225  86.3659444  38.1492595 119.7195447  85.7596439  36.8121312
 119.9507834  84.7976243  31.1476112 119.1675355  85.3397923  31.2414336
 120.6500579  85.3150223  31.5470353 119.8439452  72.7488255  33.5182002
 119.4737240  72.1959296  34.2062907 120.3398545  72.1446389  32.9657002
 117.6728651  83.2085750  40.6137020 118.3738110  83.8422233  40.7666414
 117.2023766  83.5500482  39.8532659 121.5217510  76.5050169  44.9255607
 120.8458147  76.4044298  45.5957982 122.3445144  76.3489383  45.3891604
 113.2696369  82.7422105  37.5468122 113.8549806  81.9965793  37.6796027
 113.0721207  83.0526062  38.4304786 116.1235024  85.7773353  32.5630565
 115.4545399  86.2619481  32.0794605 115.9847894  86.0242573  33.4773943
 107.8614024  75.3127706  36.2672565 107.8998123  74.7791296  37.0609684
 107.3554317  74.7862911  35.6483543 120.2640293  87.8117096  39.1613223
 120.8158601  87.9748718  39.9262308 120.6046486  88.4021534  38.4893248
 115.2404786  70.1592246  39.7635108 115.3046113  71.0207077  39.3512505
 115.1771906  69.5466248  39.0307466 114.7157059  72.2315379  43.4108142
 115.3429097  71.8492456  44.0245666 113.8584977  72.0129581  43.7763835
 111.4922601  74.0391808  29.3426497 111.7876042  73.1302486  29.2893551
 110.5910637  74.0179547  29.0207499 115.0216848  72.1147804  35.3254045
 114.3003434  72.7283772  35.1861519 115.8110104  72.6505569  35.2470691
 117.8243162  69.4502231  41.5994697 118.3477564  69.6964527  42.3621007
 117.6055495  70.2822266  41.1797835 113.2210443  71.7205906  29.4665822
 112.8923149  70.8403284  29.2840928 113.5749814  71.6653574  30.3542211
 116.3352266  72.0078875  29.8341300 116.6748339  72.5364797  29.1119908
 116.7824387  72.3459281  30.6099866 119.0295707  70.3915926  39.2844368
 118.6892527  69.5923739  39.6865048 118.3234713  70.6917637  38.7121201
 119.6812179  67.4765238  37.7371691 120.5038248  67.0025717  37.6150581
 119.9250242  68.2555722  38.2370377 118.3220413  70.5053497  28.0334592
 119.0428776  70.8834750  27.5298309 117.6985717  71.2242374  28.1369570
 117.2050757  74.1684359  35.5463669 117.0595338  74.4824662  36.4387951
 116.7275961  74.7869259  34.9934568 119.0647140  71.1586907  35.5944559
 119.0508709  70.2628000  35.2576857 119.7819568  71.1657571  36.2282845
 120.9173271  71.5924247  37.6397686 120.6591049  72.5141318  37.6382017
 120.3858311  71.1954682  38.3298150 111.6796420  76.7089703  38.4851331
 111.1349888  77.4849511  38.6171605 112.5575769  77.0560508  38.3270452
 118.4684036  70.0401287  30.8632129 118.5899947  69.1117934  31.0623017
 118.1786079  70.0539973  29.9510444 121.3375227  67.7256198  33.9998849
 121.3596923  67.7895531  33.0450828 121.7543286  66.8860706  34.1939355
 112.4662441  75.8359600  41.3781487 111.7244178  75.9842235  41.9646118
 112.1455186  76.0967865  40.5148237 120.4106104  85.3775578  41.1761877
 120.7193231  85.1324725  42.0484577 121.2081586  85.5822216  40.6880748
 120.4326716  87.5313488  33.4067254 119.9931706  87.0389866  34.1000111
 121.1834833  86.9886455  33.1659329 112.9119055  83.7225028  33.4091882
 113.7377075  83.4228800  33.0290526 112.5613107  82.9532651  33.8581671
 117.8800588  83.0751497  35.4789556 117.2580598  82.4122202  35.1791784
 118.5505455  83.1012629  34.7963203 111.1127660  81.6411355  34.3680816
 110.2759569  81.2133529  34.1864817 111.0851306  81.8343798  35.3051607
 117.9525116  71.5533285  45.0722062 118.0013271  72.4295408  44.6899831
 118.4947630  71.0110678  44.4993705 117.4414095  81.6255420  28.9548016
 117.5902216  82.3090884  28.3014689 118.2480539  81.6060510  29.4697472
 120.1824404  72.3064657  41.8268420 119.3127714  72.5998223  41.5551009
 120.4183885  72.8905102  42.5475684 115.1966728  77.6520598  29.9609085
 114.9512770  76.7482928  30.1589295 115.3662643  77.6537748  29.0188563
 114.4662376  73.3848955  27.4595247 113.7731621  73.4593310  26.8035283
 114.2214128  72.6209299  27.9816763 120.9409501  84.1203550  26.4259764
 120.3683468  84.7393738  25.9730235 121.5142294  84.6702912  26.9599686
 121.3256299  75.4564363  23.7675816 122.2715404  75.3270571  23.8364234
 120.9470544  74.7179025  24.2445244 121.2094992  79.5082109  45.2276473
 122.1298001  79.6860708  45.4216520 121.1744575  78.5638155  45.0756172
 119.5099216  73.3814340  23.7030701 118.6030672  73.0847452  23.7793415
 119.7875197  73.0844158  22.8364988 110.4277157  74.7020703  34.1529748
 110.1079941  73.8486011  33.8604122 109.8810585  74.9169281  34.9087715
 114.2057064  77.4183144  37.8699254 114.4243074  78.3500252  37.8887288
 114.6182838  77.0591118  38.6554058 121.1261282  67.9251229  29.8574943
 120.3162010  67.5798314  30.2330189 121.8145699  67.6158773  30.4462554
 119.0784930  72.9916350  47.2602003 118.9781657  73.9410707  47.1914094
 118.8606472  72.6634589  46.3878073 118.2798001  70.2401275  23.8442681
 119.1417165  70.5656173  24.1038498 118.4648345  69.4532771  23.3315746
 110.2965417  78.3223615  36.1222869 109.6028888  77.9077567  35.6092824
 111.0438408  78.3644151  35.5256288 118.9416200  76.4213489  46.0767065
 118.4583281  77.2213849  46.2830954 119.0277139  76.4321434  45.1234509
 112.2102159  78.2541868  33.9988884 112.1872847  78.3529556  33.0470767
 112.5202796  79.1007019  34.3206050 114.8689537  80.3118023  38.1135499
 115.8232791  80.2801966  38.0465430 114.6702061  79.8508647  38.9285725
 115.4588919  78.8819139  40.6806296 116.2781808  79.3763218  40.7041134
 115.7325727  77.9651108  40.6523864 113.2239766  85.8537643  35.1305696
 113.0894234  85.0938044  34.5643695 112.8071828  86.5778543  34.6634485
 116.3808892  86.7506960  35.3424139 116.2641276  87.6952392  35.2402829
 115.5601338  86.4480521  35.7309938 110.7123834  73.2157273  41.3798493
 111.3582697  72.7056227  41.8685719 110.5040985  73.9525955  41.9541919
 119.2327444  67.4797318  27.1322390 119.2206114  68.4239158  27.2890660
 120.1250866  67.2967463  26.8381851 117.4063406  87.4035222  38.5580068
 118.3090653  87.4358832  38.8746563 117.1800776  86.4735673  38.5726403
 119.1617008  86.1566208  35.2190146 118.2112639  86.1568070  35.1054518
 119.4649494  85.4098943  34.7026181 115.0521325  70.3624890  45.4773508
 115.9152786  70.0061695  45.6876832 114.4786735  70.0238785  46.1648912
 121.9104758  89.3887128  37.4659143 122.1612796  90.2734138  37.7316719
 122.4464306  89.2091729  36.6934235 119.1239802  92.5619030  33.9955098
 119.8110842  92.2480760  33.4076114 118.9687931  93.4660395  33.7222350
 118.7007778  90.6419623  36.2672565 118.7391878  90.1083214  37.0609684
 118.1948071  90.1154829  35.6483543 121.9521415  96.9703273  34.3680816
 121.1153323  96.5425447  34.1864817 121.9245060  97.1635716  35.3051607
 121.2670911  90.0312621  34.1529748 120.9473696  89.1777929  33.8604122
 120.7204339  90.2461199  34.9087715 121.1359171  93.6515532  36.1222869
 120.4422643  93.2369485  35.6092824 121.8832162  93.6936069  35.5256288
 121.5517588  88.5449191  41.3798493 122.1976452  88.0348145  41.8685719
 121.3434739  89.2817873  41.9541919  74.6528346   2.6934408  17.8128891
  74.5752375   3.6442233  17.8917371  74.0489989   2.3480281  18.4703817
  72.2915175   5.4419802  21.9577093  72.5311774   6.0738327  22.6356111
  71.4484372   5.0907842  22.2442452  72.7660008   1.4667805  19.2875871
  72.0970383   1.9513932  18.8039911  72.6272877   1.7137025  20.2019250
  76.9065276   3.5011548  25.8858530  77.4583584   3.6643170  26.6507615
  77.2471470   4.0915986  25.2138555  77.0751699   3.2207940  20.1312561
  76.6356690   2.7284318  20.8245417  77.8259816   2.6780907  19.8904636
  69.8664749   1.5432095  21.8551003  69.7319217   0.7832496  21.2889001
  69.4496812   2.2672995  21.3879792  73.0233875   2.4401412  22.0669446
  72.9066259   3.3846844  21.9648136  72.2026321   2.1374973  22.4555245
  74.0488389   3.0929674  25.2825374  74.9515636   3.1253284  25.5991869
  73.8225759   2.1630125  25.2971710  88.3484391   7.6348627  22.9442740
  88.0102903   7.5189691  22.0563275  89.2174159   7.2339792  22.9243746
  84.2071207   9.4884103  18.9339631  83.6436072   9.3974040  18.1655919
  84.0923602   8.6684008  19.4142123  88.8304174   8.7883478  28.9028945
  88.8192815   8.3936277  28.0309449  88.9924814   8.0549551  29.4962717
  81.7535639  10.9835295  21.7723851  82.5456931  10.6426119  21.3570151
  81.9932289  11.0930270  22.6926005  89.7870766  13.1555071  14.2454096
  89.1358745  13.7409151  13.8588110  90.5815128  13.6861266  14.3049133
  83.7126393  10.2444208  14.6441230  84.4857269   9.6973195  14.5054106
  84.0651792  11.1088457  14.8555691  85.5511435  11.5720590  27.8508129
  85.2601301  12.4766221  27.7354796  86.1868420  11.6137118  28.5652199
  86.4767642   8.9497439  24.4409489  87.0731214   8.7253461  23.7266452
  86.5342614   8.2082184  25.0434937  85.7688959   8.3064980  14.4784055
  85.6525217   7.6309883  15.1465139  85.8791219   7.8197354  13.6616208
  88.1120500   7.7675127  18.1830744  87.7478707   7.2405748  18.8943666
  88.9687616   7.3773596  18.0097230  90.5101320  11.2582006  24.8457923
  90.2102043  12.1607045  24.7373730  90.1652380  10.9914189  25.6979076
  83.9613802   7.7095803  20.8794628  83.0364298   7.5772017  21.0872319
  84.2098215   8.4890022  21.3764570  81.3222613   7.3529076  21.7138417
  81.4514994   7.6063555  22.6277828  80.6420064   7.9456784  21.3943072
  85.4922100  18.0226326  17.8128891  85.4146130  18.9734151  17.8917371
  84.8883744  17.6772199  18.4703817  86.2385702   8.0039645  30.0308225
  86.9800387   8.5424689  29.7543048  85.5322688   8.6305934  30.1879776
  91.7141042  10.1468785  28.6280386  92.1224398   9.7051196  27.8835019
  90.9918303   9.5721413  28.8814579  92.0369856  10.7069976  22.3832675
  91.4078719  10.8715690  21.6808743  91.6495519  11.1211586  23.1543639
  95.9159088  11.6424414  19.7377039  95.2310127  12.0223315  19.1874072
  96.0002938  12.2519740  20.4708987  93.1710020   9.2884373  26.3372382
  93.3826915   9.9316133  25.6606763  93.1239768   8.4546689  25.8694312
  87.5897818  10.4444384  19.6482760  88.0536164  10.7232087  18.8587383
  87.3254616   9.5427829  19.4655851  84.4821899   9.9915866  22.5862523
  85.0523256  10.4203134  21.9480008  85.0730011   9.7098450  23.2846709
  86.5266704   6.5667536  16.4572325  87.2290748   7.0188580  16.9246252
  86.1947333   5.9251355  17.0852218  84.9747066   5.1579293  30.8323535
  84.3445726   5.8395574  31.0658932  84.8683154   5.0462375  29.8876673
  80.2692038   4.8251089  21.7589459  79.4791092   5.0808618  21.2829569
  80.7603286   5.6399427  21.8641499  94.2855848  12.1656328  24.5094740
  95.1073292  11.7636516  24.2277421  94.2818251  12.0624562  25.4610855
  82.2206784   5.1895668  18.7172936  81.4237947   5.3014363  19.2356431
  81.9932376   5.5282321  17.8513826  88.0512451  11.7140372  26.6655450
  88.1156884  12.1760779  27.5013622  87.3423375  11.0837736  26.7937760
  78.5529741   5.0781580  24.1904450  78.8037780   5.9628589  24.4562026
  79.0889290   4.8986181  23.4179541  87.7660469  13.3808479  16.5334431
  87.6306144  14.2260015  16.9619278  88.3070282  13.5827757  15.7700364
  81.2189866  10.8983917  17.1062356  81.7314387  11.6927167  17.2567920
  81.8712579  10.2010208  17.0395957  83.0284751  14.0149673  19.1885109
  83.2051379  14.9367638  19.0006093  83.8241585  13.7008093  19.6179489
  82.3137108   6.0614305  29.0647272  82.1990623   5.1599562  29.3654371
  81.4581625   6.3078002  28.7132089  89.3928945  14.0032046  30.6634773
  88.9492800  13.2168424  30.3455677  90.0546159  14.1911196  29.9978663
  84.1516067  15.5327847  25.1895451  84.7023492  15.4044910  24.4172445
  83.3127542  15.8322736  24.8390344  91.4910183  14.2834845  28.6916174
  91.4728659  15.1043727  28.1996443  92.4130104  14.1588921  28.9166315
  87.9483238  11.7978975  29.5339682  88.4811574  11.0367263  29.3038990
  87.4197319  11.5052627  30.2763837  79.1838783   9.2272571  17.8821926
  80.0214005   9.6369580  17.6655634  79.3617051   8.2872014  17.8522120
  89.3135950  10.9264967  17.0458494  88.7857312  10.1917727  16.7331732
  88.8123453  11.7039644  16.7998463  94.2928796   9.1213988  22.1625541
  93.6352471   9.8113249  22.2505669  95.0969196   9.5110420  22.5059527
  90.3656629  17.4542685  12.9690153  89.6918328  17.7574382  13.5775111
  90.7522451  18.2571765  12.6195611  93.8696051  12.4564362  18.3408625
  93.4158378  11.6155272  18.3973815  93.2390018  13.0925760  18.6783405
  92.3128991  14.2940859  19.2758443  92.6051965  14.8545916  18.5570809
  92.8227611  14.5869420  20.0311602  79.2064954   6.5663287  18.5532660
  79.0089354   5.9732647  17.8283726  78.6511618   6.2615497  19.2708598
  87.2762616  15.0721210  20.3651896  87.2338795  15.2982056  19.4360428
  88.1925315  14.8384584  20.5137697  96.4795366  10.7300240  22.9793126
  96.9131873  10.6375529  23.8276180  97.1926947  10.7057741  22.3413142
  85.3928417  11.9484239  20.1613859  86.1869015  11.4534559  19.9596434
  84.6820109  11.4202102  19.7981565  90.2123261  14.3302334  24.5126227
  90.2660283  14.8993271  25.2803943  89.3438042  14.5004219  24.1480264
  81.7011180   6.0927321  16.2373612  80.7708768   6.0311776  16.4543574
  81.7968652   5.5703273  15.4410253  97.3410916  10.7723941  25.5126011
  97.5346806  11.6769751  25.7585286  97.2411534  10.3131360  26.3464596
  92.4026024  10.9230684  31.0866892  92.2511531  10.6941235  30.1696976
  92.3930704  11.8801285  31.0998237  89.1711361   8.4962596  26.0713158
  90.1003421   8.6473756  25.8982126  88.7502391   8.5846617  25.2161805
  87.9699693  12.5213261  23.8411696  87.8310778  12.1532045  24.7137634
  87.1814289  13.0360900  23.6695654  88.5647845  17.6222357  15.1837233
  88.7399600  17.1510400  15.9982855  87.8780633  18.2488123  15.4118493
  89.5204908  11.8994864  21.2300534  89.1854740  11.8595633  22.1258184
  89.0208853  11.2339579  20.7570944  83.4949152   7.3062494  26.7553115
  83.3568950   6.5742732  27.3564654  84.4054075   7.2171394  26.4737303
  86.1231452   7.0182453  26.2436795  86.8331071   6.3775645  26.2023413
  86.0800760   7.2695348  27.1662975  94.1118231  13.9549806  29.1643374
  94.0530777  13.2709026  28.4973957  94.5137749  14.6968796  28.7124000
  83.1308930  20.7711720  21.9577093  83.3705528  21.4030244  22.6356111
  82.2878126  20.4199760  22.2442452  94.1135638  11.9189390  27.3957354
  93.2262417  11.5815312  27.5183752  94.6834189  11.1872421  27.6326119
  75.7664785   8.2513482  20.7200405  76.4535825   7.9375212  20.1321420
  75.6112914   9.1554847  20.4467656  87.6436792  16.5790843  24.3618597
  87.5706963  17.3845814  24.8737901  87.2014185  16.7782808  23.5366618
  87.4326571  15.8162613  17.8721418  86.6494093  16.3584293  17.9659643
  88.1319316  16.3336592  18.2715660  90.1035475  16.4777677  26.5176755
  90.8163447  17.1125141  26.4452657  89.6125504  16.5741543  25.7016757
  91.8253002  10.3828929  18.0894047  90.8909281  10.5030392  17.9198751
  92.0029671   9.4801396  17.8254057  85.1547389  14.2272120  27.3382326
  85.8556848  14.8608603  27.4911720  84.6842504  14.5686852  26.5777966
  89.9155849  16.8176421  19.2663047  90.0978243  15.9998077  19.7290799
  90.7388835  17.0344113  18.8287937  90.2498014  15.7444606  16.5278095
  90.7785780  15.2337060  15.9148257  90.5126234  15.4287136  17.3923628
  89.0036248   7.5236539  31.6500914  88.3276885   7.4230668  32.3203289
  89.8263882   7.3675752  32.1136911  80.7515107  13.7608475  24.2713429
  81.3368544  13.0152163  24.4041333  80.5539945  14.0712432  25.1550093
  83.6053762  16.7959722  19.2875871  82.9364137  17.2805850  18.8039911
  83.4666632  17.0428943  20.2019250  75.3432762   6.3314075  22.9917872
  75.3816861   5.7977666  23.7854990  74.8373054   5.8049281  22.3728849
  87.7459031  18.8303466  25.8858530  88.2977339  18.9935087  26.6507615
  88.0865224  19.4207904  25.2138555  92.5969905  13.6564723  31.7407184
  93.1409809  14.2694682  31.2462139  92.0156750  14.2144302  32.2574197
  78.9741339   5.0578177  16.0671803  79.2694780   4.1488856  16.0138857
  78.0729375   5.0365917  15.7452806  90.8827418  16.7785441  22.8722212
  90.7578557  15.9775181  22.3633157  91.5406509  17.2731635  22.3836182
  92.9462326  14.5794462  24.5001762  91.9992662  14.4599813  24.4280089
  93.2945099  13.6916960  24.5828023  89.9508760  14.3747178  20.7006114
  89.8033722  13.4463885  20.8813684  90.7762253  14.3967268  20.2163189
  93.5542881  15.1975737  21.7870987  94.4789429  14.9918598  21.6495438
  93.3858185  14.9492138  22.6960328  84.6869495   5.1870729  22.2708976
  84.5414076   5.5011032  23.1633258  84.2094699   5.8055629  21.7179875
  93.3438198  15.7161404  17.1433078  93.5175075  15.1507826  16.3906931
  93.8367089  16.5162299  16.9612568  79.1615157   7.7276073  25.2096637
  78.6168625   8.5035881  25.3416912  80.0394507   8.0746878  25.0515759
  79.9481179   6.8545969  28.1026794  79.2062915   7.0028605  28.6891424
  79.6273924   7.1154235  27.2393543  87.8924842  16.3961948  27.9007184
  88.2011968  16.1511094  28.7729884  88.6900324  16.6008586  27.4126054
  87.9145454  18.5499857  20.1312561  87.4750444  18.0576236  20.8245417
  88.6653571  18.0072825  19.8904636  80.3937793  14.7411398  20.1337189
  81.2195813  14.4415170  19.7535832  80.0431845  13.9719020  20.5826977
  85.3619326  14.0937866  22.2034862  84.7399335  13.4308571  21.9037090
  86.0324193  14.1198998  21.5208510  78.5946398  12.6597725  21.0926122
  77.7578306  12.2319899  20.9110124  78.5670043  12.8530168  22.0296913
  95.9198699  13.1160778  31.0768505  95.1294243  13.0984916  30.5373005
  95.6832054  13.6549071  31.8317542  96.0396574   9.9653244  28.3901234
  96.0894579   9.8003251  29.3316757  95.9310498   9.0980503  27.9999115
  84.9232833  12.6441790  15.6793323  85.0720953  13.3277254  15.0259996
  85.7299276  12.6246880  16.1942779  97.5414771  12.3850185  28.6343255
  97.2499579  12.7480166  29.4706716  96.9286902  11.6717194  28.4556588
  82.6785466   8.6706967  16.6854392  82.4331508   7.7669297  16.8834602
  82.8481381   8.6724118  15.7433870  88.4228239  15.1389920  13.1505070
  87.8502206  15.7580107  12.6975542  88.9961032  15.6889282  13.6844992
  91.6425498  15.4227070  14.2813653  92.5756171  15.3572632  14.4846528
  91.5548711  16.2583337  13.8228185  88.6913730  10.5268479  31.9521780
  89.6116739  10.7047078  32.1461826  88.6563313   9.5824524  31.8001479
  77.9095895   5.7207073  20.8775054  77.5898679   4.8672381  20.5849428
  77.3629323   5.9355651  21.6333022  81.6875802   8.4369514  24.5944561
  81.9061812   9.3686621  24.6132595  82.1001576   8.0777488  25.3799365
  77.7784155   9.3409984  22.8468176  77.0847626   8.9263937  22.3338130
  78.5257146   9.3830521  22.2501595  86.4234938   7.4399858  32.8012371
  85.9402019   8.2400218  33.0076260  86.5095877   7.4507803  31.8479815
  79.6920897   9.2728238  20.7234191  79.6691585   9.3715925  19.7716074
  80.0021534  10.1193389  21.0451357  82.3508275  11.3304393  24.8380805
  83.3051529  11.2988335  24.7710737  82.1520799  10.8695017  25.6531031
  82.9407657   9.9005509  27.4051603  83.7600546  10.3949588  27.4286440
  83.2144465   8.9837477  27.3769170  80.7058504  16.8724012  21.8551003
  80.5712972  16.1124413  21.2889001  80.2890566  17.5964912  21.3879792
  83.8627630  17.7693329  22.0669446  83.7460014  18.7138762  21.9648136
  83.0420076  17.4666891  22.4555245  78.1942571   4.2343643  28.1043800
  78.8401435   3.7242597  28.5931025  77.9859722   4.9712324  28.6787225
  90.7195964  11.3024490  33.6035941  91.5887123  11.4765143  33.2422575
  90.2402715  12.1218907  33.4811670  84.8882144  18.4221591  25.2825374
  85.7909390  18.4545202  25.5991869  84.6619514  17.4922042  25.2971710
  86.6435746  17.1752578  21.9435453  85.6931377  17.1754439  21.8299825
  86.9468232  16.4285312  21.4271487 102.3788439  23.0113116  23.0081215
 103.0166849  22.8919864  22.3044555 102.2609282  23.9593960  23.0669167
  99.1878146  22.9640544  22.9442740  98.8496657  22.8481609  22.0563275
 100.0567914  22.5631709  22.9243746  95.0464961  24.8176021  18.9339631
  94.4829826  24.7265958  18.1655919  94.9317356  23.9975925  19.4142123
  99.6697929  24.1175396  28.9028945  99.6586569  23.7228194  28.0309449
  99.8318568  23.3841469  29.4962717  92.5929393  26.3127212  21.7723851
  93.3850685  25.9718037  21.3570151  92.8326043  26.4222187  22.6926005
 100.6264520  28.4846988  14.2454096  99.9752500  29.0701069  13.8588110
 101.4208883  29.0153183  14.3049133  94.5520147  25.5736126  14.6441230
  95.3251023  25.0265113  14.5054106  94.9045546  26.4380375  14.8555691
  96.3905190  26.9012508  27.8508129  96.0995056  27.8058139  27.7354796
  97.0262174  26.9429035  28.5652199  97.3161397  24.2789356  24.4409489
  97.9124969  24.0545379  23.7266452  97.3736368  23.5374102  25.0434937
 101.9329708  20.7364570  20.0834423 102.7192797  20.3183993  19.7324840
 102.1968412  21.6410662  20.2516072  96.6082714  23.6356898  14.4784055
  96.4918972  22.9601801  15.1465139  96.7184974  23.1489272  13.6616208
  98.9514255  23.0967045  18.1830744  98.5872462  22.5697666  18.8943666
  99.8081371  22.7065514  18.0097230 104.8563555  14.3861377  25.4462010
 104.5246880  15.2556788  25.2223225 104.2609169  14.0697661  26.1256041
 101.3495075  26.5873923  24.8457923 101.0495798  27.4898962  24.7373730
 101.0046134  26.3206107  25.6979076  94.8007556  23.0387720  20.8794628
  93.8758053  22.9063934  21.0872319  95.0491969  23.8181939  21.3764570
 104.7492219  19.1056464  22.5255360 103.8409096  19.0371872  22.2314121
 104.6979814  19.5828409  23.3537186  92.1616367  22.6820994  21.7138417
  92.2908748  22.9355473  22.6277828  91.4813819  23.2748702  21.3943072
  96.3315855  33.3518244  17.8128891  96.2539884  34.3026069  17.8917371
  95.7277498  33.0064116  18.4703817  98.8233084  20.5246109  30.4690258
  98.0466418  21.0840029  30.4593122  99.4623647  21.0102892  30.9905128
 106.6153865  17.3072902  24.3033234 105.9728245  17.6005435  23.6573029
 106.1108794  17.1925822  25.1086431  97.0779457  23.3331563  30.0308225
  97.8194141  23.8716606  29.7543048  96.3716442  23.9597851  30.1879776
 102.5534796  25.4760703  28.6280386 102.9618152  25.0343114  27.8835019
 101.8312058  24.9013331  28.8814579  98.9065866  20.4133310  26.0013943
  99.7527062  20.8372723  26.1448592  98.8464504  19.7566934  26.6952506
 102.8763611  26.0361894  22.3832675 102.2472473  26.2007608  21.6808743
 102.4889273  26.4503503  23.1543639 106.7552843  26.9716331  19.7377039
 106.0703881  27.3515233  19.1874072 106.8396692  27.5811658  20.4708987
 102.0565312  18.0737678  27.6595117 101.8126244  18.8279739  27.1229392
 102.3325242  18.4523026  28.4942364 104.0103774  24.6176290  26.3372382
 104.2220670  25.2608050  25.6606763 103.9633523  23.7838607  25.8694312
 101.6130003  17.2294111  23.2408954 100.7514482  17.5275365  23.5325692
 101.6392438  17.4464510  22.3089987  98.4291573  25.7736302  19.6482760
  98.8929918  26.0524005  18.8587383  98.1648371  24.8719746  19.4655851
  95.3215654  25.3207783  22.5862523  95.8917011  25.7495052  21.9480008
  95.9123766  25.0390368  23.2846709  97.3660459  21.8959454  16.4572325
  98.0684502  22.3480498  16.9246252  97.0341087  21.2543273  17.0852218
  95.8140820  20.4871211  30.8323535  95.1839481  21.1687492  31.0658932
  95.7076908  20.3754292  29.8876673  91.1085793  20.1543007  21.7589459
  90.3184847  20.4100535  21.2829569  91.5997040  20.9691345  21.8641499
 105.1249602  27.4948246  24.5094740 105.9467046  27.0928433  24.2277421
 105.1212005  27.3916480  25.4610855  93.0600538  20.5187586  18.7172936
  92.2631701  20.6306280  19.2356431  92.8326130  20.8574238  17.8513826
  98.8906206  27.0432289  26.6655450  98.9550638  27.5052696  27.5013622
  98.1817130  26.4129654  26.7937760  89.3923496  20.4073497  24.1904450
  89.6431534  21.2920507  24.4562026  89.9283044  20.2278099  23.4179541
  98.6054223  28.7100397  16.5334431  98.4699898  29.5551932  16.9619278
  99.1464036  28.9119674  15.7700364  95.0921563  14.7891977  33.1948786
  94.6988509  14.2358175  33.8696430  95.9087703  15.1002555  33.5855303
  92.0583621  26.2275835  17.1062356  92.5708141  27.0219085  17.2567920
  92.7106334  25.5302125  17.0395957  93.8678506  29.3441591  19.1885109
  94.0445134  30.2659556  19.0006093  94.6635339  29.0300010  19.6179489
  98.0089524  16.2049856  30.7869042  98.7499237  16.8057009  30.7073505
  98.2407447  15.4627493  30.2287085  93.1530862  21.3906223  29.0647272
  93.0384377  20.4891480  29.3654371  92.2975380  21.6369920  28.7132089
 100.2322700  29.3323963  30.6634773  99.7886554  28.5460342  30.3455677
 100.8939913  29.5203114  29.9978663  94.9909821  30.8619765  25.1895451
  95.5417246  30.7336828  24.4172445  94.1521297  31.1614654  24.8390344
 102.3303938  29.6126763  28.6916174 102.3122413  30.4335644  28.1996443
 103.2523858  29.4880838  28.9166315  98.7876992  27.1270893  29.5339682
  99.3205329  26.3659181  29.3038990  98.2591073  26.8344544  30.2763837
 101.9546687  12.2330959  25.0633324 101.6110956  13.1232600  24.9872435
 102.3225650  12.0432616  24.2002909  90.0232538  24.5564489  17.8821926
  90.8607760  24.9661497  17.6655634  90.2010805  23.6163931  17.8522120
 101.0343227  14.6035614  23.0282557 100.5308023  14.5665749  22.2150363
 101.3273834  15.5128356  23.0879214  97.2786113  14.6874343  22.0348739
  98.1439110  14.4917152  21.6754628  97.3463622  14.4584695  22.9618096
 100.1529705  26.2556885  17.0458494  99.6251066  25.5209645  16.7331732
  99.6517208  27.0331561  16.7998463 105.1322551  24.4505906  22.1625541
 104.4746225  25.1405167  22.2505669 105.9362950  24.8402338  22.5059527
  94.8848432  16.9176551  19.4065106  95.4592184  16.6951733  18.6738299
  95.4719415  16.9865246  20.1593707 103.9428010  22.8050278  20.2129482
 104.4559891  23.4380270  20.7151192 104.5929234  22.2051474  19.8472842
 101.2050384  32.7834603  12.9690153 100.5312083  33.0866299  13.5775111
 101.5916206  33.5863683  12.6195611 100.4208840  20.2799734  22.4587823
  99.5031402  20.5014681  22.3009511 100.8368984  20.3546044  21.5999530
 104.7089806  27.7856280  18.3408625 104.2552133  26.9447190  18.3973815
 104.0783773  28.4217678  18.6783405 103.1522745  29.6232776  19.2758443
 103.4445719  30.1837834  18.5570809 103.6621366  29.9161337  20.0311602
  90.0458709  21.8955204  18.5532660  89.8483109  21.3024565  17.8283726
  89.4905373  21.5907415  19.2708598  98.0255432  21.7878311  20.6727253
  98.0804042  20.8352147  20.5969729  97.2146634  21.9437750  21.1568551
  95.9647792  20.4055371  18.4317632  95.1515658  20.7049541  18.8382824
  96.4606787  20.0111059  19.1492114  98.1156370  30.4013128  20.3651896
  98.0732549  30.6273974  19.4360428  99.0319069  30.1676502  20.5137697
 101.5622004  20.8697195  27.2632525 101.9171392  21.0968668  28.1226991
 102.2094135  21.2015572  26.6409781  95.4561867  17.9773726  24.0478867
  96.0961246  17.8362485  23.3501830  94.6239398  17.6908239  23.6717469
 107.3189121  26.0592158  22.9793126 107.7525627  25.9667447  23.8276180
 108.0320701  26.0349658  22.3413142  96.2322171  27.2776157  20.1613859
  97.0262770  26.7826477  19.9596434  95.5213863  26.7494020  19.7981565
 101.0517016  29.6594252  24.5126227 101.1054038  30.2285188  25.2803943
 100.1831797  29.8296137  24.1480264  92.5404935  21.4219238  16.2373612
  91.6102523  21.3603694  16.4543574  92.6362407  20.8995191  15.4410253
  92.4590484  17.9474051  18.8251853  92.7197301  18.8619384  18.7161014
  93.2807656  17.4798494  18.9748466  93.9315409  19.3611808  25.9950678
  94.6038462  19.1529170  25.3463327  93.1045195  19.1633894  25.5555910
 108.1804670  26.1015859  25.5126011 108.3740560  27.0061669  25.7585286
 108.0805288  25.6423278  26.3464596  99.8340981  15.9873749  28.0116339
  99.1868896  16.6863699  27.9180815 100.6041996  16.4209893  28.3792587
 103.2419779  26.2522601  31.0866892 103.0905285  26.0233153  30.1696976
 103.2324458  27.2093203  31.0998237 100.0105115  23.8254514  26.0713158
 100.9397175  23.9765674  25.8982126  99.5896145  23.9138535  25.2161805
  98.8093447  27.8505179  23.8411696  98.6704533  27.4823963  24.7137634
  98.0208043  28.3652818  23.6695654  99.4041599  32.9514275  15.1837233
  99.5793355  32.4802318  15.9982855  98.7174387  33.5780041  15.4118493
 100.3598662  27.2286781  21.2300534 100.0248495  27.1887551  22.1258184
  99.8602608  26.5631497  20.7570944  94.3342906  22.6354411  26.7553115
  94.1962704  21.9034650  27.3564654  95.2447830  22.5463311  26.4737303
  96.9625207  22.3474371  26.2436795  97.6724825  21.7067563  26.2023413
  96.9194515  22.5987265  27.1662975 104.9511985  29.2841724  29.1643374
 104.8924532  28.6000944  28.4973957 105.3531504  30.0260714  28.7124000
  95.6754141  19.3339588  28.0632434  95.1391498  18.8830327  28.7154030
  95.0870849  19.4685497  27.3202899  93.9702684  36.1003638  21.9577093
  94.2099283  36.7322162  22.6356111  93.1271881  35.7491678  22.2442452
 104.9529393  27.2481308  27.3957354 104.0656172  26.9107230  27.5183752
 105.5227944  26.5164339  27.6326119  86.6058540  23.5805400  20.7200405
  87.2929580  23.2667130  20.1321420  86.4506669  24.4846764  20.4467656
  91.4093262  18.4695596  25.1485429  91.3251451  17.8621266  24.4135839
  90.5875968  18.9604614  25.1494925  98.4830546  31.9082760  24.3618597
  98.4100718  32.7137732  24.8737901  98.0407939  32.1074726  23.5366618
  98.2720326  31.1454530  17.8721418  97.4887848  31.6876210  17.9659643
  98.9713071  31.6628510  18.2715660 100.9429230  31.8069594  26.5176755
 101.6557202  32.4417059  26.4452657 100.4519258  31.9033460  25.7016757
 102.6646757  25.7120847  18.0894047 101.7303035  25.8322309  17.9198751
 102.8423425  24.8093314  17.8254057  98.1651945  19.0966543  20.2427308
  97.7949732  18.5437583  20.9308214  98.6611037  18.4924676  19.6902308
  95.9941143  29.5564038  27.3382326  96.6950603  30.1900521  27.4911720
  95.5236258  29.8978769  26.5777966 103.7942429  22.1108645  25.1634877
 103.1413879  22.3584553  24.5087329 104.1722809  21.2972783  24.8297354
 100.7549603  32.1468338  19.2663047 100.9371998  31.3289994  19.7290799
 101.5782589  32.3636031  18.8287937 101.0891769  31.0736523  16.5278095
 101.6179535  30.5628978  15.9148257 101.3519988  30.7579054  17.3923628
  99.8430002  22.8528456  31.6500914  99.1670639  22.7522586  32.3203289
 100.6657636  22.6967670  32.1136911  91.5908861  29.0900393  24.2713429
  92.1762298  28.3444081  24.4041333  91.3933700  29.4004349  25.1550093
  94.4447516  32.1251640  19.2875871  93.7757892  32.6097768  18.8039911
  94.3060386  32.3720861  20.2019250  86.1826516  21.6605993  22.9917872
  86.2210616  21.1269584  23.7854990  85.6766809  21.1341198  22.3728849
  98.5852785  34.1595384  25.8858530  99.1371093  34.3227005  26.6507615
  98.9258979  34.7499821  25.2138555  93.5617278  16.5070533  26.4880414
  93.6258605  17.3685364  26.0757812  93.4984399  15.8944535  25.7552773
  93.0369551  18.5793666  30.1353449  93.6641590  18.1970743  30.7490973
  92.1797470  18.3607868  30.5009141 103.4363659  28.9856641  31.7407184
 103.9803563  29.5986599  31.2462139 102.8550504  29.5436220  32.2574197
  89.8135094  20.3870095  16.0671803  90.1088535  19.4780774  16.0138857
  88.9123129  20.3657835  15.7452806 101.7221172  32.1077359  22.8722212
 101.5972312  31.3067099  22.3633157 102.3800263  32.6023553  22.3836182
  93.3429341  18.4626092  22.0499352  92.6215926  19.0762059  21.9106825
  94.1322596  18.9983856  21.9715998 103.7856081  29.9086379  24.5001762
 102.8386416  29.7891730  24.4280089 104.1338854  29.0208877  24.5828023
  96.1455654  15.7980518  28.3240004  96.6690056  16.0442815  29.0866313
  95.9267987  16.6300553  27.9043141  91.5422935  18.0684193  16.1911129
  91.2135641  17.1881572  16.0086235  91.8962306  18.0131861  17.0787518
 100.7902514  29.7039095  20.7006114 100.6427476  28.7755803  20.8813684
 101.6156008  29.7259186  20.2163189  94.6564758  18.3557163  16.5586606
  94.9960831  18.8843084  15.8365215  95.1036879  18.6937569  17.3345173
 104.3936636  30.5267654  21.7870987 105.3183183  30.3210516  21.6495438
 104.2251939  30.2784055  22.6960328  97.3508199  16.7394213  26.0089674
  97.0105020  15.9402026  26.4110354  96.6447205  17.0395924  25.4366508
  98.0024671  13.8243526  24.4616997  98.8250740  13.3504004  24.3395888
  98.2462735  14.6034009  24.9615684  95.5263250  20.5162646  22.2708976
  95.3807830  20.8302949  23.1633258  95.0488453  21.1347547  21.7179875
  97.3859633  17.5065194  22.3189866  97.3721201  16.6106288  21.9822164
  98.1032061  17.5135858  22.9528152  99.2385763  17.9402535  24.3642993
  98.9803541  18.8619605  24.3627323  98.7070804  17.5432969  25.0543457
 104.1831952  31.0453322  17.1433078 104.3568830  30.4799744  16.3906931
 104.6760843  31.8454217  16.9612568  90.0008912  23.0567991  25.2096637
  89.4562380  23.8327799  25.3416912  90.8788262  23.4038795  25.0515759
  96.7896529  16.3879575  17.5877436  96.9112440  15.4596221  17.7868323
  96.4998571  16.4018261  16.6755751  90.7874934  22.1837887  28.1026794
  90.0456670  22.3320522  28.6891424  90.4667678  22.4446153  27.2393543
  98.7318596  31.7253865  27.9007184  99.0405723  31.4803012  28.7729884
  99.5294078  31.9300504  27.4126054  98.7539208  33.8791775  20.1312561
  98.3144199  33.3868154  20.8245417  99.5047325  33.3364743  19.8904636
  91.2331547  30.0703316  20.1337189  92.0589567  29.7707088  19.7535832
  90.8825599  29.3010938  20.5826977  96.2013081  29.4229784  22.2034862
  95.5793090  28.7600489  21.9037090  96.8717948  29.4490916  21.5208510
  89.4340152  27.9889642  21.0926122  88.5972061  27.5611817  20.9110124
  89.4063798  28.1822086  22.0296913  96.2737608  17.9011572  31.7967368
  96.3225764  18.7773695  31.4145138  96.8160122  17.3588965  31.2239012
 106.7592454  28.4452695  31.0768505 105.9687997  28.4276834  30.5373005
 106.5225808  28.9840989  31.8317542 106.8790329  25.2945162  28.3901234
 106.9288334  25.1295169  29.3316757 106.7704252  24.4272421  27.9999115
  95.7626588  27.9733707  15.6793323  95.9114708  28.6569172  15.0259996
  96.5693031  27.9538797  16.1942779 104.1694091  21.2776090  29.7060541
 105.0703954  21.1382554  29.4144538 104.2442066  21.4430544  30.6458718
  98.5036897  18.6542944  28.5513727  97.6340206  18.9476510  28.2796315
  98.7396377  19.2383389  29.2720991 108.3808526  27.7142103  28.6343255
 108.0893334  28.0772084  29.4706716 107.7680657  27.0009111  28.4556588
 106.6295714  22.8374718  27.1023313 107.1049835  23.0302364  26.2942165
 105.7061279  22.8933904  26.8566697  93.5179220  23.9998885  16.6854392
  93.2725262  23.0961215  16.8834602  93.6875135  24.0016035  15.7433870
 101.2075930  14.8722561  26.0679147 101.7257874  15.6083588  25.7425636
 100.8531063  15.1786555  26.9025906  92.7874868  19.7327243  14.1840553
  92.0944113  19.8071597  13.5280589  92.5426620  18.9687586  14.7062070
  99.2621993  30.4681838  13.1505070  98.6895960  31.0872025  12.6975542
  99.8354787  31.0181199  13.6844992 105.3297383  19.7140478  25.3351619
 106.2814806  19.8138575  25.3563843 105.1600833  18.9218746  25.8449703
 103.3511762  16.7996061  25.5211020 102.7561694  17.0801074  24.8257509
 103.0661459  17.2889962  26.2927761 102.4819253  30.7518988  14.2813653
 103.4149926  30.6864550  14.4846528 102.3942466  31.5875255  13.8228185
 107.8085461  22.9346598  24.4493919 107.7761781  21.9962598  24.6353603
 108.4186084  23.0130634  23.7159744  99.5307484  25.8560397  31.9521780
 100.4510494  26.0338996  32.1461826  99.4957067  24.9116442  31.8001479
  88.7489649  21.0498990  20.8775054  88.4292433  20.1964298  20.5849428
  88.2023077  21.2647568  21.6333022  92.5269557  23.7661431  24.5944561
  92.7455566  24.6978539  24.6132595  92.9395330  23.4069406  25.3799365
  97.3997422  19.3394637  33.9847310  97.2994149  20.2888994  33.9159401
  97.1818964  19.0112876  33.1123380  88.6177909  24.6701902  22.8468176
  87.9241381  24.2555855  22.3338130  89.3650900  24.7122438  22.2501595
  97.2628692  22.7691776  32.8012371  96.7795774  23.5692136  33.0076260
  97.3489631  22.7799721  31.8479815  90.5314652  24.6020156  20.7234191
  90.5085340  24.7007843  19.7716074  90.8415288  25.4485306  21.0451357
  93.1902029  26.6596311  24.8380805  94.1445283  26.6280253  24.7710737
  92.9914553  26.1986934  25.6531031  93.7801412  25.2297427  27.4051603
  94.5994301  25.7241505  27.4286440  94.0538219  24.3129395  27.3769170
  91.5452258  32.2015930  21.8551003  91.4106726  31.4416331  21.2889001
  91.1284321  32.9256830  21.3879792  94.7021384  33.0985247  22.0669446
  94.5853768  34.0430680  21.9648136  93.8813830  32.7958809  22.4555245
  89.0336326  19.5635561  28.1043800  89.6795189  19.0534514  28.5931025
  88.8253477  20.3004242  28.6787225 101.5589718  26.6316408  33.6035941
 102.4280878  26.8057060  33.2422575 101.0796470  27.4510825  33.4811670
  95.7275898  33.7513509  25.2825374  96.6303145  33.7837119  25.5991869
  95.5013268  32.8213960  25.2971710  97.4829500  32.5044496  21.9435453
  96.5325131  32.5046357  21.8299825  97.7861986  31.7577230  21.4271487
  93.3733817  16.7103178  32.2018814  94.2365278  16.3539982  32.4122139
  92.7999228  16.3717072  32.8894218 113.2182194  38.3405034  23.0081215
 113.8560604  38.2211781  22.3044555 113.1003037  39.2885878  23.0669167
 110.0271900  38.2932462  22.9442740 109.6890412  38.1773527  22.0563275
 110.8961668  37.8923627  22.9243746 105.8858716  40.1467938  18.9339631
 105.3223581  40.0557875  18.1655919 105.7711111  39.3267843  19.4142123
 110.5091683  39.4467314  28.9028945 110.4980324  39.0520112  28.0309449
 110.6712323  38.7133386  29.4962717 103.4323148  41.6419130  21.7723851
 104.2244440  41.3009955  21.3570151 103.6719798  41.7514105  22.6926005
 111.4658274  43.8138906  14.2454096 110.8146254  44.3992987  13.8588110
 112.2602637  44.3445101  14.3049133 105.3913902  40.9028043  14.6441230
 106.1644778  40.3557030  14.5054106 105.7439300  41.7672293  14.8555691
 107.2298944  42.2304426  27.8508129 106.9388810  43.1350056  27.7354796
 107.8655929  42.2720953  28.5652199 108.1555151  39.6081274  24.4409489
 108.7518723  39.3837296  23.7266452 108.2130123  38.8666020  25.0434937
 112.7723462  36.0656488  20.0834423 113.5586551  35.6475911  19.7324840
 113.0362167  36.9702580  20.2516072 107.4476468  38.9648815  14.4784055
 107.3312726  38.2893719  15.1465139 107.5578728  38.4781189  13.6616208
 109.7908009  38.4258962  18.1830744 109.4266216  37.8989583  18.8943666
 110.6475125  38.0357432  18.0097230 115.6957310  29.7153295  25.4462010
 115.3640635  30.5848706  25.2223225 115.1002923  29.3989579  26.1256041
 112.1888829  41.9165841  24.8457923 111.8889552  42.8190880  24.7373730
 111.8439889  41.6498024  25.6979076 105.6401311  38.3679638  20.8794628
 104.7151807  38.2355852  21.0872319 105.8885724  39.1473857  21.3764570
 115.5885973  34.4348381  22.5255360 114.6802850  34.3663790  22.2314121
 115.5373569  34.9120326  23.3537186 103.0010122  38.0112911  21.7138417
 103.1302503  38.2647390  22.6277828 102.3207573  38.6040619  21.3943072
 107.1709609  48.6810161  17.8128891 107.0933639  49.6317987  17.8917371
 106.5671253  48.3356034  18.4703817 109.6626839  35.8538027  30.4690258
 108.8860173  36.4131947  30.4593122 110.3017402  36.3394810  30.9905128
 117.4547619  32.6364820  24.3033234 116.8122000  32.9297353  23.6573029
 116.9502548  32.5217740  25.1086431 107.9173211  38.6623480  30.0308225
 108.6587896  39.2008524  29.7543048 107.2110197  39.2889769  30.1879776
 113.3928551  40.8052621  28.6280386 113.8011907  40.3635031  27.8835019
 112.6705812  40.2305248  28.8814579 109.7459621  35.7425227  26.0013943
 110.5920816  36.1664641  26.1448592 109.6858259  35.0858852  26.6952506
 113.7157365  41.3653811  22.3832675 113.0866228  41.5299525  21.6808743
 113.3283028  41.7795421  23.1543639 117.5946597  42.3008249  19.7377039
 116.9097635  42.6807151  19.1874072 117.6790447  42.9103576  20.4708987
 112.8959066  33.4029596  27.6595117 112.6519998  34.1571656  27.1229392
 113.1718997  33.7814943  28.4942364 114.8497529  39.9468208  26.3372382
 115.0614424  40.5899968  25.6606763 114.8027277  39.1130525  25.8694312
 112.4523758  32.5586029  23.2408954 111.5908237  32.8567282  23.5325692
 112.4786193  32.7756428  22.3089987 109.2685327  41.1028219  19.6482760
 109.7323673  41.3815922  18.8587383 109.0042125  40.2011664  19.4655851
 106.1609408  40.6499701  22.5862523 106.7310765  41.0786969  21.9480008
 106.7517520  40.3682286  23.2846709 108.2054213  37.2251372  16.4572325
 108.9078257  37.6772415  16.9246252 107.8734842  36.5835191  17.0852218
 106.6534575  35.8163128  30.8323535 106.0233235  36.4979409  31.0658932
 106.5470663  35.7046210  29.8876673 101.9479547  35.4834924  21.7589459
 101.1578601  35.7392453  21.2829569 102.4390795  36.2983262  21.8641499
 115.9643357  42.8240164  24.5094740 116.7860801  42.4220351  24.2277421
 115.9605760  42.7208398  25.4610855 103.8994293  35.8479504  18.7172936
 103.1025456  35.9598198  19.2356431 103.6719885  36.1866156  17.8513826
 109.7299960  42.3724207  26.6655450 109.7944393  42.8344614  27.5013622
 109.0210884  41.7421572  26.7937760 100.2317250  35.7365415  24.1904450
 100.4825289  36.6212425  24.4562026 100.7676799  35.5570016  23.4179541
 109.4447978  44.0392314  16.5334431 109.3093653  44.8843850  16.9619278
 109.9857790  44.2411592  15.7700364 105.9315318  30.1183894  33.1948786
 105.5382263  29.5650093  33.8696430 106.7481458  30.4294473  33.5855303
 102.8977375  41.5567752  17.1062356 103.4101896  42.3511003  17.2567920
 103.5500088  40.8594043  17.0395957 104.7072260  44.6733509  19.1885109
 104.8838888  45.5951473  19.0006093 105.5029094  44.3591928  19.6179489
 108.8483279  31.5341773  30.7869042 109.5892992  32.1348926  30.7073505
 109.0801201  30.7919411  30.2287085 103.9924617  36.7198141  29.0647272
 103.8778132  35.8183398  29.3654371 103.1369134  36.9661837  28.7132089
 111.0716454  44.6615881  30.6634773 110.6280309  43.8752259  30.3455677
 111.7333668  44.8495031  29.9978663 105.8303576  46.1911682  25.1895451
 106.3811001  46.0628746  24.4172445 104.9915051  46.4906571  24.8390344
 113.1697692  44.9418681  28.6916174 113.1516168  45.7627562  28.1996443
 114.0917612  44.8172756  28.9166315 109.6270747  42.4562810  29.5339682
 110.1599083  41.6951098  29.3038990 109.0984828  42.1636462  30.2763837
 112.7940442  27.5622876  25.0633324 112.4504711  28.4524518  24.9872435
 113.1619404  27.3724534  24.2002909 100.8626292  39.8856407  17.8821926
 101.7001514  40.2953415  17.6655634 101.0404560  38.9455849  17.8522120
 111.8736982  29.9327531  23.0282557 111.3701778  29.8957667  22.2150363
 112.1667589  30.8420274  23.0879214 108.1179868  30.0166261  22.0348739
 108.9832865  29.8209070  21.6754628 108.1857377  29.7876613  22.9618096
 110.9923459  41.5848803  17.0458494 110.4644821  40.8501562  16.7331732
 110.4910962  42.3623479  16.7998463 115.9716305  39.7797823  22.1625541
 115.3139980  40.4697085  22.2505669 116.7756705  40.1694255  22.5059527
 105.7242187  32.2468469  19.4065106 106.2985939  32.0243651  18.6738299
 106.3113169  32.3157164  20.1593707 114.7821764  38.1342196  20.2129482
 115.2953646  38.7672188  20.7151192 115.4322988  37.5343391  19.8472842
 112.0444138  48.1126520  12.9690153 111.3705837  48.4158217  13.5775111
 112.4309960  48.9155601  12.6195611 111.2602595  35.6091652  22.4587823
 110.3425156  35.8306599  22.3009511 111.6762739  35.6837962  21.5999530
 115.5483560  43.1148197  18.3408625 115.0945887  42.2739107  18.3973815
 114.9177527  43.7509596  18.6783405 113.9916500  44.9524694  19.2758443
 114.2839474  45.5129751  18.5570809 114.5015120  45.2453255  20.0311602
 100.8852463  37.2247122  18.5532660 100.6876863  36.6316483  17.8283726
 100.3299127  36.9199332  19.2708598 108.8649187  37.1170229  20.6727253
 108.9197797  36.1644065  20.5969729 108.0540389  37.2729668  21.1568551
 106.8041547  35.7347288  18.4317632 105.9909412  36.0341459  18.8382824
 107.3000541  35.3402977  19.1492114 108.9550125  45.7305045  20.3651896
 108.9126304  45.9565891  19.4360428 109.8712824  45.4968420  20.5137697
 112.4015759  36.1989113  27.2632525 112.7565146  36.4260586  28.1226991
 113.0487890  36.5307490  26.6409781 106.2955622  33.3065644  24.0478867
 106.9355001  33.1654403  23.3501830 105.4633152  33.0200157  23.6717469
 118.1582875  41.3884076  22.9793126 118.5919382  41.2959365  23.8276180
 118.8714456  41.3641576  22.3413142 107.0715926  42.6068074  20.1613859
 107.8656524  42.1118394  19.9596434 106.3607618  42.0785937  19.7981565
 111.8910770  44.9886170  24.5126227 111.9447792  45.5577106  25.2803943
 111.0225551  45.1588055  24.1480264 103.3798689  36.7511156  16.2373612
 102.4496277  36.6895611  16.4543574 103.4756161  36.2287109  15.4410253
 103.2984238  33.2765969  18.8251853 103.5591055  34.1911302  18.7161014
 104.1201410  32.8090411  18.9748466 104.7709163  34.6903726  25.9950678
 105.4432217  34.4821088  25.3463327 103.9438950  34.4925812  25.5555910
 119.0198425  41.4307776  25.5126011 119.2134315  42.3353587  25.7585286
 118.9199043  40.9715195  26.3464596 110.6734735  31.3165667  28.0116339
 110.0262650  32.0155617  27.9180815 111.4435751  31.7501811  28.3792587
 114.0813533  41.5814519  31.0866892 113.9299040  41.3525071  30.1696976
 114.0718213  42.5385120  31.0998237 110.8498870  39.1546432  26.0713158
 111.7790930  39.3057591  25.8982126 110.4289900  39.2430453  25.2161805
 109.6487202  43.1797096  23.8411696 109.5098287  42.8115881  24.7137634
 108.8601798  43.6944736  23.6695654 110.2435354  48.2806193  15.1837233
 110.4187109  47.8094236  15.9982855 109.5568142  48.9071959  15.4118493
 111.1992417  42.5578699  21.2300534 110.8642249  42.5179469  22.1258184
 110.6996362  41.8923415  20.7570944 105.1736661  37.9646329  26.7553115
 105.0356459  37.2326568  27.3564654 106.0841584  37.8755229  26.4737303
 107.8018961  37.6766288  26.2436795 108.5118580  37.0359480  26.2023413
 107.7588269  37.9279183  27.1662975 115.7905740  44.6133642  29.1643374
 115.7318286  43.9292862  28.4973957 116.1925258  45.3552632  28.7124000
 106.5147895  34.6631506  28.0632434 105.9785252  34.2122245  28.7154030
 105.9264604  34.7977415  27.3202899 104.8096439  51.4295555  21.9577093
 105.0493037  52.0614080  22.6356111 103.9665635  51.0783595  22.2442452
 115.7923147  42.5773226  27.3957354 114.9049926  42.2399147  27.5183752
 116.3621698  41.8456257  27.6326119  97.4452294  38.9097317  20.7200405
  98.1323334  38.5959047  20.1321420  97.2900423  39.8138682  20.4467656
 102.2487017  33.7987514  25.1485429 102.1645205  33.1913183  24.4135839
 101.4269723  34.2896532  25.1494925 109.3224301  47.2374678  24.3618597
 109.2494472  48.0429649  24.8737901 108.8801694  47.4366644  23.5366618
 109.1114080  46.4746448  17.8721418 108.3281602  47.0168128  17.9659643
 109.8106825  46.9920428  18.2715660 111.7822984  47.1361512  26.5176755
 112.4950956  47.7708977  26.4452657 111.2913013  47.2325378  25.7016757
 113.5040511  41.0412765  18.0894047 112.5696790  41.1614227  17.9198751
 113.6817180  40.1385231  17.8254057 109.0045699  34.4258460  20.2427308
 108.6343487  33.8729501  20.9308214 109.5004792  33.8216594  19.6902308
 106.8334898  44.8855955  27.3382326 107.5344357  45.5192438  27.4911720
 106.3630013  45.2270687  26.5777966 114.6336184  37.4400563  25.1634877
 113.9807634  37.6876470  24.5087329 115.0116564  36.6264701  24.8297354
 111.5943358  47.4760256  19.2663047 111.7765752  46.6581912  19.7290799
 112.4176344  47.6927948  18.8287937 111.9285523  46.4028441  16.5278095
 112.4573289  45.8920896  15.9148257 112.1913743  46.0870971  17.3923628
 110.6823757  38.1820374  31.6500914 110.0064394  38.0814503  32.3203289
 111.5051391  38.0259588  32.1136911 102.4302616  44.4192310  24.2713429
 103.0156053  43.6735998  24.4041333 102.2327454  44.7296267  25.1550093
 105.2841271  47.4543558  19.2875871 104.6151646  47.9389685  18.8039911
 105.1454141  47.7012778  20.2019250  97.0220271  36.9897911  22.9917872
  97.0604370  36.4561501  23.7854990  96.5160563  36.4633116  22.3728849
 109.4246540  49.4887301  25.8858530 109.9764848  49.6518923  26.6507615
 109.7652733  50.0791739  25.2138555 104.4011033  31.8362451  26.4880414
 104.4652359  32.6977282  26.0757812 104.3378153  31.2236453  25.7552773
 103.8763305  33.9085584  30.1353449 104.5035344  33.5262661  30.7490973
 103.0191224  33.6899786  30.5009141 114.2757414  44.3148559  31.7407184
 114.8197318  44.9278517  31.2462139 113.6944259  44.8728137  32.2574197
 100.6528848  35.7162013  16.0671803 100.9482289  34.8072691  16.0138857
  99.7516884  35.6949752  15.7452806 112.5614927  47.4369277  22.8722212
 112.4366066  46.6359017  22.3633157 113.2194018  47.9315470  22.3836182
 104.1823095  33.7918009  22.0499352 103.4609681  34.4053977  21.9106825
 104.9716351  34.3275774  21.9715998 114.6249835  45.2378297  24.5001762
 113.6780171  45.1183648  24.4280089 114.9732608  44.3500795  24.5828023
 106.9849409  31.1272436  28.3240004 107.5083810  31.3734732  29.0866313
 106.7661742  31.9592471  27.9043141 102.3816690  33.3976110  16.1911129
 102.0529396  32.5173489  16.0086235 102.7356060  33.3423779  17.0787518
 111.6296269  45.0331013  20.7006114 111.4821231  44.1047721  20.8813684
 112.4549762  45.0551104  20.2163189 105.4958513  33.6849080  16.5586606
 105.8354585  34.2135001  15.8365215 105.9430633  34.0229486  17.3345173
 115.2330390  45.8559572  21.7870987 116.1576938  45.6502433  21.6495438
 115.0645694  45.6075973  22.6960328 108.1901954  32.0686131  26.0089674
 107.8498774  31.2693944  26.4110354 107.4840960  32.3687842  25.4366508
 108.8418425  29.1535443  24.4616997 109.6644495  28.6795922  24.3395888
 109.0856489  29.9325927  24.9615684 106.3657004  35.8454564  22.2708976
 106.2201585  36.1594867  23.1633258 105.8882208  36.4639464  21.7179875
 108.2253387  32.8357112  22.3189866 108.2114956  31.9398205  21.9822164
 108.9425815  32.8427776  22.9528152 110.0779518  33.2694452  24.3642993
 109.8197296  34.1911523  24.3627323 109.5464558  32.8724887  25.0543457
 115.0225707  46.3745239  17.1433078 115.1962584  45.8091662  16.3906931
 115.5154598  47.1746134  16.9612568 100.8402666  38.3859908  25.2096637
 100.2956134  39.1619716  25.3416912 101.7182016  38.7330713  25.0515759
 107.6290283  31.7171492  17.5877436 107.7506194  30.7888138  17.7868323
 107.3392325  31.7310178  16.6755751 101.6268688  37.5129805  28.1026794
 100.8850424  37.6612440  28.6891424 101.3061433  37.7738070  27.2393543
 109.5712351  47.0545783  27.9007184 109.8799477  46.8094930  28.7729884
 110.3687833  47.2592421  27.4126054 109.5932963  49.2083693  20.1312561
 109.1537953  48.7160071  20.8245417 110.3441080  48.6656660  19.8904636
 102.0725302  45.3995233  20.1337189 102.8983322  45.0999005  19.7535832
 101.7219354  44.6302856  20.5826977 107.0406835  44.7521702  22.2034862
 106.4186844  44.0892407  21.9037090 107.7111702  44.7782834  21.5208510
 100.2733907  43.3181560  21.0926122  99.4365815  42.8903734  20.9110124
 100.2457552  43.5114003  22.0296913 107.1131363  33.2303490  31.7967368
 107.1619518  34.1065612  31.4145138 107.6553877  32.6880883  31.2239012
 117.5986208  43.7744613  31.0768505 116.8081752  43.7568752  30.5373005
 117.3619563  44.3132907  31.8317542 117.7184083  40.6237079  28.3901234
 117.7682088  40.4587087  29.3316757 117.6098007  39.7564338  27.9999115
 106.6020342  43.3025625  15.6793323 106.7508462  43.9861089  15.0259996
 107.4086785  43.2830715  16.1942779 115.0087846  36.6068007  29.7060541
 115.9097708  36.4674472  29.4144538 115.0835820  36.7722462  30.6458718
 109.3430651  33.9834862  28.5513727 108.4733960  34.2768428  28.2796315
 109.5790131  34.5675307  29.2720991 119.2202280  43.0434021  28.6343255
 118.9287088  43.4064001  29.4706716 118.6074411  42.3301029  28.4556588
 117.4689468  38.1666635  27.1023313 117.9443590  38.3594282  26.2942165
 116.5455034  38.2225821  26.8566697 104.3572975  39.3290803  16.6854392
 104.1119017  38.4253133  16.8834602 104.5268890  39.3307953  15.7433870
 112.0469685  30.2014479  26.0679147 112.5651629  30.9375506  25.7425636
 111.6924818  30.5078472  26.9025906 103.6268623  35.0619160  14.1840553
 102.9337867  35.1363515  13.5280589 103.3820374  34.2979504  14.7062070
 110.1015748  45.7973755  13.1505070 109.5289715  46.4163943  12.6975542
 110.6748541  46.3473117  13.6844992 116.1691137  35.0432396  25.3351619
 117.1208560  35.1430493  25.3563843 115.9994588  34.2510664  25.8449703
 114.1905517  32.1287979  25.5211020 113.5955449  32.4092991  24.8257509
 113.9055214  32.6181880  26.2927761 113.3213007  46.0810906  14.2813653
 114.2543680  46.0156467  14.4846528 113.2336220  46.9167172  13.8228185
 118.6479215  38.2638515  24.4493919 118.6155535  37.3254516  24.6353603
 119.2579839  38.3422552  23.7159744 110.3701239  41.1852314  31.9521780
 111.2904248  41.3630913  32.1461826 110.3350822  40.2408360  31.8001479
  99.5883404  36.3790908  20.8775054  99.2686188  35.5256216  20.5849428
  99.0416832  36.5939486  21.6333022 103.3663311  39.0953349  24.5944561
 103.5849321  40.0270457  24.6132595 103.7789085  38.7361323  25.3799365
 108.2391176  34.6686555  33.9847310 108.1387903  35.6180912  33.9159401
 108.0212718  34.3404794  33.1123380  99.4571664  39.9993819  22.8468176
  98.7635135  39.5847772  22.3338130 100.2044655  40.0414356  22.2501595
 108.1022446  38.0983694  32.8012371 107.6189528  38.8984054  33.0076260
 108.1883386  38.1091638  31.8479815 101.3708406  39.9312073  20.7234191
 101.3479094  40.0299761  19.7716074 101.6809043  40.7777224  21.0451357
 104.0295784  41.9888228  24.8380805 104.9839038  41.9572171  24.7710737
 103.8308308  41.5278852  25.6531031 104.6195166  40.5589344  27.4051603
 105.4388055  41.0533423  27.4286440 104.8931974  39.6421312  27.3769170
 102.3846013  47.5307848  21.8551003 102.2500481  46.7708249  21.2889001
 101.9678075  48.2548748  21.3879792 105.5415139  48.4277165  22.0669446
 105.4247523  49.3722597  21.9648136 104.7207585  48.1250726  22.4555245
  99.8730080  34.8927478  28.1043800 100.5188944  34.3826432  28.5931025
  99.6647231  35.6296160  28.6787225 112.3983473  41.9608326  33.6035941
 113.2674632  42.1348978  33.2422575 111.9190224  42.7802742  33.4811670
 106.5669653  49.0805427  25.2825374 107.4696899  49.1129037  25.5991869
 106.3407023  48.1505878  25.2971710 108.3223255  47.8336413  21.9435453
 107.3718886  47.8338275  21.8299825 108.6255741  47.0869148  21.4271487
 104.2127571  32.0395095  32.2018814 105.0759033  31.6831900  32.4122139
 103.6392982  31.7008990  32.8894218 120.8665655  53.6224380  22.9442740
 120.5284166  53.5065444  22.0563275 121.7355423  53.2215545  22.9243746
 116.7252470  55.4759856  18.9339631 116.1617335  55.3849793  18.1655919
 116.6104865  54.6559761  19.4142123 121.3485438  54.7759231  28.9028945
 121.3374078  54.3812030  28.0309449 121.5106077  54.0425304  29.4962717
 114.2716902  56.9711048  21.7723851 115.0638194  56.6301872  21.3570151
 114.5113552  57.0806023  22.6926005 116.2307656  56.2319961  14.6441230
 117.0038532  55.6848948  14.5054106 116.5833055  57.0964210  14.8555691
 118.0692699  57.5596343  27.8508129 117.7782565  58.4641974  27.7354796
 118.7049683  57.6012871  28.5652199 118.9948906  54.9373192  24.4409489
 119.5912478  54.7129214  23.7266452 119.0523877  54.1957937  25.0434937
 118.2870223  54.2940733  14.4784055 118.1706481  53.6185636  15.1465139
 118.3972483  53.8073107  13.6616208 120.6301764  53.7550880  18.1830744
 120.2659971  53.2281501  18.8943666 121.4868880  53.3649349  18.0097230
 116.4795065  53.6971556  20.8794628 115.5545562  53.5647770  21.0872319
 116.7279478  54.4765775  21.3764570 113.8403876  53.3404829  21.7138417
 113.9696257  53.5939308  22.6277828 113.1601328  53.9332537  21.3943072
 118.0103364  64.0102079  17.8128891 117.9327393  64.9609904  17.8917371
 117.4065007  63.6647952  18.4703817 120.5020593  51.1829945  30.4690258
 119.7253927  51.7423865  30.4593122 121.1411156  51.6686728  30.9905128
 118.7566966  53.9915398  30.0308225 119.4981650  54.5300442  29.7543048
 118.0503951  54.6181687  30.1879776 120.5853375  51.0717145  26.0013943
 121.4314571  51.4956559  26.1448592 120.5252013  50.4150769  26.6952506
 120.1079082  56.4320137  19.6482760 120.5717427  56.7107840  18.8587383
 119.8435880  55.5303582  19.4655851 117.0003163  55.9791619  22.5862523
 117.5704520  56.4078887  21.9480008 117.5911275  55.6974203  23.2846709
 119.0447968  52.5543289  16.4572325 119.7472011  53.0064333  16.9246252
 118.7128596  51.9127108  17.0852218 117.4928329  51.1455046  30.8323535
 116.8626990  51.8271327  31.0658932 117.3864417  51.0338128  29.8876673
 112.7873302  50.8126842  21.7589459 111.9972356  51.0684371  21.2829569
 113.2784549  51.6275180  21.8641499 114.7388047  51.1771421  18.7172936
 113.9419210  51.2890116  19.2356431 114.5113639  51.5158074  17.8513826
 120.5693715  57.7016125  26.6655450 120.6338147  58.1636532  27.5013622
 119.8604639  57.0713489  26.7937760 111.0711005  51.0657333  24.1904450
 111.3219043  51.9504342  24.4562026 111.6070553  50.8861934  23.4179541
 120.2841732  59.3684232  16.5334431 120.1487407  60.2135768  16.9619278
 120.8251545  59.5703510  15.7700364 116.7709072  45.4475812  33.1948786
 116.3776018  44.8942010  33.8696430 117.5875212  45.7586390  33.5855303
 113.7371130  56.8859670  17.1062356 114.2495650  57.6802920  17.2567920
 114.3893843  56.1885961  17.0395957 115.5466015  60.0025426  19.1885109
 115.7232643  60.9243391  19.0006093 116.3422848  59.6883846  19.6179489
 119.6877033  46.8633691  30.7869042 120.4286746  47.4640844  30.7073505
 119.9194956  46.1211329  30.2287085 114.8318371  52.0490058  29.0647272
 114.7171886  51.1475315  29.3654371 113.9762889  52.2953755  28.7132089
 116.6697330  61.5203600  25.1895451 117.2204755  61.3920664  24.4172445
 115.8308806  61.8198489  24.8390344 120.4664501  57.7854728  29.5339682
 120.9992838  57.0243016  29.3038990 119.9378582  57.4928380  30.2763837
 111.7020047  55.2148324  17.8821926 112.5395269  55.6245333  17.6655634
 111.8798314  54.2747767  17.8522120 118.9573622  45.3458179  22.0348739
 119.8226619  45.1500987  21.6754628 119.0251131  45.1168531  22.9618096
 121.8317214  56.9140720  17.0458494 121.3038575  56.1793480  16.7331732
 121.3304717  57.6915397  16.7998463 116.5635941  47.5760387  19.4065106
 117.1379693  47.3535568  18.6738299 117.1506924  47.6449081  20.1593707
 111.7246218  52.5539040  18.5532660 111.5270618  51.9608400  17.8283726
 111.1692882  52.2491250  19.2708598 119.7042941  52.4462146  20.6727253
 119.7591551  51.4935983  20.5969729 118.8934143  52.6021585  21.1568551
 117.6435301  51.0639206  18.4317632 116.8303167  51.3633376  18.8382824
 118.1394296  50.6694895  19.1492114 119.7943879  61.0596963  20.3651896
 119.7520058  61.2857809  19.4360428 120.7106578  60.8260337  20.5137697
 117.1349376  48.6357561  24.0478867 117.7748755  48.4946321  23.3501830
 116.3026907  48.3492075  23.6717469 117.9109680  57.9359992  20.1613859
 118.7050279  57.4410312  19.9596434 117.2001372  57.4077855  19.7981565
 114.2192443  52.0803074  16.2373612 113.2890032  52.0187529  16.4543574
 114.3149915  51.5579026  15.4410253 114.1377993  48.6057886  18.8251853
 114.3984810  49.5203220  18.7161014 114.9595165  48.1382329  18.9748466
 115.6102918  50.0195644  25.9950678 116.2825971  49.8113006  25.3463327
 114.7832704  49.8217730  25.5555910 121.5128490  46.6457585  28.0116339
 120.8656405  47.3447534  27.9180815 122.2829505  47.0793728  28.3792587
 120.4880956  58.5089014  23.8411696 120.3492042  58.1407798  24.7137634
 119.6995552  59.0236653  23.6695654 121.0829108  63.6098110  15.1837233
 121.2580864  63.1386154  15.9982855 120.3961896  64.2363877  15.4118493
 122.0386171  57.8870617  21.2300534 121.7036004  57.8471387  22.1258184
 121.5390117  57.2215332  20.7570944 116.0130415  53.2938247  26.7553115
 115.8750213  52.5618485  27.3564654 116.9235339  53.2047147  26.4737303
 118.6412716  53.0058206  26.2436795 119.3512334  52.3651398  26.2023413
 118.5982024  53.2571101  27.1662975 117.3541650  49.9923424  28.0632434
 116.8179007  49.5414162  28.7154030 116.7658358  50.1269333  27.3202899
 115.6490193  66.7587473  21.9577093 115.8886792  67.3905997  22.6356111
 114.8059390  66.4075513  22.2442452 108.2846049  54.2389235  20.7200405
 108.9717089  53.9250965  20.1321420 108.1294178  55.1430600  20.4467656
 113.0880771  49.1279431  25.1485429 113.0038960  48.5205101  24.4135839
 112.2663477  49.6188450  25.1494925 120.1618055  62.5666596  24.3618597
 120.0888227  63.3721567  24.8737901 119.7195448  62.7658561  23.5366618
 119.9507835  61.8038366  17.8721418 119.1675357  62.3460046  17.9659643
 120.6500580  62.3212345  18.2715660 119.8439454  49.7550378  20.2427308
 119.4737241  49.2021418  20.9308214 120.3398546  49.1508511  19.6902308
 117.6728652  60.2147873  27.3382326 118.3738112  60.8484356  27.4911720
 117.2023767  60.5562605  26.5777966 121.5217511  53.5112292  31.6500914
 120.8458148  53.4106421  32.3203289 122.3445145  53.3551505  32.1136911
 113.2696370  59.7484228  24.2713429 113.8549807  59.0027916  24.4041333
 113.0721209  60.0588185  25.1550093 116.1235025  62.7835475  19.2875871
 115.4545401  63.2681603  18.8039911 115.9847895  63.0304696  20.2019250
 107.8614025  52.3189828  22.9917872 107.8998125  51.7853419  23.7854990
 107.3554318  51.7925034  22.3728849 120.2640294  64.8179219  25.8858530
 120.8158602  64.9810840  26.6507615 120.6046488  65.4083657  25.2138555
 115.2404787  47.1654369  26.4880414 115.3046114  48.0269200  26.0757812
 115.1771908  46.5528370  25.7552773 114.7157060  49.2377501  30.1353449
 115.3429099  48.8554579  30.7490973 113.8584979  49.0191703  30.5009141
 111.4922603  51.0453930  16.0671803 111.7876044  50.1364609  16.0138857
 110.5910638  51.0241670  15.7452806 115.0216850  49.1209927  22.0499352
 114.3003435  49.7345895  21.9106825 115.8110105  49.6567692  21.9715998
 117.8243163  46.4564354  28.3240004 118.3477565  46.7026650  29.0866313
 117.6055496  47.2884388  27.9043141 113.2210444  48.7268028  16.1911129
 112.8923150  47.8465407  16.0086235 113.5749815  48.6715697  17.0787518
 116.3352267  49.0140998  16.5586606 116.6748340  49.5426919  15.8365215
 116.7824388  49.3521404  17.3345173 119.0295708  47.3978049  26.0089674
 118.6892529  46.5985862  26.4110354 118.3234714  47.6979759  25.4366508
 119.6812180  44.4827361  24.4616997 120.5038249  44.0087839  24.3395888
 119.9250243  45.2617845  24.9615684 117.2050759  51.1746482  22.2708976
 117.0595339  51.4886785  23.1633258 116.7275962  51.7931382  21.7179875
 119.0647142  48.1649030  22.3189866 119.0508710  47.2690123  21.9822164
 119.7819570  48.1719693  22.9528152 120.9173272  48.5986370  24.3642993
 120.6591050  49.5203441  24.3627323 120.3858313  48.2016804  25.0543457
 111.6796421  53.7151826  25.2096637 111.1349889  54.4911634  25.3416912
 112.5575771  54.0622631  25.0515759 118.4684038  47.0463410  17.5877436
 118.5899949  46.1180056  17.7868323 118.1786080  47.0602096  16.6755751
 112.4662443  52.8421722  28.1026794 111.7244179  52.9904358  28.6891424
 112.1455187  53.1029988  27.2393543 120.4106105  62.3837701  27.9007184
 120.7193232  62.1386847  28.7729884 121.2081587  62.5884339  27.4126054
 120.4326717  64.5375610  20.1312561 119.9931708  64.0451989  20.8245417
 121.1834834  63.9948578  19.8904636 112.9119056  60.7287151  20.1337189
 113.7377076  60.4290923  19.7535832 112.5613108  59.9594774  20.5826977
 117.8800590  60.0813619  22.2034862 117.2580599  59.4184324  21.9037090
 118.5505456  60.1074751  21.5208510 111.1127661  58.6473478  21.0926122
 110.2759570  58.2195652  20.9110124 111.0851307  58.8405921  22.0296913
 117.9525117  48.5595407  31.7967368 118.0013273  49.4357530  31.4145138
 118.4947631  48.0172800  31.2239012 117.4414096  58.6317543  15.6793323
 117.5902217  59.3153007  15.0259996 118.2480540  58.6122633  16.1942779
 120.1824406  49.3126780  28.5513727 119.3127715  49.6060346  28.2796315
 120.4183886  49.8967225  29.2720991 115.1966729  54.6582720  16.6854392
 114.9512771  53.7545050  16.8834602 115.3662644  54.6599871  15.7433870
 114.4662377  50.3911078  14.1840553 113.7731622  50.4655433  13.5280589
 114.2214129  49.6271421  14.7062070 120.9409502  61.1265673  13.1505070
 120.3683469  61.7455860  12.6975542 121.5142296  61.6765035  13.6844992
 121.2094993  56.5144232  31.9521780 122.1298003  56.6922831  32.1461826
 121.1744576  55.5700277  31.8001479 110.4277158  51.7082826  20.8775054
 110.1079942  50.8548134  20.5849428 109.8810586  51.9231404  21.6333022
 114.2057066  54.4245267  24.5944561 114.4243075  55.3562374  24.6132595
 114.6182839  54.0653241  25.3799365 119.0784931  49.9978472  33.9847310
 118.9781658  50.9472829  33.9159401 118.8606473  49.6696711  33.1123380
 110.2965418  55.3285737  22.8468176 109.6028889  54.9139690  22.3338130
 111.0438409  55.3706274  22.2501595 118.9416201  53.4275611  32.8012371
 118.4583283  54.2275971  33.0076260 119.0277140  53.4383556  31.8479815
 112.2102161  55.2603991  20.7234191 112.1872849  55.3591678  19.7716074
 112.5202797  56.1069142  21.0451357 114.8689538  57.3180146  24.8380805
 115.8232792  57.2864088  24.7710737 114.6702062  56.8570770  25.6531031
 115.4588921  55.8881262  27.4051603 116.2781810  56.3825341  27.4286440
 115.7325728  54.9713230  27.3769170 113.2239767  62.8599765  21.8551003
 113.0894235  62.1000166  21.2889001 112.8071830  63.5840665  21.3879792
 116.3808893  63.7569082  22.0669446 116.2641277  64.7014515  21.9648136
 115.5601339  63.4542644  22.4555245 110.7123835  50.2219396  28.1043800
 111.3582698  49.7118350  28.5931025 110.5040986  50.9588077  28.6787225
 117.4063407  64.4097344  25.2825374 118.3090654  64.4420955  25.5991869
 117.1800777  63.4797795  25.2971710 119.1617009  63.1628331  21.9435453
 118.2112640  63.1630192  21.8299825 119.4649495  62.4161065  21.4271487
 115.0521326  47.3687013  32.2018814 115.9152787  47.0123818  32.4122139
 114.4786736  47.0300908  32.8894218 121.9104759  66.3949250  24.1904450
 122.1612798  67.2796260  24.4562026 122.4464308  66.2153852  23.4179541
 119.1239803  69.5681153  20.7200405 119.8110843  69.2542883  20.1321420
 118.9687932  70.4722517  20.4467656 118.7007779  67.6481746  22.9917872
 118.7391879  67.1145337  23.7854990 118.1948072  67.1216951  22.3728849
 121.9521416  73.9765395  21.0926122 121.1153324  73.5487570  20.9110124
 121.9245061  74.1697839  22.0296913 121.2670913  67.0374743  20.8775054
 120.9473697  66.1840052  20.5849428 120.7204341  67.2523321  21.6333022
 121.1359173  70.6577655  22.8468176 120.4422644  70.2431608  22.3338130
 121.8832164  70.6998191  22.2501595 121.5517589  65.5511314  28.1043800
 122.1976453  65.0410268  28.5931025 121.3434740  66.2879995  28.6787225
   4.8218043  54.4970835 100.5107868   4.0681751  53.9278233 100.3551873
   4.9565584  54.4633500 101.4578503   1.6433791  54.4673585  98.4151535
   2.0864937  53.7180910  98.0170658   0.7660301  54.4583722  98.0325267
   1.1866656  55.9378824 100.8073983   2.0213547  56.3768628 100.9711543
   1.3225784  55.4617477  99.9882229   5.2324458  54.6546445 103.2428113
   5.9627847  54.3931733 103.8035816   4.6231404  53.9175167 103.2830181
   3.3139755  52.7954308 103.8402564   2.5872919  52.6610273 103.2319055
   2.8987042  53.1031136 104.6459282   0.9317550  49.0166160 101.1935995
   1.5262041  48.7761896 100.4829304   1.0044134  48.2973290 101.8209532
   3.2388623  52.3232361  99.9679417   2.6788181  52.3925550 100.7410979
   2.6332126  52.1473345  99.2478913   4.8244641  68.9988875 102.6609372
   5.4623051  68.8795622 101.9572712   4.7065484  69.9469719 102.7197324
   1.6334348  68.9516303 102.5970897   1.2952859  68.8357367 101.7091432
   2.5024116  68.5507468 102.5771903   3.0720722  74.4722747  93.8982253
   2.4208702  75.0576827  93.5116267   3.8665085  75.0028942  93.9577290
   4.3785910  66.7240328  99.7362580   5.1648999  66.3059752  99.3852997
   4.6424614  67.6286421  99.9044229   4.5495987  72.1613179  94.4351237
   3.9141820  72.2347805  95.1472142   4.2193394  72.7506778  93.7570316
   9.7794337  66.6615562 100.6395559  10.5119509  66.0914778 100.8733388
   9.0233693  66.2737162 101.0802064   1.3970457  69.0842803  97.8358901
   1.0328664  68.5573424  98.5471823   2.2537573  68.6941272  97.6625387
   7.3019757  60.3737136 105.0990167   6.9703082  61.2432547 104.8751382
   6.7065371  60.0573420 105.7784198   1.0375944  64.1132703  92.8320250
   1.2050346  64.9812939  93.1990721   0.8473113  64.2759985  91.9081539
   3.7951277  72.5749682 104.4986080   3.4952000  73.4774721 104.3901887
   3.4502336  72.3081865 105.3507233   7.1948421  65.0932222 102.1783518
   6.2865298  65.0247630 101.8842278   7.1436016  65.5704167 103.0065343
   9.0610067  63.2948660 103.9561391   8.4184447  63.5881194 103.3101186
   8.5564996  63.1801581 104.7614588   6.7150231  67.0411834  94.6447251
   7.6268087  67.2739220  94.4694948   6.2059878  67.6248878  94.0822329
   4.9990998  71.4636461 108.2808543   5.4074354  71.0218872 107.5363176
   4.2768260  70.8889089 108.5342736   1.3522068  66.4009068 105.6542100
   2.1983264  66.8248482 105.7976749   1.2920706  65.7442692 106.3480663
   5.3219813  72.0237652 102.0360832   4.6928675  72.1883366 101.3336900
   4.9345475  72.4379262 102.8071796   9.2009045  72.9592090  99.3905196
   8.5160083  73.3390991  98.8402229   9.2852894  73.5687416 100.1237144
   4.5021514  64.0613436 107.3123274   4.2582446  64.8155497 106.7757550
   4.7781444  64.4398784 108.1470521   6.4559976  70.6052049 105.9900539
   6.6676872  71.2483809 105.3134921   6.4089725  69.7714365 105.5222470
   4.0586205  63.2169870 102.8937112   3.1970684  63.5151123 103.1853849
   4.0848640  63.4340268 101.9618144   0.8747775  71.7612060  99.3010917
   1.3386120  72.0399763  98.5115540   0.6104573  70.8595505  99.1184008
   7.5705804  73.4824004 104.1622897   8.3923248  73.0804192 103.8805578
   7.5668207  73.3792238 105.1139013  15.6611797  69.8262753 100.5107868
  14.9075506  69.2570151 100.3551873  15.7959339  69.7925417 101.4578503
   1.0510426  74.6976155  96.1862588   0.9156100  75.5427691  96.6147435
   1.5920238  74.8995433  95.4228521   4.4002889  58.2206717 104.7161481
   4.0567159  59.1108359 104.6400592   4.7681852  58.0308375 103.8531066
   4.3653172  68.2115328  93.2233916   3.8499795  68.9819933  93.4622304
   4.0930480  67.5380464  93.8466978   1.9500283  63.0565029  98.2819155
   1.0941879  62.6671879  98.1024793   2.3627235  63.1356990  97.4218940
   3.4799430  60.5911372 102.6810714   2.9764225  60.5541507 101.8678520
   3.7730036  61.5004115 102.7407371   9.3387446  70.9647683  95.1587090
   8.5616889  70.6258842  94.7142252  10.0178927  70.9700306  94.4842055
   4.1539475  66.0842420  95.0493697   3.8489611  66.3988569  95.9003841
   5.1069917  66.1623840  95.0921030   2.5985907  72.2432643  96.6986651
   2.0707268  71.5085403  96.3859889   2.0973410  73.0207320  96.4526620
   7.5778753  70.4381664 101.8153698   6.9202427  71.1280925 101.9033826
   8.3819152  70.8278096 102.1587684   6.3884212  68.7926037  99.8657639
   6.9016093  69.4256028 100.3679349   7.0385436  68.1927232  99.5000999
   3.6506586  78.7710361  92.6218311   2.9768285  79.0742058  93.2303268
   4.0372408  79.5739441  92.2723768   2.8665043  66.2675492 102.1115980
   1.9487604  66.4890439 101.9537668   3.2825186  66.3421803 101.2527687
   3.6500090  67.6666908  97.2418660   4.3971909  68.1788305  96.9325782
   3.9191680  67.3450961  98.1023054   1.9226740  70.1625449  94.2245614
   1.0137960  69.8784481  94.3218084   1.9521824  70.5824527  93.3648921
   7.1546008  73.7732038  97.9936782   6.7008335  72.9322948  98.0501973
   6.5239975  74.4093436  98.3311562   6.0978927  64.7024024  99.2237449
   5.3601684  64.1901410  99.5547692   6.3505701  64.2624406  98.4120726
   5.5978947  75.6108535  98.9286600   5.8901922  76.1713592  98.2098966
   6.1077568  75.9037096  99.6839759   6.1990555  57.4800276  99.8179219
   6.5049432  56.6197640  99.5305134   6.9243160  58.0717896  99.6178213
   1.6202828  71.7034192  91.5633693   1.1822258  70.9870051  91.1039330
   2.3613269  71.9310307  91.0018784   0.5612572  76.3888886 100.0180053
   0.5188751  76.6149732  99.0888585   1.4775271  76.1552260 100.1665855
   4.0078206  66.8572953 106.9160683   4.3627594  67.0844427 107.7755148
   4.6550337  67.1891330 106.2937938   9.7375943  69.9791389  97.6210012
   9.5993842  70.1692985  96.6931201   9.3812162  70.7410772  98.0778063
   9.7645323  72.0467916 102.6321283  10.1981829  71.9543205 103.4804337
  10.4776903  72.0225417 101.9941299   3.4973218  75.6470010 104.1654384
   3.5510240  76.2160947 104.9332100   2.6287999  75.8171895 103.8008421
  10.6260872  72.0891617 105.1654169  10.8196762  72.9937427 105.4113443
  10.5261490  71.6299036 105.9992754   2.2797183  61.9749508 107.6644496
   1.6325098  62.6739457 107.5708972   3.0498198  62.4085651 108.0320744
   2.4561317  69.8130272 105.7241316   3.3853377  69.9641432 105.5510283
   2.0352347  69.9014293 104.8689962   1.8497801  78.9390033  94.8365390
   2.0249557  78.4678077  95.6511012   1.1630589  79.5655800  95.0646650
   2.8054864  73.2162540 100.8828691   2.4704697  73.1763310 101.7786341
   2.3058810  72.5507255 100.4099101   5.7414056  70.5618574  91.1565751
   5.1243227  69.8365402  91.0598803   5.2730544  71.3227934  90.8132825
   7.3968188  75.2717482 108.8171531   7.3380734  74.5876702 108.1502114
   7.7987706  76.0136472 108.3652157   7.3985595  73.2357066 107.0485511
   6.5112374  72.8982988 107.1711910   7.9684146  72.5040097 107.2854276
   4.0273178  62.9424918 100.1683781   4.5241877  62.1894880  99.8484851
   3.2560159  62.9789235  99.6026990  11.8802935  68.6465284 101.8102072
  11.8692812  69.5289999 101.4396005  11.0120315  68.2936834 101.6156609
   5.1102959  71.6996605  97.7422204   4.1759237  71.8198068  97.5726909
   5.2879627  70.7969072  97.4782214   8.4975510  67.5413925  98.2772238
   8.9635962  68.3741916  98.2032541   8.9483010  67.0758906  98.9817497
   6.5651741  73.8857746  95.2758390   6.8411585  73.7714340  96.1852264
   5.6956240  73.4875231  95.2370563   6.4692173  59.9094512 102.3163140
   5.5555253  60.1398738 102.4845347   6.8985274  59.9932956 103.1677172
   6.2398631  68.0984403 104.8163034   5.5870081  68.3460311 104.1615486
   6.6179011  67.2848542 104.4825511   3.2005805  78.1344097  98.9191204
   3.3828200  77.3165753  99.3818956   4.0238791  78.3511789  98.4816094
   3.5347971  77.0612282  96.1806252   4.0635737  76.5504736  95.5676415
   3.7976190  76.7454812  97.0451786   4.1677374  78.0953118 102.5250369
   4.0428514  77.2942857 102.0161314   4.8256466  78.5899311 102.0364339
   6.2312283  75.8962138 104.1529919   5.2842618  75.7767489 104.0808246
   6.5795056  75.0084636 104.2356180   3.2358716  75.6914854 100.3534271
   3.0883679  74.7631561 100.5341841   4.0612210  75.7134945  99.8691346
   6.8392838  76.5143413 101.4399144   7.7639385  76.3086274 101.3023595
   6.6708141  76.2659814 102.3488486   3.2320230  63.5452691  95.3466388
   3.4483845  64.4277329  95.0455217   2.7514298  63.1538905  94.6172030
   1.6841965  63.9278293 104.0171150   1.4259743  64.8495364 104.0155481
   1.1527006  63.5308727 104.7071614   6.6288154  77.0329080  96.7961235
   6.8025032  76.4675502  96.0435088   7.1217045  77.8329975  96.6140725
   2.1043921  60.0610243 100.3772313   2.1265618  60.1249576  99.4224292
   2.5211980  59.2214752 100.5712819  12.4827545  69.7965503  98.4151535
  12.9258691  69.0472828  98.0170658  11.6054056  69.7875639  98.0325267
   7.6163327  76.3495844  93.8958134   8.3114231  76.9702537  94.1145448
   7.9586477  75.4991196  94.1710512   9.5154750  73.7995550  95.4245465
  10.0406074  74.1382823  94.6994785   9.4277102  72.8642565  95.2408599
   1.1995411  79.8667533  99.7840718   0.7600401  79.3743912 100.4773574
   1.9503527  79.3240501  99.5432793   9.3246531  71.2820920 108.0429391
   9.3744536  71.1170927 108.9844914   9.2160454  70.4148179 107.6527272
   6.6150293  67.2651848 109.3588698   7.5160156  67.1258313 109.0672696
   6.6898268  67.4306303 110.2986875  10.8264728  73.7017861 108.2871413
  10.5349536  74.0647842 109.1234874  10.2136859  72.9884870 108.1084745
  12.0260410  71.2670741 100.8073983  12.8607301  71.7060545 100.9711543
  12.1619539  70.7909394  99.9882229   9.0751916  68.8250476 106.7551471
   9.5506038  69.0178122 105.9470322   8.1517481  68.8809662 106.5094854
   3.6532132  60.8598320 105.7207304   4.1714076  61.5959347 105.3953793
   3.2987265  61.1662313 106.5554064   3.9044727  57.2798602 101.2408201
   4.1846480  56.6121791 101.8668628   4.6895334  57.4727698 100.7282865
   1.7078195  76.4557596  92.8033227   1.1352162  77.0747783  92.3503699
   2.2810989  77.0056958  93.3373149   7.7753585  65.7016236 104.9879776
   8.7271008  65.8014334 105.0092000   7.6057035  64.9094505 105.4977861
   5.7967964  62.7871819 105.1739177   5.2017897  63.0676832 104.4785666
   5.5117661  63.2765720 105.9455918   4.9275455  76.7394746  93.9341810
   5.8606128  76.6740308  94.1374685   4.8398668  77.5751013  93.4756342
   7.5563472  76.0560617  90.8945757   7.4777103  75.7220480  91.7881515
   8.3773138  76.5482384  90.8937230  10.2541663  68.9222356 104.1022076
  10.2217983  67.9838357 104.2881760  10.8642286  69.0006393 103.3687901
   2.0924994  67.7918409  90.1449280   3.0384098  67.6624617  90.2137698
   1.7139239  67.0533071  90.6218708  10.4036151  65.7133399 104.1480359
   9.8875200  64.9291856 103.9610288  11.2876100  65.3852116 104.3126878
   8.0646878  59.4574415 100.1076172   7.8671699  59.1489503 100.9919504
   8.6746584  60.1836054 100.2374102  16.0718213  69.9838363 103.2428113
  16.8021601  69.7223651 103.8035816  15.4625158  69.2467085 103.2830181
  14.1533510  68.1246225 103.8402564  13.4266673  67.9902190 103.2319055
  13.7380797  68.4323054 104.6459282   1.8929976  60.2605275  96.2348406
   1.0830705  59.9152360  96.6103652   2.5814393  59.9512819  96.8236018
   3.8220525  59.3383322  97.8572703   4.3751563  59.7578775  98.5162726
   4.0590611  58.4119070  97.8995659   7.1999332  61.4483847  97.3651367
   6.6198001  62.1068651  96.9829420   6.9335265  60.6261192  96.9538785
   5.6502898  60.8488905  99.5672688   6.1502677  60.9605439  98.7587006
   6.2938506  60.5449957 100.2073496   5.9824210  63.6083937  96.4207716
   5.0950065  63.8933588  96.2027910   6.3978199  63.4477701  95.5734992
   9.3338746  63.6330458 100.1362055  10.1099136  64.1226911 100.4086672
   8.6086880  64.0588512 100.5933924  11.7711305  64.3458078 101.1935995
  12.3655795  64.1053813 100.4829304  11.8437888  63.6265208 101.8209532
   5.1267423  73.3728612  90.5155735   5.8303273  73.5778614  91.1313391
   4.4030072  73.9405374  90.7804819   5.9565234  69.1238473  96.6358006
   5.9000435  69.5807025  95.7965638   6.5093576  68.3629158  96.4580848
   9.7670040  64.9128205  97.4608125   9.5106974  64.5124841  98.2916333
   9.1422908  65.6271999  97.3358264  14.0782377  67.6524278  99.9679417
  13.5181935  67.7217468 100.7410979  13.4725881  67.4765263  99.2478913
   7.0354121  73.8111141  92.5654196   7.8699725  73.3792340  92.3831670
   6.8738464  73.6393155  93.4931090   6.6900013  70.3143254  93.9310535
   6.6348817  70.1487526  92.9898979   6.0646068  71.0219287  94.0872725
   3.8148258  56.4094140  97.7641790   3.0480654  55.8552627  97.9098472
   4.2258963  56.4816009  98.6255942  15.6638396  84.3280792 102.6609372
  16.3016806  84.2087540 101.9572712  15.5459239  85.2761636 102.7197324
  12.4728102  84.2808220 102.5970897  12.1346614  84.1649285 101.7091432
  13.3417870  83.8799385 102.5771903   8.3314918  86.1343697  98.5867788
   7.7679783  86.0433634  97.8184076   8.2167313  85.3143601  99.0670280
  13.9114477  89.8014665  93.8982253  13.2602456  90.3868745  93.5116267
  14.7058839  90.3320859  93.9577290   7.8370104  86.8903802  94.2969387
   8.6100980  86.3432789  94.1582263   8.1895503  87.7548051  94.5083849
  10.6011353  85.5957032 104.0937646  11.1974925  85.3713055 103.3794609
  10.6586325  84.8541778 104.6963094  10.1736382  83.0496468  91.9287837
  10.4261902  82.5277989  91.1671300   9.2360941  82.8862613  92.0314521
  15.2179664  82.0532246  99.7362580  16.0042754  81.6351669  99.3852997
  15.4818369  82.9578338  99.9044229  15.3889742  87.4905096  94.4351237
  14.7535575  87.5639723  95.1472142  15.0587148  88.0798695  93.7570316
  20.6188091  81.9907479 100.6395559  21.3513263  81.4206696 100.8733388
  19.8627447  81.6029080 101.0802064   9.8932670  84.9524574  94.1312212
   9.7768928  84.2769477  94.7993296  10.0034930  84.4656948  93.3144365
  12.2364211  84.4134721  97.8358901  11.8722418  83.8865342  98.5471823
  13.0931327  84.0233190  97.6625387  18.1413512  75.7029053 105.0990167
  17.8096837  76.5724464 104.8751382  17.5459125  75.3865337 105.7784198
  11.8769698  79.4424621  92.8320250  12.0444100  80.3104857  93.1990721
  11.6866867  79.6051902  91.9081539  14.6345031  87.9041599 104.4986080
  14.3345754  88.8066638 104.3901887  14.2896091  87.6373783 105.3507233
   8.0857513  84.3555396 100.5322785   7.1608009  84.2231610 100.7400476
   8.3341926  85.1349616 101.0292727  18.0342175  80.4224140 102.1783518
  17.1259052  80.3539548 101.8842278  17.9829771  80.8996085 103.0065343
  11.8558919  81.8982278  93.8166917  11.7358544  82.3439329  94.6552397
  11.1611507  82.2467596  93.2580455   9.6165811  94.6685920  97.4657048
   9.5389841  95.6193745  97.5445528   9.0127455  94.3231792  98.1231974
  19.9003822  78.6240578 103.9561391  19.2578202  78.9173111 103.3101186
  19.3958750  78.5093498 104.7614588  17.5543985  82.3703751  94.6447251
  18.4661841  82.6031138  94.4694948  17.0453632  82.9540795  94.0822329
  15.8384753  86.7928379 108.2808543  16.2468109  86.3510790 107.5363176
  15.1162014  86.2181007 108.5342736  12.1915823  81.7300986 105.6542100
  13.0377018  82.1540399 105.7976749  12.1314461  81.0734610 106.3480663
  16.1613567  87.3529570 102.0360832  15.5322430  87.5175284 101.3336900
  15.7739230  87.7671179 102.8071796  20.0402799  88.2884008  99.3905196
  19.3553838  88.6682909  98.8402229  20.1246649  88.8979334 100.1237144
  15.3415268  79.3905354 107.3123274  15.0976200  80.1447415 106.7757550
  15.6175199  79.7690702 108.1470521  17.2953731  85.9343967 105.9900539
  17.5070626  86.5775726 105.3134921  17.2483479  85.1006283 105.5222470
  14.8979960  78.5461787 102.8937112  14.0364439  78.8443041 103.1853849
  14.9242395  78.7632186 101.9618144  11.7141529  87.0903978  99.3010917
  12.1779875  87.3691681  98.5115540  11.4498327  86.1887422  99.1184008
   8.6065610  86.6375459 102.2390681   9.1766967  87.0662728 101.6008165
   9.1973722  86.3558044 102.9374866  10.6510415  83.2127130  96.1100482
  11.3534459  83.6648174  96.5774409  10.3191044  82.5710949  96.7380376
   4.3935749  81.4710683 101.4117616   3.6034803  81.7268211 100.9357727
   4.8846997  82.2859021 101.5169656  18.4099559  88.8115922 104.1622897
  19.2317003  88.4096109 103.8805578  18.4061962  88.7084156 105.1139013
   6.3450495  81.8355262  98.3701093   5.5481658  81.9473956  98.8884588
   6.1176087  82.1741914  97.5041983  26.5005552  85.1554670 100.5107868
  25.7469260  84.5862069 100.3551873  26.6353093  85.1217335 101.4578503
  11.8904180  90.0268073  96.1862588  11.7549855  90.8719608  96.6147435
  12.4313993  90.2287350  95.4228521   5.3433577  87.5443511  96.7590513
   5.8558098  88.3386761  96.9096077   5.9956290  86.8469801  96.6924114
   7.1528462  90.6609267  98.8413266   7.3295090  91.5827232  98.6534250
   7.9485296  90.3467686  99.2707646  11.2939481  77.5217532 110.4397199
  12.0349194  78.1224685 110.3601662  11.5257403  76.7795169 109.8815242
  15.2396644  73.5498635 104.7161481  14.8960913  74.4400276 104.6400592
  15.6075606  73.3600292 103.8531066   3.3082494  85.8732165  97.5350083
   4.1457716  86.2829173  97.3183791   3.4860762  84.9331607  97.5050277
  15.2046926  83.5407246  93.2233916  14.6893550  84.3111850  93.4622304
  14.9324235  82.8672382  93.8466978  12.7894037  78.3856947  98.2819155
  11.9335634  77.9963797  98.1024793  13.2020989  78.4648907  97.4218940
  14.3193184  75.9203290 102.6810714  13.8157980  75.8833425 101.8678520
  14.6123791  76.8296032 102.7407371  10.5636070  76.0042019 101.6876896
  11.4289067  75.8084828 101.3282786  10.6313579  75.7752371 102.6146253
  20.1781200  86.2939600  95.1587090  19.4010643  85.9550760  94.7142252
  20.8572681  86.2992224  94.4842055  14.9933229  81.4134338  95.0493697
  14.6883365  81.7280487  95.9003841  15.9463672  81.4915758  95.0921030
  13.4379661  87.5724561  96.6986651  12.9101023  86.8377321  96.3859889
  12.9367164  88.3499237  96.4526620  18.4172507  85.7673582 101.8153698
  17.7596182  86.4572843 101.9033826  19.2212907  86.1570014 102.1587684
   8.1698389  78.2344227  99.0593263   8.7442141  78.0119409  98.3266456
   8.7569371  78.3032922  99.8121864  17.2277966  84.1217954  99.8657639
  17.7409848  84.7547946 100.3679349  17.8779190  83.5219150  99.5000999
   8.4967976  80.2648688  93.0789148   7.6605288  80.6023375  93.3998423
   8.3572746  80.1297668  92.1416285  10.4721057  75.1085476  97.7868332
   9.8185469  74.7934494  97.1624947  10.4301531  74.4861217  98.5128155
  11.5832262  85.3904771  89.7021624  10.6759323  85.1594025  89.9012773
  12.0803294  84.5942391  89.8895606  14.4900340  94.1002279  92.6218311
  13.8162039  94.4033975  93.2303268  14.8766162  94.9031359  92.2723768
  13.7058797  81.5967410 102.1115980  12.7881358  81.8182357 101.9537668
  14.1218941  81.6713720 101.2527687  14.4893845  82.9958826  97.2418660
  15.2365664  83.5080223  96.9325782  14.7585434  82.6742878  98.1023054
  12.7620495  85.4917366  94.2245614  11.8531714  85.2076399  94.3218084
  12.7915579  85.9116445  93.3648921  17.9939762  89.1023956  97.9936782
  17.5402089  88.2614866  98.0501973  17.3633729  89.7385354  98.3311562
  16.9372682  80.0315942  99.2237449  16.1995439  79.5193328  99.5547692
  17.1899455  79.5916323  98.4120726  16.4372702  90.9400452  98.9286600
  16.7295676  91.5005510  98.2098966  16.9471322  91.2329013  99.6839759
  17.0384309  72.8092194  99.8179219  17.3443186  71.9489557  99.5305134
  17.7636914  73.4009814  99.6178213   3.3308665  83.2122880  98.2060817
   3.1333065  82.6192241  97.4811883   2.7755329  82.9075091  98.9236755
  11.3105389  83.1045987 100.3255410  11.3653999  82.1519823 100.2497886
  10.4996591  83.2605426 100.8096708  12.4596583  87.0326110  91.5633693
  12.0216013  86.3161969  91.1039330  13.2007024  87.2602225  91.0018784
   9.2497749  81.7223047  98.0845789   8.4365614  82.0217217  98.4910981
   9.7456743  81.3278735  98.8020271  11.4006327  91.7180804 100.0180053
  11.3582506  91.9441650  99.0888585  12.3169026  91.4844178 100.1665855
  14.8471961  82.1864871 106.9160683  15.2021348  82.4136344 107.7755148
  15.4944092  82.5183248 106.2937938  20.5769698  85.3083307  97.6210012
  20.4387596  85.4984903  96.6931201  20.2205916  86.0702690  98.0778063
   8.7411824  79.2941402 103.7007024   9.3811203  79.1530161 103.0029987
   7.9089354  79.0075916 103.3245626  20.6039077  87.3759834 102.6321283
  21.0375584  87.2835123 103.4804337  21.3170658  87.3517334 101.9941299
   9.5172128  88.5943833  99.8142016  10.3112726  88.0994153  99.6124591
   8.8063820  88.0661696  99.4509722  14.3366972  90.9761928 104.1654384
  14.3903994  91.5452864 104.9332100  13.4681753  91.1463813 103.8008421
   5.8254891  82.7386914  95.8901769   4.8952479  82.6771370  96.1071731
   5.9212363  82.2162867  95.0938410   5.7440440  79.2641727  98.4780010
   6.0047257  80.1787060  98.3689171   6.5657612  78.7966170  98.6276623
  21.4654627  87.4183535 105.1654169  21.6590517  88.3229345 105.4113443
  21.3655245  86.9590954 105.9992754  13.1190937  77.3041425 107.6644496
  12.4718852  78.0031375 107.5708972  13.8891953  77.7377569 108.0320744
  13.2955072  85.1422190 105.7241316  14.2247132  85.2933350 105.5510283
  12.8746102  85.2306211 104.8689962  12.0943404  89.1672855 103.4939853
  11.9554489  88.7991639 104.3665791  11.3058000  89.6820494 103.3223811
  12.6891556  94.2681951  94.8365390  12.8643311  93.7969994  95.6511012
  12.0024344  94.8947717  95.0646650  13.6448619  88.5454457 100.8828691
  13.3098451  88.5055227 101.7786341  13.1452564  87.8799173 100.4099101
  16.5807810  85.8910492  91.1565751  15.9636981  85.1657320  91.0598803
  16.1124299  86.6519852  90.8132825  18.2361942  90.6009400 108.8171531
  18.1774488  89.9168620 108.1502114  18.6381460  91.3428390 108.3652157
   8.3706356  80.1095916  90.2787055   7.4935823  79.9884717  89.9149302
   8.8464109  79.3181994  90.0265944  18.2379349  88.5648984 107.0485511
  17.3506128  88.2274906 107.1711910  18.8077900  87.8332015 107.2854276
  11.5570282  92.4622206  97.5249575  10.7737804  93.0043886  97.6187800
  12.2563027  92.9796186  97.9243817  14.8666932  78.2716836 100.1683781
  15.3635632  77.5186798  99.8484851  14.0953914  78.3081152  99.6026990
  22.7196690  83.9757201 101.8102072  22.7086566  84.8581917 101.4396005
  21.8514069  83.6228752 101.6156609  15.9496713  87.0288523  97.7422204
  15.0152992  87.1489985  97.5726909  16.1273382  86.1260990  97.4782214
  11.4501901  80.4134219  99.8955465  11.0799689  79.8605259 100.5836371
  11.9460994  79.8092352  99.3430465  19.3369264  82.8705842  98.2772238
  19.8029717  83.7033834  98.2032541  19.7876765  82.4050824  98.9817497
  17.4045496  89.2149664  95.2758390  17.6805339  89.1006258  96.1852264
  16.5349994  88.8167148  95.2370563  17.3085927  75.2386429 102.3163140
  16.3949007  75.4690656 102.4845347  17.7379029  75.3224873 103.1677172
  17.0792386  83.4276321 104.8163034  16.4263836  83.6752229 104.1615486
  17.4572766  82.6140459 104.4825511  14.0399560  93.4636014  98.9191204
  14.2221954  92.6457670  99.3818956  14.8632546  93.6803707  98.4816094
  14.3741725  92.3904199  96.1806252  14.9029492  91.8796654  95.5676415
  14.6369945  92.0746730  97.0451786   6.8467235  77.8238209 106.1408571
   6.9108561  78.6853040 105.7285969   6.7834355  77.2112211 105.4080930
   3.0985050  81.7037771  95.7199961   3.3938491  80.7948450  95.6667014
   2.1973086  81.6825511  95.3980963  15.0071129  93.4245035 102.5250369
  14.8822268  92.6234775 102.0161314  15.6650220  93.9191229 102.0364339
   6.6279297  79.7793768 101.7027509   5.9065883  80.3929735 101.5634982
   7.4172553  80.3151533 101.6244155  17.0706037  91.2254055 104.1529919
  16.1236373  91.1059406 104.0808246  17.4188810  90.3376553 104.2356180
   9.4305611  77.1148194 107.9768161   9.9540012  77.3610491 108.7394470
   9.2117944  77.9468229 107.5571298   4.8272892  79.3851869  95.8439286
   4.4985598  78.5049248  95.6614392   5.1812262  79.3299537  96.7315675
  14.0752471  91.0206772 100.3534271  13.9277433  90.0923479 100.5341841
  14.9005964  91.0426862  99.8691346   7.9414715  79.6724839  96.2114763
   8.2810787  80.2010760  95.4893372   8.3886835  80.0105245  96.9873330
  17.6786592  91.8435330 101.4399144  18.6033140  91.6378192 101.3023595
  17.5101896  91.5951731 102.3488486  10.6358156  78.0561889 105.6617831
  10.2954976  77.2569702 106.0638511   9.9297162  78.3563600 105.0894665
  11.2874628  75.1411202 104.1145154  12.1100697  74.6671680 103.9924045
  11.5312691  75.9201685 104.6143841   9.9282862  78.1699460  94.4108056
  10.6491225  78.5480713  93.9071773   9.3048166  78.8888337  94.5143034
  14.0713985  78.8744609  95.3466388  14.2877599  79.7569247  95.0455217
  13.5908052  78.4830823  94.6172030   8.8113206  81.8330322 101.9237133
   8.6657787  82.1470625 102.8161415   8.3338410  82.4515223 101.3708032
  10.6709589  78.8232870 101.9718023  10.6571158  77.9273964 101.6350321
  11.3882017  78.8303534 102.6056309  12.5235720  79.2570211 104.0171150
  12.2653498  80.1787281 104.0155481  11.9920760  78.8600645 104.7071614
  17.4681909  92.3620998  96.7961235  17.6418786  91.7967420  96.0435088
  17.9610800  93.1621893  96.6140725  10.0746485  77.7047251  97.2405593
  10.1962396  76.7763897  97.4396480   9.7848527  77.7185937  96.3283908
  12.9437675  75.3902161 100.3772313  12.9659372  75.4541494  99.4224292
  13.3605734  74.5506670 100.5712819  23.3221300  85.1257421  98.4151535
  23.7652446  84.3764746  98.0170658  22.4447810  85.1167557  98.0325267
  18.4557081  91.6787762  93.8958134  19.1507986  92.2994455  94.1145448
  18.7980231  90.8283113  94.1710512  20.3548504  89.1287468  95.4245465
  20.8799828  89.4674740  94.6994785  20.2670857  88.1934483  95.2408599
  12.0389165  95.1959451  99.7840718  11.5994155  94.7035830 100.4773574
  12.7897282  94.6532419  99.5432793  20.1640285  86.6112838 108.0429391
  20.2138290  86.4462845 108.9844914  20.0554209  85.7440097 107.6527272
   9.0476544  89.2901383  95.3321480   9.1964664  89.9736848  94.6788153
   9.8542988  89.2706473  95.8470936  17.4544048  82.5943766 109.3588698
  18.3553911  82.4550231 109.0672696  17.5292022  82.7598221 110.2986875
  11.7886853  79.9710620 108.2041884  10.9190162  80.2644186 107.9324473
  12.0246333  80.5551065 108.9249148  21.6658482  89.0309779 108.2871413
  21.3743290  89.3939760 109.1234874  21.0530613  88.3176787 108.1084745
  22.8654165  86.5962659 100.8073983  23.7001056  87.0352463 100.9711543
  23.0013293  86.1201312  99.9882229  19.9145670  84.1542394 106.7551471
  20.3899792  84.3470040 105.9470322  18.9911236  84.2101580 106.5094854
   6.8029177  85.3166561  96.3382549   6.5575219  84.4128891  96.5362759
   6.9725092  85.3183711  95.3962027  14.4925887  76.1890237 105.7207304
  15.0107831  76.9251264 105.3953793  14.1381020  76.4954231 106.5554064
   6.0724825  81.0494919  93.8368710   5.3794070  81.1239274  93.1808746
   5.8276576  80.2855262  94.3590227  14.7438481  72.6090520 101.2408201
  15.0240235  71.9413709 101.8668628  15.5289088  72.8019615 100.7282865
  12.5471950  91.7849514  92.8033227  11.9745917  92.4039701  92.3503699
  13.1204743  92.3348875  93.3373149  18.6147339  81.0308154 104.9879776
  19.5664762  81.1306252 105.0092000  18.4450790  80.2386422 105.4977861
  16.6361719  78.1163737 105.1739177  16.0411651  78.3968750 104.4785666
  16.3511416  78.6057638 105.9455918  15.7669209  92.0686664  93.9341810
  16.6999883  92.0032226  94.1374685  15.6792422  92.9042931  93.4756342
  18.3957226  91.3852534  90.8945757  18.3170858  91.0512398  91.7881515
  19.2166893  91.8774302  90.8937230  21.0935417  84.2514274 104.1022076
  21.0611737  83.3130274 104.2881760  21.7036041  84.3298310 103.3687901
  12.9318748  83.1210327  90.1449280  13.8777853  82.9916535  90.2137698
  12.5532993  82.3824988  90.6218708  21.2429906  81.0425317 104.1480359
  20.7268954  80.2583774 103.9610288  22.1269854  80.7144034 104.3126878
  18.9040633  74.7866333 100.1076172  18.7065454  74.4781421 100.9919504
  19.5140338  75.5127971 100.2374102  26.9111967  85.3130280 103.2428113
  27.6415356  85.0515569 103.8035816  26.3018913  84.5759002 103.2830181
  24.9927264  83.4538143 103.8402564  24.2660428  83.3194108 103.2319055
  24.5774551  83.7614972 104.6459282  11.1161665  81.0460303  90.0804165
  10.2093121  80.7493416  90.1566879  11.3937646  80.7490121  89.2138451
  12.7323731  75.5897193  96.2348406  11.9224459  75.2444278  96.6103652
  13.4208148  75.2804736  96.8236018  14.6614279  74.6675239  97.8572703
  15.2145318  75.0870693  98.5162726  14.8984366  73.7410988  97.8995659
   9.8860450  77.9047238  90.2216144  10.7479614  78.2302136  90.4811962
  10.0710794  77.1178734  89.7089210  18.0393086  76.7775765  97.3651367
  17.4591755  77.4360569  96.9829420  17.7729019  75.9553109  96.9538785
  16.4896653  76.1780822  99.5672688  16.9896431  76.2897357  98.7587006
  17.1332261  75.8741875 100.2073496  16.8217964  78.9375855  96.4207716
  15.9343819  79.2225506  96.2027910  17.2371953  78.7769618  95.5734992
  20.1732500  78.9622376 100.1362055  20.9492891  79.4518828 100.4086672
  19.4480635  79.3880430 100.5933924  22.6105059  79.6749995 101.1935995
  23.2049550  79.4345731 100.4829304  22.6831643  78.9557126 101.8209532
  15.9661178  88.7020530  90.5155735  16.6697028  88.9070532  91.1313391
  15.2423827  89.2697292  90.7804819  16.7958988  84.4530391  96.6358006
  16.7394189  84.9098942  95.7965638  17.3487331  83.6921076  96.4580848
  20.6063794  80.2420123  97.4608125  20.3500728  79.8416758  98.2916333
  19.9816662  80.9563917  97.3358264  24.9176132  82.9816196  99.9679417
  24.3575690  83.0509385 100.7410979  24.3119635  82.8057181  99.2478913
  17.8747875  89.1403059  92.5654196  18.7093479  88.7084257  92.3831670
  17.7132218  88.9685073  93.4931090  17.5293767  85.6435172  93.9310535
  17.4742571  85.4779444  92.9898979  16.9039823  86.3511205  94.0872725
  10.8389893  75.1443281  93.5095853  10.8268563  76.0885121  93.6664124
  11.7313315  74.9613427  93.2155314  14.6542012  71.7386058  97.7641790
  13.8874408  71.1844545  97.9098472  15.0652717  71.8107927  98.6255942
  26.5032150  99.6572710 102.6609372  27.1410560  99.5379457 101.9572712
  26.3852993 100.6053554 102.7197324  23.3121857  99.6100138 102.5970897
  22.9740368  99.4941203 101.7091432  24.1811625  99.2091303 102.5771903
  19.1708672 101.4635614  98.5867788  18.6073537 101.3725551  97.8184076
  19.0561067 100.6435519  99.0670280  24.7508231 105.1306582  93.8982253
  24.0996211 105.7160663  93.5116267  25.5452594 105.6612777  93.9577290
  18.6763858 102.2195719  94.2969387  19.4494734 101.6724706  94.1582263
  19.0289257 103.0839969  94.5083849  21.4405108 100.9248950 104.0937646
  22.0368680 100.7004973 103.3794609  21.4980079 100.1833696 104.6963094
  21.0130136  98.3788385  91.9287837  21.2655657  97.8569907  91.1671300
  20.0754695  98.2154531  92.0314521  26.0573419  97.3824164  99.7362580
  26.8436508  96.9643587  99.3852997  26.3212123  98.2870256  99.9044229
  26.2283496 102.8197014  94.4351237  25.5929329 102.8931641  95.1472142
  25.8980903 103.4090613  93.7570316  31.4581846  97.3199397 100.6395559
  32.1907018  96.7498614 100.8733388  30.7021202  96.9320997 101.0802064
  20.7326425 100.2816491  94.1312212  20.6162683  99.6061395  94.7993296
  20.8428685  99.7948865  93.3144365  23.0757966  99.7426639  97.8358901
  22.7116173  99.2157259  98.5471823  23.9325082  99.3525108  97.6625387
  28.9807266  91.0320971 105.0990167  28.6490591  91.9016382 104.8751382
  28.3852880  90.7157255 105.7784198  22.7163453  94.7716538  92.8320250
  22.8837855  95.6396775  93.1990721  22.5260622  94.9343820  91.9081539
  25.4738786 103.2333517 104.4986080  25.1739509 104.1358556 104.3901887
  25.1289845 102.9665700 105.3507233  18.9251267  99.6847314 100.5322785
  18.0001764  99.5523528 100.7400476  19.1735680 100.4641533 101.0292727
  28.8735930  95.7516057 102.1783518  27.9652807  95.6831466 101.8842278
  28.8223525  96.2288002 103.0065343  22.6952674  97.2274196  93.8166917
  22.5752299  97.6731246  94.6552397  22.0005262  97.5759513  93.2580455
  20.4559566 109.9977837  97.4657048  20.3783595 110.9485663  97.5445528
  19.8521209 109.6523710  98.1231974  30.7397576  93.9532496 103.9561391
  30.0971956  94.2465029 103.3101186  30.2352505  93.8385416 104.7614588
  28.3937740  97.6995669  94.6447251  29.3055596  97.9323056  94.4694948
  27.8847387  98.2832713  94.0822329  26.6778507 102.1220297 108.2808543
  27.0861863 101.6802707 107.5363176  25.9555769 101.5472924 108.5342736
  23.0309577  97.0592903 105.6542100  23.8770773  97.4832317 105.7976749
  22.9708215  96.4026528 106.3480663  27.0007322 102.6821487 102.0360832
  26.3716184 102.8467201 101.3336900  26.6132984 103.0963097 102.8071796
  30.8796554 103.6175925  99.3905196  30.1947592 103.9974827  98.8402229
  30.9640403 104.2271252 100.1237144  26.1809023  94.7197272 107.3123274
  25.9369955  95.4739332 106.7757550  26.4568953  95.0982619 108.1470521
  28.1347485 101.2635884 105.9900539  28.3464381 101.9067644 105.3134921
  28.0877234 100.4298201 105.5222470  25.7373714  93.8753705 102.8937112
  24.8758193  94.1734958 103.1853849  25.7636149  94.0924104 101.9618144
  22.5535284 102.4195895  99.3010917  23.0173629 102.6983598  98.5115540
  22.2892082 101.5179340  99.1184008  19.4459365 101.9667377 102.2390681
  20.0160722 102.3954645 101.6008165  20.0367477 101.6849962 102.9374866
  21.4904170  98.5419048  96.1100482  22.1928213  98.9940091  96.5774409
  21.1584798  97.9002867  96.7380376  15.2329504  96.8002600 101.4117616
  14.4428558  97.0560129 100.9357727  15.7240751  97.6150938 101.5169656
  29.2493313 104.1407840 104.1622897  30.0710757 103.7388027 103.8805578
  29.2455716 104.0376074 105.1139013  17.1844249  97.1647180  98.3701093
  16.3875413  97.2765874  98.8884588  16.9569841  97.5033832  97.5041983
  37.3399306 100.4846588 100.5107868  36.5863015  99.9153986 100.3551873
  37.4746848 100.4509253 101.4578503  22.7297935 105.3559990  96.1862588
  22.5943609 106.2011526  96.6147435  23.2707747 105.5579268  95.4228521
  16.1827332 102.8735428  96.7590513  16.6951852 103.6678679  96.9096077
  16.8350045 102.1761719  96.6924114  17.9922217 105.9901185  98.8413266
  18.1688845 106.9119149  98.6534250  18.7879050 105.6759604  99.2707646
  22.1333235  92.8509449 110.4397199  22.8742949  93.4516602 110.3601662
  22.3651158  92.1087087 109.8815242  26.0790398  88.8790552 104.7161481
  25.7354667  89.7692194 104.6400592  26.4469361  88.6892210 103.8531066
  14.1476249 101.2024083  97.5350083  14.9851471 101.6121091  97.3183791
  14.3254516 100.2623525  97.5050277  26.0440681  98.8699163  93.2233916
  25.5287304  99.6403768  93.4622304  25.7717989  98.1964300  93.8466978
  23.6287792  93.7148864  98.2819155  22.7729388  93.3255715  98.1024793
  24.0414744  93.7940825  97.4218940  25.1586938  91.2495207 102.6810714
  24.6551734  91.2125343 101.8678520  25.4517545  92.1587950 102.7407371
  21.4029824  91.3333937 101.6876896  22.2682821  91.1376746 101.3282786
  21.4707333  91.1044289 102.6146253  31.0174955 101.6231518  95.1587090
  30.2404398 101.2842678  94.7142252  31.6966436 101.6284141  94.4842055
  25.8326984  96.7426256  95.0493697  25.5277120  97.0572405  95.9003841
  26.7857426  96.8207675  95.0921030  24.2773416 102.9016479  96.6986651
  23.7494777 102.1669238  96.3859889  23.7760919 103.6791155  96.4526620
  29.2566262 101.0965499 101.8153698  28.5989936 101.7864761 101.9033826
  30.0606661 101.4861931 102.1587684  19.0092143  93.5636145  99.0593263
  19.5835895  93.3411327  98.3266456  19.5963126  93.6324840  99.8121864
  28.0671721  99.4509872  99.8657639  28.5803602 100.0839864 100.3679349
  28.7172945  98.8511068  99.5000999  19.3361731  95.5940606  93.0789148
  18.4999043  95.9315293  93.3998423  19.1966500  95.4589586  92.1416285
  21.3114811  90.4377394  97.7868332  20.6579223  90.1226411  97.1624947
  21.2695285  89.8153134  98.5128155  22.4226016 100.7196689  89.7021624
  21.5153078 100.4885943  89.9012773  22.9197048  99.9234308  89.8895606
  25.3294095 109.4294196  92.6218311  24.6555794 109.7325893  93.2303268
  25.7159917 110.2323277  92.2723768  24.5452552  96.9259328 102.1115980
  23.6275113  97.1474275 101.9537668  24.9612695  97.0005638 101.2527687
  25.3287599  98.3250743  97.2418660  26.0759418  98.8372140  96.9325782
  25.5979189  98.0034796  98.1023054  23.6014249 100.8209284  94.2245614
  22.6925469 100.5368317  94.3218084  23.6309333 101.2408363  93.3648921
  28.8333517 104.4315873  97.9936782  28.3795844 103.5906783  98.0501973
  28.2027484 105.0677272  98.3311562  27.7766436  95.3607859  99.2237449
  27.0389193  94.8485246  99.5547692  28.0293210  94.9208241  98.4120726
  27.2766456 106.2692370  98.9286600  27.5689430 106.8297427  98.2098966
  27.7865077 106.5620931  99.6839759  27.8778064  88.1384111  99.8179219
  28.1836941  87.2781475  99.5305134  28.6030669  88.7301732  99.6178213
  14.1702420  98.5414798  98.2060817  13.9726820  97.9484159  97.4811883
  13.6149084  98.2367008  98.9236755  22.1499143  98.4337905 100.3255410
  22.2047753  97.4811741 100.2497886  21.3390346  98.5897344 100.8096708
  23.2990337 102.3618028  91.5633693  22.8609767 101.6453887  91.1039330
  24.0400778 102.5894142  91.0018784  20.0891503  97.0514964  98.0845789
  19.2759369  97.3509135  98.4910981  20.5850498  96.6570653  98.8020271
  22.2400081 107.0472721 100.0180053  22.1976260 107.2733568  99.0888585
  23.1562780 106.8136096 100.1665855  25.6865715  97.5156789 106.9160683
  26.0415103  97.7428262 107.7755148  26.3337846  97.8475166 106.2937938
  31.4163452 100.6375225  97.6210012  31.2781351 100.8276821  96.6931201
  31.0599671 101.3994607  98.0778063  19.5805578  94.6233320 103.7007024
  20.2204957  94.4822079 103.0029987  18.7483109  94.3367833 103.3245626
  31.4432832 102.7051752 102.6321283  31.8769338 102.6127041 103.4804337
  32.1564412 102.6809252 101.9941299  20.3565882 103.9235750  99.8142016
  21.1506481 103.4286070  99.6124591  19.6457574 103.3953613  99.4509722
  25.1760727 106.3053846 104.1654384  25.2297749 106.8744782 104.9332100
  24.3075508 106.4755731 103.8008421  16.6648646  98.0678832  95.8901769
  15.7346234  98.0063287  96.1071731  16.7606118  97.5454785  95.0938410
  16.5834195  94.5933645  98.4780010  16.8441012  95.5078978  98.3689171
  17.4051367  94.1258087  98.6276623  32.3048381 102.7475452 105.1654169
  32.4984271 103.6521263 105.4113443  32.2048999 102.2882871 105.9992754
  23.9584692  92.6333343 107.6644496  23.3112607  93.3323293 107.5708972
  24.7285707  93.0669487 108.0320744  24.1348826 100.4714108 105.7241316
  25.0640886 100.6225267 105.5510283  23.7139856 100.5598129 104.8689962
  22.9337158 104.4964772 103.4939853  22.7948244 104.1283557 104.3665791
  22.1451754 105.0112412 103.3223811  23.5285310 109.5973869  94.8365390
  23.7037066 109.1261912  95.6511012  22.8418098 110.2239635  95.0646650
  24.4842373 103.8746375 100.8828691  24.1492206 103.8347145 101.7786341
  23.9846319 103.2091091 100.4099101  27.4201565 101.2202409  91.1565751
  26.8030736 100.4949237  91.0598803  26.9518053 101.9811770  90.8132825
  29.0755697 105.9301318 108.8171531  29.0168243 105.2460538 108.1502114
  29.4775215 106.6720308 108.3652157  19.2100111  95.4387834  90.2787055
  18.3329577  95.3176634  89.9149302  19.6857864  94.6473912  90.0265944
  29.0773104 103.8940902 107.0485511  28.1899883 103.5566823 107.1711910
  29.6471655 103.1623933 107.2854276  22.3964037 107.7914124  97.5249575
  21.6131559 108.3335804  97.6187800  23.0956782 108.3088104  97.9243817
  25.7060687  93.6008753 100.1683781  26.2029386  92.8478716  99.8484851
  24.9347668  93.6373070  99.6026990  33.5590444  99.3049119 101.8102072
  33.5480321 100.1873834 101.4396005  32.6907824  98.9520670 101.6156609
  26.7890468 102.3580441  97.7422204  25.8546746 102.4781903  97.5726909
  26.9667136 101.4552907  97.4782214  22.2895656  95.7426136  99.8955465
  21.9193443  95.1897177 100.5836371  22.7854748  95.1384270  99.3430465
  30.1763019  98.1997760  98.2772238  30.6423471  99.0325751  98.2032541
  30.6270519  97.7342741  98.9817497  28.2439250 104.5441581  95.2758390
  28.5199094 104.4298176  96.1852264  27.3743749 104.1459066  95.2370563
  28.1479682  90.5678347 102.3163140  27.2342762  90.7982574 102.4845347
  28.5772783  90.6516791 103.1677172  27.9186140  98.7568239 104.8163034
  27.2657590  99.0044146 104.1615486  28.2966520  97.9432377 104.4825511
  24.8793314 108.7927932  98.9191204  25.0615709 107.9749588  99.3818956
  25.7026300 109.0095624  98.4816094  25.2135480 107.7196117  96.1806252
  25.7423246 107.2088572  95.5676415  25.4763699 107.4038647  97.0451786
  17.6860989  93.1530127 106.1408571  17.7502316  94.0144958 105.7285969
  17.6228110  92.5404129 105.4080930  13.9378805  97.0329689  95.7199961
  14.2332246  96.1240367  95.6667014  13.0366840  97.0117428  95.3980963
  25.8464883 108.7536953 102.5250369  25.7216023 107.9526693 102.0161314
  26.5043975 109.2483146 102.0364339  17.4673052  95.1085685 101.7027509
  16.7459637  95.7221653 101.5634982  18.2566307  95.6443450 101.6244155
  27.9099792 106.5545973 104.1529919  26.9630127 106.4351324 104.0808246
  28.2582565 105.6668471 104.2356180  20.2699365  92.4440112 107.9768161
  20.7933767  92.6902408 108.7394470  20.0511698  93.2760147 107.5571298
  15.6666646  94.7143786  95.8439286  15.3379352  93.8341165  95.6614392
  16.0206017  94.6591455  96.7315675  24.9146225 106.3498689 100.3534271
  24.7671188 105.4215397 100.5341841  25.7399719 106.3718780  99.8691346
  18.7808469  95.0016756  96.2114763  19.1204542  95.5302678  95.4893372
  19.2280590  95.3397162  96.9873330  28.5180347 107.1727248 101.4399144
  29.4426894 106.9670109 101.3023595  28.3495650 106.9243649 102.3488486
  21.4751910  93.3853807 105.6617831  21.1348731  92.5861620 106.0638511
  20.7690916  93.6855518 105.0894665  22.1268382  90.4703119 104.1145154
  22.9494451  89.9963598 103.9924045  22.3706446  91.2493603 104.6143841
  20.7676617  93.4991378  94.4108056  21.4884979  93.8772631  93.9071773
  20.1441921  94.2180255  94.5143034  24.9107739  94.2036527  95.3466388
  25.1271354  95.0861165  95.0455217  24.4301807  93.8122740  94.6172030
  19.6506961  97.1622240 101.9237133  19.5051541  97.4762543 102.8161415
  19.1732164  97.7807140 101.3708032  21.5103344  94.1524788 101.9718023
  21.4964912  93.2565881 101.6350321  22.2275772  94.1595452 102.6056309
  23.3629474  94.5862128 104.0171150  23.1047252  95.5079199 104.0155481
  22.8314515  94.1892563 104.7071614  28.3075663 107.6912915  96.7961235
  28.4812541 107.1259338  96.0435088  28.8004554 108.4913810  96.6140725
  20.9140240  93.0339168  97.2405593  21.0356151  92.1055815  97.4396480
  20.6242282  93.0477854  96.3283908  23.7831430  90.7194079 100.3772313
  23.8053127  90.7833412  99.4224292  24.1999489  89.8798587 100.5712819
  34.1615054 100.4549338  98.4151535  34.6046200  99.7056664  98.0170658
  33.2841565 100.4459475  98.0325267  29.2950836 107.0079680  93.8958134
  29.9901740 107.6286372  94.1145448  29.6373986 106.1575031  94.1710512
  31.1942259 104.4579385  95.4245465  31.7193583 104.7966658  94.6994785
  31.1064611 103.5226401  95.2408599  22.8782919 110.5251369  99.7840718
  22.4387910 110.0327747 100.4773574  23.6291036 109.9824336  99.5432793
  31.0034040 101.9404755 108.0429391  31.0532045 101.7754763 108.9844914
  30.8947963 101.0732014 107.6527272  19.8870299 104.6193301  95.3321480
  20.0358419 105.3028765  94.6788153  20.6936742 104.5998391  95.8470936
  28.2937802  97.9235683 109.3588698  29.1947665  97.7842148 109.0672696
  28.3685777  98.0890138 110.2986875  22.6280608  95.3002538 108.2041884
  21.7583917  95.5936104 107.9324473  22.8640088  95.8842983 108.9249148
  32.5052237 104.3601697 108.2871413  32.2137045 104.7231677 109.1234874
  31.8924368 103.6468705 108.1084745  33.7047919 101.9254577 100.8073983
  34.5394810 102.3644381 100.9711543  33.8407048 101.4493230  99.9882229
  30.7539425  99.4834311 106.7551471  31.2293547  99.6761958 105.9470322
  29.8304990  99.5393497 106.5094854  17.6422932 100.6458479  96.3382549
  17.3968973  99.7420809  96.5362759  17.8118846 100.6475629  95.3962027
  25.3319641  91.5182155 105.7207304  25.8501585  92.2543182 105.3953793
  24.9774774  91.8246148 106.5554064  16.9118579  96.3786836  93.8368710
  16.2187824  96.4531191  93.1808746  16.6670331  95.6147180  94.3590227
  25.5832236  87.9382438 101.2408201  25.8633989  87.2705627 101.8668628
  26.3682843  88.1311533 100.7282865  23.3865704 107.1141431  92.8033227
  22.8139671 107.7331619  92.3503699  23.9598498 107.6640793  93.3373149
  29.4541094  96.3600072 104.9879776  30.4058517  96.4598169 105.0092000
  29.2844544  95.5678340 105.4977861  27.4755473  93.4455655 105.1739177
  26.8805406  93.7260667 104.4785666  27.1905170  93.9349556 105.9455918
  26.6062964 107.3978582  93.9341810  27.5393637 107.3324143  94.1374685
  26.5186177 108.2334848  93.4756342  29.2350981 106.7144452  90.8945757
  29.1564612 106.3804316  91.7881515  30.0560647 107.2066220  90.8937230
  31.9329172  99.5806191 104.1022076  31.9005492  98.6422192 104.2881760
  32.5429795  99.6590228 103.3687901  23.7712503  98.4502244  90.1449280
  24.7171607  98.3208452  90.2137698  23.3926748  97.7116906  90.6218708
  32.0823660  96.3717235 104.1480359  31.5662709  95.5875691 103.9610288
  32.9663609  96.0435951 104.3126878  29.7434387  90.1158250 100.1076172
  29.5459208  89.8073338 100.9919504  30.3534093  90.8419889 100.2374102
  37.7505722 100.6422198 103.2428113  38.4809110 100.3807486 103.8035816
  37.1412667  99.9050920 103.2830181  35.8321019  98.7830061 103.8402564
  35.1054182  98.6486026 103.2319055  35.4168306  99.0906889 104.6459282
  21.9555420  96.3752221  90.0804165  21.0486875  96.0785333  90.1566879
  22.2331401  96.0782039  89.2138451  23.5717485  90.9189110  96.2348406
  22.7618214  90.5736195  96.6103652  24.2601902  90.6096654  96.8236018
  25.5008034  89.9967157  97.8572703  26.0539072  90.4162611  98.5162726
  25.7378120  89.0702905  97.8995659  20.7254204  93.2339156  90.2216144
  21.5873368  93.5594054  90.4811962  20.9104549  92.4470652  89.7089210
  28.8786841  92.1067682  97.3651367  28.2985510  92.7652486  96.9829420
  28.6122774  91.2845027  96.9538785  27.3290407  91.5072740  99.5672688
  27.8290186  91.6189275  98.7587006  27.9726015  91.2033793 100.2073496
  27.6611719  94.2667773  96.4207716  26.7737574  94.5517423  96.2027910
  28.0765708  94.1061536  95.5734992  31.0126255  94.2914294 100.1362055
  31.7886645  94.7810746 100.4086672  30.2874389  94.7172348 100.5933924
  33.4498814  95.0041913 101.1935995  34.0443304  94.7637649 100.4829304
  33.5225397  94.2849043 101.8209532  26.8054932 104.0312447  90.5155735
  27.5090782 104.2362450  91.1313391  26.0817581 104.5989209  90.7804819
  27.6352743  99.7822309  96.6358006  27.5787944 100.2390860  95.7965638
  28.1881085  99.0212993  96.4580848  31.4457549  95.5712040  97.4608125
  31.1894483  95.1708676  98.2916333  30.8210417  96.2855834  97.3358264
  35.7569886  98.3108114  99.9679417  35.1969444  98.3801303 100.7410979
  35.1513390  98.1349098  99.2478913  28.7141630 104.4694977  92.5654196
  29.5487234 104.0376175  92.3831670  28.5525973 104.2976990  93.4931090
  28.3687522 100.9727090  93.9310535  28.3136326 100.8071361  92.9898979
  27.7433577 101.6803123  94.0872725  21.6783647  90.4735199  93.5095853
  21.6662317  91.4177039  93.6664124  22.5707069  90.2905344  93.2155314
  25.4935767  87.0677975  97.7641790  24.7268163  86.5136462  97.9098472
  25.9046472  87.1399844  98.6255942  37.3425905 114.9864628 102.6609372
  37.9804315 114.8671375 101.9572712  37.2246748 115.9345472 102.7197324
  34.1515611 114.9392056 102.5970897  33.8134123 114.8233120 101.7091432
  35.0205379 114.5383221 102.5771903  31.8523890 113.7080303  91.9287837
  32.1049411 113.1861824  91.1671300  30.9148450 113.5446449  92.0314521
  36.8967173 112.7116081  99.7362580  37.6830263 112.2935505  99.3852997
  37.1605878 113.6162174  99.9044229  42.2975600 112.6491315 100.6395559
  43.0300772 112.0790531 100.8733388  41.5414956 112.2612915 101.0802064
  33.9151720 115.0718556  97.8358901  33.5509927 114.5449177  98.5471823
  34.7718836 114.6817025  97.6625387  39.8201021 106.3612889 105.0990167
  39.4884346 107.2308300 104.8751382  39.2246634 106.0449173 105.7784198
  33.5557207 110.1008456  92.8320250  33.7231609 110.9688692  93.1990721
  33.3654376 110.2635738  91.9081539  39.7129684 111.0807975 102.1783518
  38.8046561 111.0123383 101.8842278  39.6617280 111.5579920 103.0065343
  33.5346428 112.5566113  93.8166917  33.4146053 113.0023164  94.6552397
  32.8399016 112.9051431  93.2580455  41.5791330 109.2824413 103.9561391
  40.9365711 109.5756947 103.3101186  41.0746259 109.1677334 104.7614588
  39.2331494 113.0287587  94.6447251  40.1449350 113.2614973  94.4694948
  38.7241141 113.6124631  94.0822329  37.5172262 117.4512214 108.2808543
  37.9255618 117.0094625 107.5363176  36.7949523 116.8764842 108.5342736
  33.8703332 112.3884821 105.6542100  34.7164527 112.8124235 105.7976749
  33.8101970 111.7318445 106.3480663  37.0202777 110.0489190 107.3123274
  36.7763709 110.8031250 106.7757550  37.2962708 110.4274537 108.1470521
  38.9741240 116.5927802 105.9900539  39.1858135 117.2359562 105.3134921
  38.9270988 115.7590118 105.5222470  36.5767469 109.2045623 102.8937112
  35.7151948 109.5026876 103.1853849  36.6029904 109.4216021 101.9618144
  32.3297924 113.8710965  96.1100482  33.0321968 114.3232009  96.5774409
  31.9978553 113.2294784  96.7380376  26.0723258 112.1294518 101.4117616
  25.2822312 112.3852047 100.9357727  26.5634506 112.9442856 101.5169656
  28.0238004 112.4939097  98.3701093  27.2269167 112.6057792  98.8884588
  27.7963596 112.8325750  97.5041983  48.1793061 115.8138506 100.5107868
  47.4256769 115.2445904 100.3551873  48.3140602 115.7801170 101.4578503
  32.9726990 108.1801367 110.4397199  33.7136703 108.7808520 110.3601662
  33.2044912 107.4379005 109.8815242  36.9184153 104.2082470 104.7161481
  36.5748422 105.0984112 104.6400592  37.2863115 104.0184128 103.8531066
  36.8834435 114.1991081  93.2233916  36.3681059 114.9695686  93.4622304
  36.6111744 113.5256217  93.8466978  34.4681546 109.0440782  98.2819155
  33.6123143 108.6547632  98.1024793  34.8808498 109.1232743  97.4218940
  35.9980693 106.5787125 102.6810714  35.4945489 106.5417260 101.8678520
  36.2911300 107.4879868 102.7407371  32.2423579 106.6625855 101.6876896
  33.1076576 106.4668664 101.3282786  32.3101088 106.4336207 102.6146253
  41.8568709 116.9523436  95.1587090  41.0798152 116.6134595  94.7142252
  42.5360190 116.9576059  94.4842055  36.6720738 112.0718173  95.0493697
  36.3670874 112.3864322  95.9003841  37.6251181 112.1499593  95.0921030
  40.0960016 116.4257417 101.8153698  39.4383691 117.1156678 101.9033826
  40.9000416 116.8153849 102.1587684  29.8485898 108.8928063  99.0593263
  30.4229650 108.6703244  98.3266456  30.4356880 108.9616757  99.8121864
  38.9065475 114.7801790  99.8657639  39.4197357 115.4131782 100.3679349
  39.5566699 114.1802985  99.5000999  30.1755485 110.9232524  93.0789148
  29.3392797 111.2607210  93.3998423  30.0360255 110.7881504  92.1416285
  32.1508566 105.7669312  97.7868332  31.4972978 105.4518329  97.1624947
  32.1089040 105.1445052  98.5128155  33.2619770 116.0488607  89.7021624
  32.3546832 115.8177860  89.9012773  33.7590802 115.2526226  89.8895606
  35.3846306 112.2551245 102.1115980  34.4668867 112.4766192 101.9537668
  35.8006450 112.3297556 101.2527687  36.1681354 113.6542661  97.2418660
  36.9153173 114.1664058  96.9325782  36.4372943 113.3326714  98.1023054
  34.4408004 116.1501202  94.2245614  33.5319223 115.8660234  94.3218084
  34.4703088 116.5700280  93.3648921  38.6160191 110.6899777  99.2237449
  37.8782948 110.1777163  99.5547692  38.8686964 110.2500159  98.4120726
  38.7171818 103.4676029  99.8179219  39.0230695 102.6073393  99.5305134
  39.4424423 104.0593649  99.6178213  32.9892898 113.7629822 100.3255410
  33.0441508 112.8103659 100.2497886  32.1784100 113.9189261 100.8096708
  30.9285258 112.3806882  98.0845789  30.1153123 112.6801053  98.4910981
  31.4244252 111.9862571  98.8020271  36.5259470 112.8448706 106.9160683
  36.8808857 113.0720180 107.7755148  37.1731601 113.1767083 106.2937938
  42.2557207 115.9667142  97.6210012  42.1175105 116.1568738  96.6931201
  41.8993425 116.7286525  98.0778063  30.4199333 109.9525237 103.7007024
  31.0598712 109.8113997 103.0029987  29.5876863 109.6659751 103.3245626
  42.2826586 118.0343669 102.6321283  42.7163093 117.9418958 103.4804337
  42.9958167 118.0101170 101.9941299  27.5042400 113.3970750  95.8901769
  26.5739988 113.3355205  96.1071731  27.5999872 112.8746702  95.0938410
  27.4227949 109.9225562  98.4780010  27.6834766 110.8370896  98.3689171
  28.2445121 109.4550005  98.6276623  43.1442136 118.0767370 105.1654169
  43.3378026 118.9813180 105.4113443  43.0442754 117.6174789 105.9992754
  34.7978446 107.9625261 107.6644496  34.1506361 108.6615210 107.5708972
  35.5679462 108.3961404 108.0320744  34.9742581 115.8006025 105.7241316
  35.9034641 115.9517185 105.5510283  34.5533611 115.8890046 104.8689962
  38.2595319 116.5494327  91.1565751  37.6424490 115.8241155  91.0598803
  37.7911808 117.3103687  90.8132825  30.0493865 110.7679751  90.2787055
  29.1723332 110.6468552  89.9149302  30.5251618 109.9765830  90.0265944
  36.5454441 108.9300671 100.1683781  37.0423141 108.1770633  99.8484851
  35.7741423 108.9664988  99.6026990  44.3984199 114.6341037 101.8102072
  44.3874075 115.5165752 101.4396005  43.5301578 114.2812587 101.6156609
  33.1289410 111.0718054  99.8955465  32.7587198 110.5189094 100.5836371
  33.6248503 110.4676188  99.3430465  41.0156773 113.5289678  98.2772238
  41.4817226 114.3617669  98.2032541  41.4664274 113.0634659  98.9817497
  38.9873436 105.8970265 102.3163140  38.0736516 106.1274491 102.4845347
  39.4166538 105.9808709 103.1677172  38.7579895 114.0860157 104.8163034
  38.1051345 114.3336064 104.1615486  39.1360275 113.2724295 104.4825511
  28.5254744 108.4822045 106.1408571  28.5896070 109.3436876 105.7285969
  28.4621864 107.8696046 105.4080930  24.7772559 112.3621606  95.7199961
  25.0726000 111.4532285  95.6667014  23.8760595 112.3409346  95.3980963
  28.3066806 110.4377603 101.7027509  27.5853392 111.0513571 101.5634982
  29.0960062 110.9735368 101.6244155  31.1093120 107.7732030 107.9768161
  31.6327521 108.0194326 108.7394470  30.8905453 108.6052064 107.5571298
  26.5060401 110.0435704  95.8439286  26.1773107 109.1633083  95.6614392
  26.8599771 109.9883373  96.7315675  29.6202224 110.3308674  96.2114763
  29.9598296 110.8594595  95.4893372  30.0674344 110.6689080  96.9873330
  32.3145665 108.7145725 105.6617831  31.9742485 107.9153538 106.0638511
  31.6084671 109.0147436 105.0894665  32.9662136 105.7995037 104.1145154
  33.7888206 105.3255515 103.9924045  33.2100200 106.5785521 104.6143841
  31.6070371 108.8283296  94.4108056  32.3278733 109.2064548  93.9071773
  30.9835675 109.5472172  94.5143034  35.7501494 109.5328445  95.3466388
  35.9665108 110.4153082  95.0455217  35.2695561 109.1414658  94.6172030
  30.4900715 112.4914158 101.9237133  30.3445296 112.8054461 102.8161415
  30.0125919 113.1099058 101.3708032  32.3497098 109.4816706 101.9718023
  32.3358667 108.5857799 101.6350321  33.0669526 109.4887369 102.6056309
  34.2023229 109.9154046 104.0171150  33.9441007 110.8371117 104.0155481
  33.6708269 109.5184480 104.7071614  31.7533994 108.3631086  97.2405593
  31.8749905 107.4347732  97.4396480  31.4636036 108.3769772  96.3283908
  34.6225184 106.0485996 100.3772313  34.6446881 106.1125330  99.4224292
  35.0393243 105.2090505 100.5712819  45.0008809 115.7841256  98.4151535
  45.4439955 115.0348581  98.0170658  44.1235319 115.7751392  98.0325267
  41.8427794 117.2696673 108.0429391  41.8925799 117.1046680 108.9844914
  41.7341718 116.4023932 107.6527272  39.1331557 113.2527601 109.3588698
  40.0341419 113.1134066 109.0672696  39.2079531 113.4182056 110.2986875
  33.4674362 110.6294456 108.2041884  32.5977671 110.9228022 107.9324473
  33.7033842 111.2134901 108.9249148  44.5441673 117.2546494 100.8073983
  45.3788565 117.6936298 100.9711543  44.6800802 116.7785147  99.9882229
  41.5933179 114.8126229 106.7551471  42.0687301 115.0053875 105.9470322
  40.6698745 114.8685415 106.5094854  36.1713396 106.8474073 105.7207304
  36.6895340 107.5835100 105.3953793  35.8168529 107.1538066 106.5554064
  27.7512334 111.7078754  93.8368710  27.0581578 111.7823109  93.1808746
  27.5064085 110.9439098  94.3590227  36.4225990 103.2674355 101.2408201
  36.7027744 102.5997544 101.8668628  37.2076597 103.4603451 100.7282865
  40.2934848 111.6891989 104.9879776  41.2452271 111.7890087 105.0092000
  40.1238299 110.8970258 105.4977861  38.3149228 108.7747572 105.1739177
  37.7199160 109.0552585 104.4785666  38.0298925 109.2641473 105.9455918
  42.7722926 114.9098109 104.1022076  42.7399246 113.9714110 104.2881760
  43.3823550 114.9882146 103.3687901  34.6106257 113.7794162  90.1449280
  35.5565362 113.6500370  90.2137698  34.2320502 113.0408824  90.6218708
  42.9217415 111.7009152 104.1480359  42.4056463 110.9167609 103.9610288
  43.8057363 111.3727869 104.3126878  40.5828142 105.4450168 100.1076172
  40.3852963 105.1365256 100.9919504  41.1927847 106.1711807 100.2374102
  48.5899476 115.9714116 103.2428113  49.3202865 115.7099404 103.8035816
  47.9806422 115.2342838 103.2830181  46.6714773 114.1121978 103.8402564
  45.9447937 113.9777943 103.2319055  46.2562060 114.4198807 104.6459282
  32.7949174 111.7044138  90.0804165  31.8880630 111.4077251  90.1566879
  33.0725155 111.4073956  89.2138451  34.4111240 106.2481028  96.2348406
  33.6011968 105.9028113  96.6103652  35.0995657 105.9388572  96.8236018
  36.3401788 105.3259075  97.8572703  36.8932827 105.7454528  98.5162726
  36.5771875 104.3994823  97.8995659  31.5647959 108.5631073  90.2216144
  32.4267123 108.8885972  90.4811962  31.7498303 107.7762569  89.7089210
  39.7180595 107.4359600  97.3651367  39.1379264 108.0944404  96.9829420
  39.4516528 106.6136945  96.9538785  38.1684162 106.8364658  99.5672688
  38.6683940 106.9481192  98.7587006  38.8119770 106.5325711 100.2073496
  38.5005473 109.5959690  96.4207716  37.6131328 109.8809341  96.2027910
  38.9159462 109.4353454  95.5734992  41.8520009 109.6206211 100.1362055
  42.6280400 110.1102664 100.4086672  41.1268144 110.0464266 100.5933924
  44.2892568 110.3333831 101.1935995  44.8837059 110.0929566 100.4829304
  44.3619152 109.6140961 101.8209532  38.4746497 115.1114226  96.6358006
  38.4181698 115.5682778  95.7965638  39.0274840 114.3504911  96.4580848
  42.2851303 110.9003958  97.4608125  42.0288237 110.5000594  98.2916333
  41.6604171 111.6147752  97.3358264  46.5963641 113.6400031  99.9679417
  46.0363199 113.7093221 100.7410979  45.9907144 113.4641016  99.2478913
  39.2081276 116.3019008  93.9310535  39.1530080 116.1363279  92.9898979
  38.5827332 117.0095040  94.0872725  32.5177402 105.8027117  93.5095853
  32.5056072 106.7468956  93.6664124  33.4100824 105.6197262  93.2155314
  36.3329521 102.3969893  97.7641790  35.5661917 101.8428380  97.9098472
  36.7440226 102.4691762  98.6255942  47.7577907 119.5374388 104.7161481
  47.4142176 120.4276029 104.6400592  48.1256870 119.3476045 103.8531066
  49.5565573 118.7967947  99.8179219  49.8624450 117.9365310  99.5305134
  50.2818178 119.3885567  99.6178213  49.8267191 121.2262182 102.3163140
  48.9130270 121.4566409 102.4845347  50.2560292 121.3100626 103.1677172
  47.2619745 118.5966273 101.2408201  47.5421498 117.9289462 101.8668628
  48.0470351 118.7895369 100.7282865  51.4221896 120.7742086 100.1076172
  51.2246717 120.4657174 100.9919504  52.0321602 121.5003725 100.2374102
  47.1795543 120.6550992  97.8572703  47.7326581 121.0746446  98.5162726
  47.4165629 119.7286741  97.8995659  47.1723276 117.7261811  97.7641790
  46.4055672 117.1720298  97.9098472  47.5833981 117.7983680  98.6255942
   4.8218044  31.5032958  87.2353175   4.0681753  30.9340356  87.0797179
   4.9565585  31.4695622  88.1823810   1.6433792  31.4735708  85.1396842
   2.0864938  30.7243033  84.7415965   0.7660302  31.4645844  84.7570574
   1.1866657  32.9440946  87.5319289   2.0213548  33.3830750  87.6956850
   1.3225786  32.4679599  86.7127535   5.2324459  31.6608568  89.9673419
   5.9627848  31.3993856  90.5281123   4.6231405  30.9237290  90.0075487
   3.3139756  29.8016430  90.5647870   2.5872920  29.6672395  89.9564362
   2.8987043  30.1093259  91.3704588   0.9317551  26.0228282  87.9181302
   1.5262042  25.7824018  87.2074610   1.0044135  25.3035413  88.5454838
   3.2388624  29.3294483  86.6924723   2.6788182  29.3987673  87.4656285
   2.6332128  29.1535468  85.9724219   4.8244643  46.0050997  89.3854679
   5.4623053  45.8857745  88.6818019   4.7065485  46.9531841  89.4442631
   1.6334349  45.9578425  89.3216204   1.2952860  45.8419490  88.4336739
   2.5024117  45.5569590  89.3017210   2.1154132  47.1113277  95.2802409
   2.1042773  46.7166075  94.4082913   2.2774771  46.3779350  95.8736181
   3.0720723  51.4784869  80.6227559   2.4208703  52.0638950  80.2361573
   3.8665086  52.0091064  80.6822597   4.3785911  43.7302451  86.4607887
   5.1649000  43.3121874  86.1098304   4.6424615  44.6348543  86.6289535
   4.5495988  49.1675301  81.1596544   3.9141821  49.2409928  81.8717448
   4.2193395  49.7568900  80.4815623   9.7794338  43.6677684  87.3640866
  10.5119510  43.0976901  87.5978695   9.0233694  43.2799285  87.8047371
   1.3970458  46.0904926  84.5604208   1.0328665  45.5635547  85.2717129
   2.2537574  45.7003395  84.3870693   7.3019759  37.3799258  91.8235474
   6.9703083  38.2494669  91.5996689   6.7065372  37.0635542  92.5029504
   1.0375945  41.1194825  79.5565556   1.2050347  41.9875062  79.9236028
   0.8473114  41.2822107  78.6326846   3.7951278  49.5811804  91.2231387
   3.4952001  50.4836843  91.1147194   3.4502338  49.3143988  92.0752540
   7.1948422  42.0994345  88.9028824   6.2865299  42.0309753  88.6087585
   7.1436018  42.5766289  89.7310650   1.2689288  43.5183990  96.8463721
   0.4922622  44.0777910  96.8366586   1.9079851  44.0040773  97.3678592
   9.0610068  40.3010783  90.6806698   8.4184449  40.5943316  90.0346493
   8.5564997  40.1863703  91.4859895   6.7150232  44.0473956  81.3692557
   7.6268088  44.2801343  81.1940255   6.2059879  44.6311000  80.8067636
   4.9991000  48.4698584  95.0053850   5.4074356  48.0280994  94.2608482
   4.2768261  47.8951211  95.2588043   1.3522070  43.4071191  92.3787407
   2.1983265  43.8310604  92.5222056   1.2920707  42.7504815  93.0725970
   5.3219814  49.0299775  88.7606139   4.6928677  49.1945489  88.0582207
   4.9345476  49.4441384  89.5317103   9.2009046  49.9654212  86.1150503
   8.5160084  50.3453114  85.5647536   9.2852895  50.5749539  86.8482450
   4.5021515  41.0675559  94.0368581   4.2582447  41.8217620  93.5002856
   4.7781445  41.4460907  94.8715828   6.4559978  47.6114171  92.7145846
   6.6676873  48.2545931  92.0380227   6.4089726  46.7776488  92.2467776
   4.0586207  40.2231992  89.6182418   3.1970686  40.5213246  89.9099156
   4.0848641  40.4402391  88.6863451   0.8747776  48.7674183  86.0256224
   1.3386122  49.0461886  85.2360846   0.6104574  47.8657627  85.8429315
   7.5705806  50.4886127  90.8868203   8.3923249  50.0866314  90.6050885
   7.5668209  50.3854361  91.8384319   1.3362409  50.0370170  93.0428914
   1.4006842  50.4990577  93.8787086   0.6273333  49.4067535  93.1711224
  15.6611799  46.8324875  87.2353175  14.9075507  46.2632273  87.0797179
  15.7959340  46.7987540  88.1823810   1.0510427  51.7038278  82.9107894
   0.9156102  52.5489813  83.3392742   1.5920239  51.9057555  82.1473828
   2.6778903  52.3261844  97.0408236   2.2342757  51.5398223  96.7229141
   3.3396117  52.5140995  96.3752127   4.7760141  52.6064644  95.0689638
   4.7578617  53.4273525  94.5769907   5.6980061  52.4818719  95.2939779
   1.2333195  50.1208774  95.9113146   1.7661532  49.3597062  95.6812454
   0.7047277  49.8282425  96.6537300   4.4002890  35.2268840  91.4406788
   4.0567160  36.1170481  91.3645898   4.7681853  35.0370497  90.5776373
   4.3653173  45.2177451  79.9479223   3.8499797  45.9882055  80.1867610
   4.0930482  44.5442587  80.5712284   1.9500284  40.0627151  85.0064461
   1.0941880  39.6734002  84.8270100   2.3627236  40.1419112  84.1464247
   3.4799431  37.5973495  89.4056021   2.9764226  37.5603630  88.5923826
   3.7730038  38.5066237  89.4652678   9.3387447  47.9709805  81.8832396
   8.5616890  47.6320965  81.4387558  10.0178928  47.9762428  81.2087361
   4.1539476  43.0904543  81.7739004   3.8489612  43.4050692  82.6249147
   5.1069918  43.1685963  81.8166337   2.5985908  49.2494766  83.4231958
   2.0707270  48.5147526  83.1105195   2.0973411  50.0269442  83.1771926
   7.5778754  47.4443787  88.5399004   6.9202429  48.1343048  88.6279133
   8.3819153  47.8340218  88.8832991   6.3884213  45.7988159  86.5902946
   6.9016095  46.4318151  87.0924656   7.0385437  45.1989355  86.2246306
   3.6506587  55.7772484  79.3463617   2.9768286  56.0804180  79.9548575
   4.0372409  56.5801564  78.9969074   2.8665044  43.2737615  88.8361287
   1.9487605  43.4952562  88.6782975   3.2825187  43.3483925  87.9772994
   3.6500092  44.6729030  83.9663967   4.3971911  45.1850428  83.6571089
   3.9191681  44.3513083  84.8268360   1.9226742  47.1687571  80.9490921
   1.0137961  46.8846604  81.0463391   1.9521826  47.5886650  80.0894228
   7.1546009  50.7794161  84.7182089   6.7008336  49.9385071  84.7747279
   6.5239976  51.4155559  85.0556869   6.0978929  41.7086147  85.9482756
   5.3601686  41.1963533  86.2792999   6.3505702  41.2686528  85.1366033
   5.5978948  52.6170657  85.6531907   5.8901923  53.1775714  84.9344272
   6.1077569  52.9099218  86.4085066   6.1990556  34.4862399  86.5424525
   6.5049433  33.6259762  86.2550440   6.9243161  35.0780019  86.3423519
   1.6202830  48.7096315  78.2879000   1.1822259  47.9932174  77.8284637
   2.3613270  48.9372430  77.7264091   0.5612574  53.3951008  86.7425360
   0.5188752  53.6211855  85.8133892   1.4775272  53.1614383  86.8911161
   4.0078207  43.8635076  93.6405989   4.3627595  44.0906549  94.5000455
   4.6550339  44.1953453  93.0183245   9.7375944  46.9853512  84.3455318
   9.5993843  47.1755108  83.4176507   9.3812163  47.7472895  84.8023369
   9.7645324  49.0530039  89.3566590  10.1981831  48.9605328  90.2049644
  10.4776905  49.0287539  88.7186606   3.4973219  52.6532133  90.8899690
   3.5510241  53.2223069  91.6577406   2.6288000  52.8234018  90.5253727
  10.6260873  49.0953740  91.8899475  10.8196764  49.9999550  92.1358750
  10.5261492  48.6361159  92.7238060   2.2797184  38.9811630  94.3889802
   1.6325099  39.6801580  94.2954279   3.0498200  39.4147774  94.7566051
   5.6875982  49.2460482  97.4640356   5.5361489  49.0171034  96.5470439
   5.6780662  50.2031084  97.4771701   2.4561319  46.8192395  92.4486622
   3.3853379  46.9703555  92.2755590   2.0352349  46.9076416  91.5935269
   1.8497802  55.9452156  81.5610696   2.0249558  55.4740199  82.3756319
   1.1630590  56.5717922  81.7891957   2.8054866  50.2224662  87.6073998
   2.4704698  50.1825432  88.5031648   2.3058811  49.5569378  87.1344408
   5.7414057  47.5680697  77.8811057   5.1243228  46.8427525  77.7844110
   5.2730546  48.3290057  77.5378132   7.3968189  52.2779605  95.5416838
   7.3380735  51.5938825  94.8747421   7.7987707  53.0198595  95.0897464
   7.3985596  50.2419189  93.7730817   6.5112375  49.9045111  93.8957216
   7.9684147  49.5102220  94.0099583   0.9286749  54.9020641  90.7392061
   0.8556921  55.7075613  91.2511365   0.4864143  55.1012607  89.9140082
   4.0273179  39.9487041  86.8929087   4.5241879  39.1957003  86.5730158
   3.2560161  39.9851357  86.3272297  11.8802937  45.6527406  88.5347379
  11.8692813  46.5352122  88.1641312  11.0120316  45.2998957  88.3401916
   3.3885433  54.8007475  92.8950219   4.1013405  55.4354940  92.8226121
   2.8975462  54.8971341  92.0790221   5.1102960  48.7058728  84.4667511
   4.1759239  48.8260190  84.2972215   5.2879628  47.8031195  84.2027521
   8.4975511  44.5476047  85.0017545   8.9635963  45.3804039  84.9277848
   8.9483012  44.0821029  85.7062803   6.5651742  50.8919868  82.0003697
   6.8411586  50.7776463  82.9097571   5.6956241  50.4937353  81.9615870
   6.4692174  36.9156634  89.0408446   5.5555254  37.1460861  89.2090653
   6.8985275  36.9995078  89.8922479   6.2398632  45.1046526  91.5408340
   5.5870083  45.3522434  90.8860793   6.6179012  44.2910664  91.2070818
   3.2005806  55.1406219  85.6436511   3.3828201  54.3227875  86.1064263
   4.0238792  55.3573912  85.2061401   3.5347972  54.0674404  82.9051559
   4.0635738  53.5566859  82.2921721   3.7976191  53.7516935  83.7697092
   2.2886206  45.8466337  98.0274377   1.6126843  45.7460466  98.6976753
   3.1113839  45.6905551  98.4910375   1.0308988  57.1533265  92.2631993
   1.5827296  57.3164886  93.0281079   1.3715182  57.7437702  91.5912018
   5.8819863  51.9794522  98.1180648   6.4259767  52.5924480  97.6235603
   5.3006708  52.5374101  98.6347661   4.1677376  55.1015240  89.2495676
   4.0428515  54.3004980  88.7406621   4.8256467  55.5961433  88.7609646
   6.2312284  52.9024260  90.8775226   5.2842620  52.7829611  90.8053552
   6.5795057  52.0146758  90.9601487   3.2358717  52.6976976  87.0779578
   3.0883680  51.7693684  87.2587148   4.0612211  52.7197067  86.5936653
   6.8392839  53.5205535  88.1644451   7.7639387  53.3148396  88.0268902
   6.6708143  53.2721936  89.0733792   3.2320232  40.5514814  82.0711695
   3.4483846  41.4339452  81.7700523   2.7514299  40.1601027  81.3417337
   1.6841967  40.9340415  90.7416457   1.4259744  41.8557486  90.7400787
   1.1527007  40.5370850  91.4316921   6.6288155  54.0391203  83.5206542
   6.8025033  53.4737625  82.7680395   7.1217047  54.8392097  83.3386032
   2.1043922  37.0672366  87.1017619   2.1265619  37.1311699  86.1469599
   2.5211981  36.2276875  87.2958125  12.4827547  46.8027626  85.1396842
  12.9258693  46.0534951  84.7415965  11.6054057  46.7937762  84.7570574
   7.6163328  53.3557967  80.6203440   8.3114233  53.9764660  80.8390755
   7.9586478  52.5053318  80.8955818   9.5154751  50.8057673  82.1490771
  10.0406075  51.1444945  81.4240091   9.4277104  49.8704688  81.9653906
   1.1774800  54.7191746  94.2780648   1.4861926  54.4740893  95.1503347
   1.9750282  54.9238385  93.7899518   1.1995412  56.8729656  86.5086024
   0.7600402  56.3806035  87.2018881   1.9503529  56.3302623  86.2678100
   9.2048657  51.4390576  97.4541969   8.4144201  51.4214715  96.9146469
   8.9682012  51.9778870  98.2091006   9.3246532  48.2883043  94.7674698
   9.3744537  48.1233050  95.7090220   9.2160455  47.4210302  94.3772578
   6.6150295  44.2713971  96.0834004   7.5160157  44.1320435  95.7918002
   6.6898269  44.4368425  97.0232182  10.8264729  50.7079984  95.0116719
  10.5349537  51.0709965  95.8480180  10.2136860  49.9946992  94.8330051
  12.0260411  48.2732864  87.5319289  12.8607303  48.7122668  87.6956850
  12.1619540  47.7971517  86.7127535   9.0751917  45.8312599  93.4796777
   9.5506039  46.0240245  92.6715629   8.1517483  45.8871785  93.2340161
   3.6532134  37.8660442  92.4452611   4.1714078  38.6021469  92.1199100
   3.2987266  38.1724436  93.2799370   3.9044728  34.2860725  87.9653508
   4.1846482  33.6183914  88.5913934   4.6895335  34.4789820  87.4528172
   1.7078196  53.4619719  79.5278534   1.1352163  54.0809906  79.0749006
   2.2810990  54.0119080  80.0618456   7.7753586  42.7078359  91.7125083
   8.7271009  42.8076456  91.7337307   7.6057037  41.9156627  92.2223167
   5.7967966  39.7933942  91.8984484   5.2017898  40.0738955  91.2030972
   5.5117662  40.2827843  92.6701225   4.9275456  53.7456869  80.6587116
   5.8606129  53.6802431  80.8619992   4.8398669  54.5813136  80.2001649
   7.5563473  53.0622739  77.6191064   7.4777104  52.7282603  78.5126822
   8.3773140  53.5544507  77.6182536  10.2541664  45.9284478  90.8267382
  10.2217984  44.9900479  91.0127066  10.8642288  46.0068515  90.0933207
   2.0924995  44.7980531  76.8694586   3.0384100  44.6686740  76.9383005
   1.7139240  44.0595193  77.3464015  10.4036152  42.7195522  90.8725666
   9.8875201  41.9353979  90.6855594  11.2876101  42.3914239  91.0372185
   8.0646879  36.4636537  86.8321478   7.8671701  36.1551626  87.7164810
   8.6746585  37.1898176  86.9619408  16.0718214  46.9900485  89.9673419
  16.8021602  46.7285773  90.5281123  15.4625159  46.2529207  90.0075487
  14.1533511  45.1308348  90.5647870  13.4266675  44.9964313  89.9564362
  13.7380798  45.4385177  91.3704588   1.9763687  48.8498278  98.3295243
   2.8966697  49.0276877  98.5235290   1.9413270  47.9054323  98.1774943
   1.8929978  37.2667398  82.9593713   1.0830706  36.9214483  83.3348959
   2.5814395  36.9574941  83.5481325   3.8220526  36.3445444  84.5818010
   4.3751565  36.7640898  85.2408033   4.0590612  35.4181192  84.6240966
   7.1999333  38.4545970  84.0896674   6.6198002  39.1130774  83.7074726
   6.9335266  37.6323314  83.6784091   5.6502899  37.8551027  86.2917994
   6.1502678  37.9667562  85.4832313   6.2938507  37.5512080  86.9318803
   5.9824211  40.6146060  83.1453022   5.0950066  40.8995711  82.9273217
   6.3978200  40.4539823  82.2980299   9.3338747  40.6392581  86.8607361
  10.1099137  41.1289033  87.1331978   8.6086881  41.0650635  87.3179231
  11.7711306  41.3520200  87.9181302  12.3655797  41.1115936  87.2074610
  11.8437890  40.6327331  88.5454838   5.1267425  50.3790735  77.2401042
   5.8303275  50.5840737  77.8558698   4.4030073  50.9467496  77.5050126
   5.9565235  46.1300596  83.3603312   5.9000436  46.5869147  82.5210945
   6.5093577  45.3691280  83.1826155   9.7670041  41.9190328  84.1853432
   9.5106975  41.5186963  85.0161640   9.1422909  42.6334122  84.0603571
  14.0782379  44.6586401  86.6924723  13.5181937  44.7279590  87.4656285
  13.4725882  44.4827386  85.9724219   7.0354122  50.8173264  79.2899502
   7.8699726  50.3854462  79.1076977   6.8738465  50.6455277  80.2176397
   6.6900014  47.3205377  80.6555842   6.6348818  47.1549649  79.7144286
   6.0646069  48.0281410  80.8118031   4.0045921  49.6254289  99.9809404
   4.8737081  49.7994941  99.6196039   3.5252673  50.4448706  99.8585134
   3.8148259  33.4156263  84.4887097   3.0480655  32.8614749  84.6343779
   4.2258964  33.4878131  85.3501248  15.6638397  61.3342915  89.3854679
  16.3016807  61.2149662  88.6818019  15.5459240  62.2823759  89.4442631
  12.4728103  61.2870343  89.3216204  12.1346615  61.1711408  88.4336739
  13.3417872  60.8861508  89.3017210   8.3314919  63.1405819  85.3113095
   7.7679784  63.0495756  84.5429382   8.2167314  62.3205724  85.7915587
  12.9547886  62.4405195  95.2802409  12.9436527  62.0457993  94.4082913
  13.1168526  61.7071267  95.8736181   5.8779351  64.6357011  88.1497315
   6.6700643  64.2947836  87.7343614   6.1176001  64.7451986  89.0699468
  13.9114478  66.8076787  80.6227559  13.2602458  67.3930868  80.2361573
  14.7058841  67.3382982  80.6822597   7.8370105  63.8965924  81.0214694
   8.6100981  63.3494911  80.8827570   8.1895504  64.7610174  81.2329155
   9.6755147  65.2242307  94.2281593   9.3845013  66.1287937  94.1128259
  10.3112132  65.2658834  94.9425663  10.6011354  62.6019155  90.8182953
  11.1974927  62.3775177  90.1039916  10.6586326  61.8603901  91.4208401
  10.1736383  60.0558590  78.6533144  10.4261903  59.5340112  77.8916607
   9.2360942  59.8924736  78.7559827  15.2179666  59.0594369  86.4607887
  16.0042755  58.6413792  86.1098304  15.4818370  59.9640461  86.6289535
  15.3889743  64.4967219  81.1596544  14.7535576  64.5701846  81.8717448
  15.0587149  65.0860818  80.4815623  20.6188093  58.9969602  87.3640866
  21.3513265  58.4268819  87.5978695  19.8627448  58.6091202  87.8047371
   9.8932671  61.9586696  80.8557519   9.7768930  61.2831600  81.5238603
  10.0034931  61.4719070  80.0389672  12.2364212  61.4196843  84.5604208
  11.8722420  60.8927464  85.2717129  13.0931328  61.0295312  84.3870693
  18.1413513  52.7091176  91.8235474  17.8096838  53.5786587  91.5996689
  17.5459126  52.3927460  92.5029504  11.8769699  56.4486743  79.5565556
  12.0444102  57.3166980  79.9236028  11.6866868  56.6114025  78.6326846
  14.6345033  64.9103722  91.2231387  14.3345756  65.8128761  91.1147194
  14.2896092  64.6435905  92.0752540   8.0857514  61.3617519  87.2568091
   7.1608011  61.2293733  87.4645783   8.3341927  62.1411738  87.7538034
  18.0342176  57.4286262  88.9028824  17.1259054  57.3601671  88.6087585
  17.9829772  57.9058207  89.7310650  11.8558920  58.9044401  80.5412223
  11.7358545  59.3501451  81.3797704  11.1611509  59.2529718  79.9825761
   5.4466325  61.0050792  88.0911880   5.5758706  61.2585271  89.0051292
   4.7663776  61.5978500  87.7716535   9.6165812  71.6748042  84.1902355
   9.5389842  72.6255867  84.2690835   9.0127456  71.3293915  84.8477281
  12.1083042  58.8475908  96.8463721  11.3316376  59.4069828  96.8366586
  12.7473605  59.3332691  97.3678592  19.9003823  55.6302701  90.6806698
  19.2578203  55.9235234  90.0346493  19.3958751  55.5155621  91.4859895
  17.5543986  59.3765874  81.3692557  18.4661843  59.6093261  81.1940255
  17.0453634  59.9602918  80.8067636  10.3629414  61.6561361  96.4081688
  11.1044099  62.1946405  96.1316512   9.6566400  62.2827650  96.5653240
  15.8384754  63.7990502  95.0053850  16.2468110  63.3572912  94.2608482
  15.1162016  63.2243129  95.2588043  12.1915824  58.7363108  92.3787407
  13.0377019  59.1602522  92.5222056  12.1314462  58.0796733  93.0725970
  16.1613569  64.3591692  88.7606139  15.5322431  64.5237406  88.0582207
  15.7739231  64.7733302  89.5317103  15.3415269  56.3967477  94.0368581
  15.0976201  57.1509537  93.5002856  15.6175200  56.7752824  94.8715828
  17.2953732  62.9406089  92.7145846  17.5070627  63.5837849  92.0380227
  17.2483480  62.1068406  92.2467776  14.8979961  55.5523910  89.6182418
  14.0364440  55.8505163  89.9099156  14.9242396  55.7694309  88.6863451
  11.7141531  64.0966100  86.0256224  12.1779876  64.3753803  85.2360846
  11.4498329  63.1949545  85.8429315   8.6065612  63.6437582  88.9635987
   9.1766969  64.0724850  88.3253472   9.1973724  63.3620167  89.6620173
  10.6510417  60.2189253  82.8345789  11.3534460  60.6710296  83.3019715
  10.3191045  59.5773072  83.4625682   9.0990778  58.8101009  97.2096998
   8.4689439  59.4917290  97.4432395   8.9926866  58.6984091  96.2650137
   4.3935751  58.4772805  88.1362923   3.6034805  58.7330334  87.6603033
   4.8846998  59.2921143  88.2414963  18.4099560  65.8178045  90.8868203
  19.2317004  65.4158232  90.6050885  18.4061963  65.7146279  91.8384319
   6.3450496  58.8417385  85.0946399   5.5481659  58.9536079  85.6129895
   6.1176088  59.1804037  84.2287290  12.1756164  65.3662088  93.0428914
  12.2400596  65.8282495  93.8787086  11.4667088  64.7359453  93.1711224
   2.6773454  58.7303296  90.5677913   2.9281492  59.6150306  90.8335489
   3.2133002  58.5507897  89.7953005  11.8904181  67.0330195  82.9107894
  11.7549856  67.8781731  83.3392742  12.4313994  67.2349473  82.1473828
   8.3771521  53.1121775  99.5722249   7.9838466  52.5587974 100.2469894
   9.1937661  53.4232354  99.9628767   5.3433579  64.5505633  83.4835819
   5.8558099  65.3448884  83.6341384   5.9956292  63.8531924  83.4169421
   7.1528463  67.6671390  85.5658573   7.3295092  68.5889354  85.3779556
   7.9485297  67.3529809  85.9952952  11.2939482  54.5279654  97.1642506
  12.0349195  55.1286807  97.0846969  11.5257405  53.7857292  96.6060549
   6.4380820  59.7136022  95.4420736   6.3234335  58.8121279  95.7427835
   5.5825338  59.9599718  95.0905552  13.5172658  67.6553762  97.0408236
  13.0736512  66.8690140  96.7229141  14.1789871  67.8432912  96.3752127
   8.2759779  69.1849563  91.5668915   8.8267204  69.0566627  90.7945909
   7.4371255  69.4844452  91.2163808  15.6153896  67.9356562  95.0689638
  15.5972371  68.7565443  94.5769907  16.5373816  67.8110637  95.2939779
  12.0726950  65.4500691  95.9113146  12.6055287  64.6888979  95.6812454
  11.5441031  65.1574343  96.6537300  15.2396645  50.5560757  91.4406788
  14.8960914  51.4462399  91.3645898  15.6075607  50.3662415  90.5776373
   3.3082495  62.8794288  84.2595390   4.1457717  63.2891296  84.0429098
   3.4860763  61.9393730  84.2295584  15.2046928  60.5469368  79.9479223
  14.6893551  61.3173973  80.1867610  14.9324236  59.8734504  80.5712284
  12.7894039  55.3919069  85.0064461  11.9335635  55.0025920  84.8270100
  13.2020990  55.4711030  84.1464247  14.3193185  52.9265412  89.4056021
  13.8157981  52.8895548  88.5923826  14.6123792  53.8358155  89.4652678
  10.5636071  53.0104142  88.4122203  11.4289068  52.8146951  88.0528092
  10.6313580  52.7814494  89.3391559  20.1781202  63.3001723  81.8832396
  19.4010644  62.9612882  81.4387558  20.8572683  63.3054346  81.2087361
  14.9933231  58.4196460  81.7739004  14.6883366  58.7342610  82.6249147
  15.9463673  58.4977880  81.8166337  13.4379663  64.5786684  83.4231958
  12.9101024  63.8439443  83.1105195  12.9367165  65.3561360  83.1771926
  18.4172509  62.7735704  88.5399004  17.7596183  63.4634966  88.6279133
  19.2212908  63.1632136  88.8832991   8.1698390  55.2406350  85.7838570
   8.7442142  55.0181532  85.0511762   8.7569373  55.3095045  86.5367171
  17.2277967  61.1280077  86.5902946  17.7409849  61.7610069  87.0924656
  17.8779191  60.5281272  86.2246306   8.4967977  57.2710811  79.8034455
   7.6605290  57.6085498  80.1243730   8.3572747  57.1359791  78.8661592
  10.4721058  52.1147599  84.5113639   9.8185470  51.7996616  83.8870254
  10.4301532  51.4923339  85.2373462  11.5832263  62.3966894  76.4266931
  10.6759325  62.1656147  76.6258080  12.0803295  61.6004513  76.6140913
  14.4900342  71.1064401  79.3463617  13.8162040  71.4096098  79.9548575
  14.8766164  71.9093482  78.9969074  13.7058798  58.6029532  88.8361287
  12.7881360  58.8244479  88.6782975  14.1218942  58.6775843  87.9772994
  14.4893846  60.0020948  83.9663967  15.2365665  60.5142345  83.6571089
  14.7585436  59.6805001  84.8268360  12.7620496  62.4979489  80.9490921
  11.8531715  62.2138522  81.0463391  12.7915580  62.9178567  80.0894228
  17.9939764  66.1086078  84.7182089  17.5402091  65.2676988  84.7747279
  17.3633730  66.7447477  85.0556869  16.9372683  57.0378064  85.9482756
  16.1995440  56.5255451  86.2792999  17.1899457  56.5978446  85.1366033
  16.4372703  67.9462575  85.6531907  16.7295677  68.5067632  84.9344272
  16.9471323  68.2391136  86.4085066  17.0384311  49.8154316  86.5424525
  17.3443187  48.9551680  86.2550440  17.7636915  50.4071937  86.3423519
   3.3308667  60.2185003  84.9306123   3.1333066  59.6254364  84.2057190
   2.7755331  59.9137213  85.6482062  11.3105390  60.1108109  87.0500716
  11.3654000  59.1581946  86.9743193  10.4996592  60.2667549  87.5342015
  12.4596584  64.0388233  78.2879000  12.0216014  63.3224091  77.8284637
  13.2007025  64.2664347  77.7264091   9.2497750  58.7285169  84.8091095
   8.4365616  59.0279340  85.2156287   9.7456744  58.3340858  85.5265578
  11.4006328  68.7242926  86.7425360  11.3582507  68.9503772  85.8133892
  12.3169027  68.4906301  86.8911161  14.8471962  59.1926994  93.6405989
  15.2021350  59.4198467  94.5000455  15.4944093  59.5245370  93.0183245
  20.5769699  62.3145430  84.3455318  20.4387597  62.5047026  83.4176507
  20.2205918  63.0764812  84.8023369   8.7411825  56.3003525  90.4252330
   9.3811204  56.1592284  89.7275294   7.9089355  56.0138038  90.0490932
  20.6039078  64.3821957  89.3566590  21.0375585  64.2897246  90.2049644
  21.3170659  64.3579457  88.7186606   9.5172129  65.6005955  86.5387323
  10.3112727  65.1056275  86.3369898   8.8063821  65.0723818  86.1755028
  14.3366973  67.9824051  90.8899690  14.3903996  68.5514987  91.6577406
  13.4681755  68.1525936  90.5253727   5.8254892  59.7449037  82.6147075
   4.8952480  59.6833492  82.8317038   5.9212364  59.2224990  81.8183717
   5.7440441  56.2703850  85.2025317   6.0047259  57.1849183  85.0934478
   6.5657614  55.8028292  85.3521930   7.2165367  57.6841607  92.3724142
   7.8888420  57.4758969  91.7236791   6.3895153  57.4863693  91.9329374
  21.4654628  64.4245657  91.8899475  21.6590518  65.3291468  92.1358750
  21.3655246  63.9653076  92.7238060  13.1190939  54.3103548  94.3889802
  12.4718854  55.0093497  94.2954279  13.8891954  54.7439692  94.7566051
  16.5269737  64.5752400  97.4640356  16.3755243  64.3462952  96.5470439
  16.5174416  65.5323001  97.4771701  13.2955073  62.1484313  92.4486622
  14.2247133  62.2995472  92.2755590  12.8746103  62.2368334  91.5935269
  12.0943405  66.1734977  90.2185160  11.9554491  65.8053762  91.0911098
  11.3058001  66.6882617  90.0469118  12.6891557  71.2744074  81.5610696
  12.8643313  70.8032117  82.3756319  12.0024345  71.9009840  81.7891957
  13.6448620  65.5516580  87.6073998  13.3098453  65.5117350  88.5031648
  13.1452566  64.8861296  87.1344408   7.6192864  60.9584210  93.1326579
   7.4812662  60.2264449  93.7338118   8.5297787  60.8693110  92.8510767
  16.5807812  62.8972614  77.8811057  15.9636982  62.1719442  77.7844110
  16.1124300  63.6581974  77.5378132  10.2475165  60.6704169  92.6210258
  10.9574783  60.0297361  92.5796877  10.2044473  60.9217064  93.5436439
  18.2361943  67.6071523  95.5416838  18.1774489  66.9230743  94.8747421
  18.6381462  68.3490513  95.0897464   8.9604099  57.6569387  94.4405898
   8.4241456  57.2060126  95.0927494   8.3720807  57.7915296  93.6976362
   7.2552642  74.4233436  88.3350557   7.4949240  75.0551961  89.0129575
   6.4121839  74.0721476  88.6215916   8.3706358  57.1158038  77.0032362
   7.4935824  56.9946839  76.6394608   8.8464111  56.3244117  76.7511250
  18.2379351  65.5711106  93.7730817  17.3506129  65.2337028  93.8957216
  18.8077902  64.8394138  94.0099583   4.6943220  56.7925395  91.5258892
   4.6101409  56.1851064  90.7909302   3.8725926  57.2834413  91.5268389
  11.7680504  70.2312559  90.7392061  11.6950675  71.0367530  91.2511365
  11.3257897  70.4304525  89.9140082  11.5570284  69.4684329  84.2494882
  10.7737805  70.0106009  84.3433107  12.2563029  69.9858308  84.6489123
  14.8666934  55.2778958  86.8929087  15.3635633  54.5248921  86.5730158
  14.0953915  55.3143275  86.3272297  22.7196691  60.9819324  88.5347379
  22.7086567  61.8644039  88.1641312  21.8514071  60.6290875  88.3401916
  14.2279187  70.1299393  92.8950219  14.9407160  70.7646858  92.8226121
  13.7369216  70.2263259  92.0790221  15.9496714  64.0350646  84.4667511
  15.0152993  64.1552108  84.2972215  16.1273383  63.1323112  84.2027521
  11.4501902  57.4196341  86.6200772  11.0799690  56.8667382  87.3081678
  11.9460995  56.8154475  86.0675772  19.3369266  59.8767965  85.0017545
  19.8029718  60.7095956  84.9277848  19.7876766  59.4112946  85.7062803
   9.2791101  67.8793836  93.7155790   9.9800561  68.5130319  93.8685184
   8.8086216  68.2208568  92.9551429  17.4045497  66.2211786  82.0003697
  17.6805341  66.1068381  82.9097571  16.5349996  65.8229271  81.9615870
  17.3085928  52.2448552  89.0408446  16.3949008  52.4752779  89.2090653
  17.7379030  52.3286996  89.8922479  17.0792387  60.4338444  91.5408340
  16.4263837  60.6814351  90.8860793  17.4572767  59.6202582  91.2070818
  14.0399561  70.4698137  85.6436511  14.2221955  69.6519793  86.1064263
  14.8632547  70.6865829  85.2061401  14.3741726  69.3966322  82.9051559
  14.9029493  68.8858777  82.2921721  14.6369946  69.0808852  83.7697092
  13.1279960  61.1758255  98.0274377  12.4520597  61.0752384  98.6976753
  13.9507594  61.0197469  98.4910375   4.8758819  67.4130191  90.6486893
   5.4612256  66.6673879  90.7814797   4.6783658  67.7234148  91.5323557
   7.7297474  70.4481439  85.6649335   7.0607850  70.9327566  85.1813375
   7.5910344  70.6950659  86.5792714  11.8702743  72.4825182  92.2631993
  12.4221051  72.6456804  93.0281079  12.2108936  73.0729620  91.5912018
   6.8467236  54.8300332  92.8653878   6.9108563  55.6915163  92.4531276
   6.7834356  54.2174334  92.1326237   6.3219509  56.9023465  96.5126912
   6.9491547  56.5200542  97.1264437   5.4647427  56.6837667  96.8782605
  16.7213617  67.3086440  98.1180648  17.2653521  67.9216398  97.6235603
  16.1400462  67.8666018  98.6347661   3.0985051  58.7099894  82.4445267
   3.3938492  57.8010572  82.3912321   2.1973087  58.6887633  82.1226270
  15.0071130  70.4307158  89.2495676  14.8822270  69.6296898  88.7406621
  15.6650221  70.9253351  88.7609646   6.6279298  56.7855890  88.4272816
   5.9065884  57.3991858  88.2880289   7.4172554  57.3213655  88.3489462
  17.0706039  68.2316178  90.8775226  16.1236374  68.1121529  90.8053552
  17.4188812  67.3438676  90.9601487   9.4305612  54.1210317  94.7013468
   9.9540014  54.3672613  95.4639777   9.2117945  54.9530352  94.2816605
   4.8272893  56.3913991  82.5684592   4.4985599  55.5111370  82.3859698
   5.1812264  56.3361660  83.4560982  14.0752472  68.0268894  87.0779578
  13.9277434  67.0985602  87.2587148  14.9005965  68.0488985  86.5936653
   7.9414716  56.6786961  82.9360070   8.2810789  57.2072882  82.2138678
   8.3886837  57.0167367  83.7118637  17.6786594  68.8497453  88.1644451
  18.6033141  68.6440314  88.0268902  17.5101897  68.6013854  89.0733792
  10.6358157  55.0624012  92.3863138  10.2954977  54.2631825  92.7883818
   9.9297163  55.3625723  91.8139971  11.2874629  52.1473324  90.8390461
  12.1100698  51.6733803  90.7169351  11.5312692  52.9263808  91.3389147
   9.9282863  55.1761583  81.1353363  10.6491226  55.5542836  80.6317080
   9.3048167  55.8950460  81.2388341  14.0713986  55.8806732  82.0711695
  14.2877601  56.7631370  81.7700523  13.5908053  55.4892945  81.3417337
   8.8113208  58.8392445  88.6482440   8.6657788  59.1532748  89.5406721
   8.3338411  59.4577345  88.0953338  10.6709590  55.8294993  88.6963329
  10.6571159  54.9336086  88.3595627  11.3882019  55.8365657  89.3301615
  12.5235721  56.2632333  90.7416457  12.2653499  57.1849404  90.7400787
  11.9920762  55.8662768  91.4316921  17.4681910  69.3683120  83.5206542
  17.6418787  68.8029543  82.7680395  17.9610801  70.1684015  83.3386032
   3.2858870  61.3797789  91.5870101   2.7412338  62.1557597  91.7190375
   4.1638220  61.7268594  91.4289222  10.0746486  54.7109373  83.9650899
  10.1962398  53.7826019  84.1641787   9.7848529  54.7248059  83.0529215
  12.9437677  52.3964284  87.1017619  12.9659374  52.4603617  86.1469599
  13.3605736  51.5568792  87.2958125  18.4557082  68.6849885  80.6203440
  19.1507987  69.3056577  80.8390755  18.7980233  67.8345236  80.8955818
   4.0724892  60.5067686  94.4800258   3.3306628  60.6550321  95.0664888
   3.7517636  60.7675951  93.6167007  20.3548506  66.1349590  82.1490771
  20.8799830  66.4736863  81.4240091  20.2670858  65.1996606  81.9653906
  12.0168554  70.0483664  94.2780648  12.3255681  69.8032811  95.1503347
  12.8144036  70.2530302  93.7899518  12.0389166  72.2021574  86.5086024
  11.5994157  71.7097952  87.2018881  12.7897283  71.6594541  86.2678100
   4.5181505  68.3933114  86.5110652   5.3439525  68.0936886  86.1309296
   4.1675557  67.6240737  86.9600441   9.4863038  67.7459583  88.5808326
   8.8643048  67.0830288  88.2810554  10.1567905  67.7720714  87.8981974
   2.7190110  66.3119441  87.4699586   1.8822019  65.8841615  87.2883587
   2.6913756  66.5051884  88.4070377   9.5587566  56.2241371  98.1740832
   9.6075721  57.1003493  97.7918602  10.1010080  55.6818764  97.6012475
  20.0442412  66.7682494  97.4541969  19.2537955  66.7506633  96.9146469
  19.8075766  67.3070788  98.2091006  20.1640287  63.6174960  94.7674698
  20.2138292  63.4524968  95.7090220  20.0554210  62.7502219  94.3772578
   9.0476545  66.2963506  82.0566787   9.1964666  66.9798970  81.4033459
   9.8542989  66.2768596  82.5716242  17.4544049  59.6005888  96.0834004
  18.3553912  59.4612353  95.7918002  17.5292024  59.7660343  97.0232182
  11.7886854  56.9772743  94.9287191  10.9190164  57.2706309  94.6569779
  12.0246335  57.5613188  95.6494454  21.6658483  66.0371902  95.0116719
  21.3743292  66.4001882  95.8480180  21.0530615  65.3238910  94.8330051
  19.9145672  61.1604516  93.4796777  20.3899793  61.3532163  92.6715629
  18.9911237  61.2163702  93.2340161   6.8029178  62.3228684  83.0627855
   6.5575220  61.4191014  83.2608066   6.9725093  62.3245834  82.1207333
  14.4925888  53.1952360  92.4452611  15.0107832  53.9313387  92.1199100
  14.1381021  53.5016353  93.2799370   6.0724826  58.0557041  80.5614017
   5.3794071  58.1301396  79.9054053   5.8276578  57.2917385  81.0835534
  14.7438482  49.6152642  87.9653508  15.0240236  48.9475832  88.5913934
  15.5289089  49.8081738  87.4528172  12.5471951  68.7911636  79.5278534
  11.9745918  69.4101824  79.0749006  13.1204745  69.3410998  80.0618456
  18.6147341  58.0370276  91.7125083  19.5664764  58.1368374  91.7337307
  18.4450791  57.2448545  92.2223167  16.6361720  55.1225860  91.8984484
  16.0411652  55.4030872  91.2030972  16.3511417  55.6119761  92.6701225
  15.7669211  69.0748787  80.6587116  16.6999884  69.0094348  80.8619992
  15.6792423  69.9105053  80.2001649  18.3957227  68.3914657  77.6191064
  18.3170859  68.0574520  78.5126822  19.2166894  68.8836425  77.6182536
  21.0935418  61.2576396  90.8267382  21.0611739  60.3192397  91.0127066
  21.7036042  61.3360433  90.0933207  12.9318749  60.1272449  76.8694586
  13.8777854  59.9978657  76.9383005  12.5532994  59.3887111  77.3464015
  21.2429907  58.0487440  90.8725666  20.7268956  57.2645896  90.6855594
  22.1269855  57.7206156  91.0372185  18.9040634  51.7928455  86.8321478
  18.7065455  51.4843543  87.7164810  19.5140339  52.5190094  86.9619408
  26.9111968  62.3192403  89.9673419  27.6415357  62.0577691  90.5281123
  26.3018914  61.5821125  90.0075487  24.9927265  60.4600266  90.5647870
  24.2660429  60.3256231  89.9564362  24.5774552  60.7677094  91.3704588
  12.8157442  64.1790195  98.3295243  13.7360451  64.3568794  98.5235290
  12.7807025  63.2346241  98.1774943  11.1161666  58.0522426  76.8049472
  10.2093122  57.7555538  76.8812185  11.3937647  57.7552244  75.9383758
   2.0339607  59.3728789  87.2548518   1.7142391  58.5194097  86.9622892
   1.4873035  59.5877367  88.0106485   5.8119514  62.0891230  90.9718025
   6.0305524  63.0208338  90.9906058   6.2245288  61.7299204  91.7572828
  12.7323732  52.5959315  82.9593713  11.9224461  52.2506400  83.3348959
  13.4208149  52.2866859  83.5481325  14.6614281  51.6737362  84.5818010
  15.2145319  52.0932815  85.2408033  14.8984367  50.7473110  84.6240966
  10.6847380  57.6624436 100.3620774  10.5844107  58.6118793 100.2932865
  10.4668922  57.3342675  99.4896844   9.8860451  54.9109361  76.9461451
  10.7479615  55.2364259  77.2057268  10.0710795  54.1240857  76.4334517
   1.9027867  62.9931700  89.2241640   1.2091338  62.5785653  88.7111594
   2.6500858  63.0352237  88.6275059  18.0393088  53.7837887  84.0896674
  17.4591757  54.4422691  83.7074726  17.7729020  52.9615232  83.6784091
  16.4896654  53.1842945  86.2917994  16.9896432  53.2959479  85.4832313
  17.1332262  52.8803998  86.9318803  10.5478650  61.0921575  99.1785835
  10.0645731  61.8921935  99.3849724  10.6339589  61.1029519  98.2253279
   3.8164609  62.9249954  87.1007655   3.7935298  63.0237641  86.1489538
   4.1265246  63.7715105  87.4224821   6.4751987  64.9826109  91.2154269
   7.4295241  64.9510052  91.1484201   6.2764511  64.5216733  92.0304495
   7.0651369  63.5527225  93.7825067   7.8844258  64.0471304  93.8059904
   7.3388177  62.6359193  93.7542634  16.8217966  55.9437978  83.1453022
  15.9343821  56.2287628  82.9273217  17.2371955  55.7831741  82.2980299
  20.1732502  55.9684499  86.8607361  20.9492892  56.4580951  87.1331978
  19.4480636  56.3942553  87.3179231  22.6105060  56.6812118  87.9181302
  23.2049551  56.4407854  87.2074610  22.6831644  55.9619248  88.5454838
   4.8302216  70.5245729  88.2324467   4.6956684  69.7646130  87.6662465
   4.4134278  71.2486629  87.7653256  15.9661179  65.7082652  77.2401042
  16.6697029  65.9132655  77.8558698  15.2423828  66.2759414  77.5050126
  16.7958989  61.4592514  83.3603312  16.7394191  61.9161065  82.5210945
  17.3487332  60.6983198  83.1826155  20.6063795  57.2482245  84.1853432
  20.3500730  56.8478881  85.0161640  19.9816663  57.9626039  84.0603571
  24.9176133  59.9878319  86.6924723  24.3575691  60.0571508  87.4656285
  24.3119636  59.8119303  85.9724219   7.9871342  71.4215046  88.4442910
   7.8703726  72.3660478  88.3421600   7.1663788  71.1188607  88.8328709
  17.8747876  66.1465181  79.2899502  18.7093480  65.7146380  79.1076977
  17.7132219  65.9747195  80.2176397  17.5293769  62.6497295  80.6555842
  17.4742572  62.4841566  79.7144286  16.9039824  63.3573328  80.8118031
   2.3186284  57.8865359  94.4817264   2.9645147  57.3764313  94.9704489
   2.1103435  58.6234041  95.0560689  14.8439676  64.9546207  99.9809404
  15.7130835  65.1286859  99.6196039  14.3646427  65.7740623  99.8585134
  10.8389894  52.1505404  80.2341160  10.8268564  53.0947244  80.3909431
  11.7313316  51.9675549  79.9400621   9.0125856  72.0743308  91.6598838
   9.9153103  72.1066918  91.9765333   8.7863226  71.1443759  91.6745174
  10.7679458  70.8274294  88.3208917   9.8175089  70.8276156  88.2073289
  11.0711944  70.0807029  87.8044951  14.6542014  48.7448180  84.4887097
  13.8874409  48.1906667  84.6343779  15.0652719  48.8170049  85.3501248
   6.6583775  55.0332976  98.5792278   7.5215236  54.6769781  98.7895603
   6.0849185  54.6946871  99.2667682  23.3121858  76.6162261  89.3216204
  22.9740369  76.5003325  88.4336739  24.1811626  76.2153426  89.3017210
  19.1708674  78.4697737  85.3113095  18.6073539  78.3787674  84.5429382
  19.0561069  77.6497642  85.7915587  23.7941641  77.7697112  95.2802409
  23.7830282  77.3749911  94.4082913  23.9562280  77.0363185  95.8736181
  16.7173105  79.9648929  88.1497315  17.5094397  79.6239753  87.7343614
  16.9569756  80.0743904  89.0699468  24.7508232  82.1368705  80.6227559
  24.0996212  82.7222785  80.2361573  25.5452595  82.6674900  80.6822597
  18.6763859  79.2257842  81.0214694  19.4494735  78.6786829  80.8827570
  19.0289258  80.0902091  81.2329155  20.5148902  80.5534224  94.2281593
  20.2238768  81.4579855  94.1128259  21.1505886  80.5950752  94.9425663
  21.4405109  77.9311073  90.8182953  22.0368681  77.7067095  90.1039916
  21.4980080  77.1895818  91.4208401  21.0130137  75.3850508  78.6533144
  21.2655658  74.8632029  77.8916607  20.0754696  75.2216653  78.7559827
  26.2283497  79.8259137  81.1596544  25.5929330  79.8993763  81.8717448
  25.8980904  80.4152736  80.4815623  20.7326426  77.2878614  80.8557519
  20.6162684  76.6123517  81.5238603  20.8428686  76.8010988  80.0389672
  25.4738787  80.2395640  91.2231387  25.1739510  81.1420679  91.1147194
  25.1289847  79.9727823  92.0752540  18.9251269  76.6909437  87.2568091
  18.0001765  76.5585651  87.4645783  19.1735682  77.4703656  87.7538034
  16.2860080  76.3342710  88.0911880  16.4152461  76.5877189  89.0051292
  15.6057531  76.9270418  87.7716535  20.4559567  87.0039960  84.1902355
  20.3783597  87.9547785  84.2690835  19.8521210  86.6585833  84.8477281
  22.9476797  74.1767825  96.8463721  22.1710131  74.7361746  96.8366586
  23.5867360  74.6624608  97.3678592  21.2023169  76.9853279  96.4081688
  21.9437853  77.5238323  96.1316512  20.4960154  77.6119568  96.5653240
  26.6778509  79.1282419  95.0053850  27.0861865  78.6864830  94.2608482
  25.9555770  78.5535047  95.2588043  23.0309579  74.0655026  92.3787407
  23.8770774  74.4894440  92.5222056  22.9708216  73.4088650  93.0725970
  27.0007323  79.6883610  88.7606139  26.3716186  79.8529324  88.0582207
  26.6132985  80.1025219  89.5317103  26.1809024  71.7259394  94.0368581
  25.9369956  72.4801455  93.5002856  26.4568954  72.1044742  94.8715828
  28.1347487  78.2698007  92.7145846  28.3464382  78.9129767  92.0380227
  28.0877235  77.4360323  92.2467776  22.5535285  79.4258018  86.0256224
  23.0173631  79.7045721  85.2360846  22.2892083  78.5241463  85.8429315
  19.4459366  78.9729500  88.9635987  20.0160723  79.4016768  88.3253472
  20.0367478  78.6912084  89.6620173  21.4904171  75.5481170  82.8345789
  22.1928215  76.0002214  83.3019715  21.1584800  74.9064989  83.4625682
  19.9384533  74.1392927  97.2096998  19.3083193  74.8209208  97.4432395
  19.8320621  74.0276009  96.2650137  15.2329505  73.8064723  88.1362923
  14.4428559  74.0622252  87.6603033  15.7240752  74.6213061  88.2414963
  29.2493315  81.1469962  90.8868203  30.0710758  80.7450150  90.6050885
  29.2455718  81.0438196  91.8384319  17.1844251  74.1709302  85.0946399
  16.3875414  74.2827997  85.6129895  16.9569843  74.5095955  84.2287290
  23.0149918  80.6954006  93.0428914  23.0794351  81.1574413  93.8787086
  22.3060842  80.0651370  93.1711224  13.5167208  74.0595214  90.5677913
  13.7675247  74.9442223  90.8335489  14.0526757  73.8799815  89.7953005
  22.7297936  82.3622113  82.9107894  22.5943611  83.2073649  83.3392742
  23.2707748  82.5641391  82.1473828  19.2165275  68.4413693  99.5722249
  18.8232221  67.8879891 100.2469894  20.0331416  68.7524271  99.9628767
  16.1827333  79.8797551  83.4835819  16.6951854  80.6740801  83.6341384
  16.8350046  79.1823842  83.4169421  17.9922218  82.9963307  85.5658573
  18.1688846  83.9181272  85.3779556  18.7879051  82.6821727  85.9952952
  22.1333236  69.8571572  97.1642506  22.8742950  70.4578725  97.0846969
  22.3651159  69.1149210  96.6060549  17.2774574  75.0427939  95.4420736
  17.1628090  74.1413196  95.7427835  16.4219092  75.2891636  95.0905552
  24.3566412  82.9845680  97.0408236  23.9130266  82.1982058  96.7229141
  25.0183626  83.1724830  96.3752127  19.1153533  84.5141481  91.5668915
  19.6660958  84.3858544  90.7945909  18.2765009  84.8136370  91.2163808
  26.4547650  83.2648479  95.0689638  26.4366126  84.0857360  94.5769907
  27.3767570  83.1402555  95.2939779  22.9120704  80.7792609  95.9113146
  23.4449041  80.0180897  95.6812454  22.3834785  80.4866261  96.6537300
  26.0790399  65.8852675  91.4406788  25.7354669  66.7754317  91.3645898
  26.4469362  65.6954333  90.5776373  14.1476250  78.2086205  84.2595390
  14.9851472  78.6183214  84.0429098  14.3254518  77.2685648  84.2295584
  24.2773417  79.9078601  83.4231958  23.7494779  79.1731361  83.1105195
  23.7760920  80.6853278  83.1771926  19.0092145  70.5698268  85.7838570
  19.5835897  70.3473449  85.0511762  19.5963127  70.6386962  86.5367171
  19.3361732  72.6002729  79.8034455  18.4999044  72.9377415  80.1243730
  19.1966501  72.4651709  78.8661592  22.4226017  77.7258812  76.4266931
  21.5153079  77.4948065  76.6258080  22.9197049  76.9296431  76.6140913
  25.3294096  86.4356319  79.3463617  24.6555795  86.7388016  79.9548575
  25.7159918  87.2385399  78.9969074  28.8333518  81.4377996  84.7182089
  28.3795845  80.5968906  84.7747279  28.2027485  82.0739394  85.0556869
  27.2766457  83.2754493  85.6531907  27.5689432  83.8359550  84.9344272
  27.7865078  83.5683054  86.4085066  14.1702421  75.5476921  84.9306123
  13.9726821  74.9546281  84.2057190  13.6149085  75.2429131  85.6482062
  23.2990339  79.3680150  78.2879000  22.8609768  78.6516009  77.8284637
  24.0400779  79.5956265  77.7264091  20.0891505  74.0577087  84.8091095
  19.2759370  74.3571257  85.2156287  20.5850499  73.6632776  85.5265578
  22.2400083  84.0534844  86.7425360  22.1976261  84.2795690  85.8133892
  23.1562781  83.8198218  86.8911161  25.6865716  74.5218911  93.6405989
  26.0415104  74.7490385  94.5000455  26.3337848  74.8537288  93.0183245
  19.5805579  71.6295442  90.4252330  20.2204959  71.4884202  89.7275294
  18.7483110  71.3429956  90.0490932  31.4432833  79.7113874  89.3566590
  31.8769340  79.6189163  90.2049644  32.1564414  79.6871375  88.7186606
  20.3565883  80.9297873  86.5387323  21.1506482  80.4348193  86.3369898
  19.6457576  80.4015736  86.1755028  25.1760728  83.3115968  90.8899690
  25.2297750  83.8806905  91.6577406  24.3075509  83.4817853  90.5253727
  16.6648647  75.0740955  82.6147075  15.7346235  75.0125410  82.8317038
  16.7606119  74.5516907  81.8183717  16.5834196  71.5995767  85.2025317
  16.8441013  72.5141101  85.0934478  17.4051368  71.1320210  85.3521930
  18.0559121  73.0133525  92.3724142  18.7282175  72.8050887  91.7236791
  17.2288908  72.8155611  91.9329374  32.3048382  79.7537575  91.8899475
  32.4984273  80.6583385  92.1358750  32.2049001  79.2944994  92.7238060
  23.9584693  69.6395465  94.3889802  23.3112608  70.3385415  94.2954279
  24.7285709  70.0731609  94.7566051  27.3663491  79.9044318  97.4640356
  27.2148998  79.6754869  96.5470439  27.3568171  80.8614919  97.4771701
  24.1348828  77.4776230  92.4486622  25.0640888  77.6287390  92.2755590
  23.7139858  77.5660251  91.5935269  22.9337159  81.5026895  90.2185160
  22.7948245  81.1345679  91.0911098  22.1451756  82.0174534  90.0469118
  23.5285311  86.6035991  81.5610696  23.7037067  86.1324034  82.3756319
  22.8418099  87.2301757  81.7891957  24.4842374  80.8808498  87.6073998
  24.1492207  80.8409267  88.5031648  23.9846320  80.2153213  87.1344408
  18.4586618  76.2876128  93.1326579  18.3206416  75.5556366  93.7338118
  19.3691542  76.1985028  92.8510767  21.0868919  75.9996087  92.6210258
  21.7968538  75.3589279  92.5796877  21.0438227  76.2508982  93.5436439
  29.0755698  82.9363440  95.5416838  29.0168244  82.2522660  94.8747421
  29.4775216  83.6782430  95.0897464  19.7997853  72.9861305  94.4405898
  19.2635210  72.5352043  95.0927494  19.2114562  73.1207214  93.6976362
  18.0946397  89.7525354  88.3350557  18.3342995  90.3843878  89.0129575
  17.2515593  89.4013394  88.6215916  19.2100112  72.4449956  77.0032362
  18.3329578  72.3238757  76.6394608  19.6857865  71.6536034  76.7511250
  29.0773105  80.9003024  93.7730817  28.1899884  80.5628946  93.8957216
  29.6471656  80.1686055  94.0099583  10.7302252  77.2327116  87.0973869
  11.4173292  76.9188846  86.5094884  10.5750381  78.1368481  86.8241120
  15.5336974  72.1217312  91.5258892  15.4495163  71.5142982  90.7909302
  14.7119681  72.6126331  91.5268389  22.6074258  85.5604476  90.7392061
  22.5344430  86.3659448  91.2511365  22.1651652  85.7596442  89.9140082
  22.3964038  84.7976247  84.2494882  21.6131560  85.3397927  84.3433107
  23.0956783  85.3150226  84.6489123  25.0672942  85.4591311  92.8950219
  25.7800914  86.0938775  92.8226121  24.5762971  85.5555177  92.0790221
  20.1184856  83.2085754  93.7155790  20.8194315  83.8422237  93.8685184
  19.6479970  83.5500486  92.9551429  28.2439251  81.5503704  82.0003697
  28.5199095  81.4360298  82.9097571  27.3743750  81.1521189  81.9615870
  24.8793315  85.7990055  85.6436511  25.0615710  84.9811711  86.1064263
  25.7026301  86.0157747  85.2061401  25.2135481  84.7258240  82.9051559
  25.7423247  84.2150694  82.2921721  25.4763700  84.4100770  83.7697092
  23.9673714  76.5050172  98.0274377  23.2914352  76.4044302  98.6976753
  24.7901348  76.3489386  98.4910375  15.7152574  82.7422109  90.6486893
  16.3006010  81.9965797  90.7814797  15.5177412  83.0526066  91.5323557
  18.5691229  85.7773356  85.6649335  17.9001604  86.2619484  85.1813375
  18.4304098  86.0242577  86.5792714  10.3070228  75.3127709  89.3691336
  10.3454328  74.7791300  90.1628454   9.8010521  74.7862915  88.7502313
  22.7096497  87.8117100  92.2631993  23.2614805  87.9748721  93.0281079
  23.0502691  88.4021538  91.5912018  17.6860991  70.1592250  92.8653878
  17.7502317  71.0207081  92.4531276  17.6228111  69.5466251  92.1326237
  17.1613263  72.2315382  96.5126912  17.7885302  71.8492460  97.1264437
  16.3041182  72.0129584  96.8782605  27.5607372  82.6378357  98.1180648
  28.1047276  83.2508316  97.6235603  26.9794217  83.1957936  98.6347661
  13.9378806  74.0391811  82.4445267  14.2332247  73.1302490  82.3912321
  13.0366842  74.0179551  82.1226270  25.8464885  85.7599075  89.2495676
  25.7216024  84.9588815  88.7406621  26.5043976  86.2545269  88.7609646
  17.4673053  72.1147808  88.4272816  16.7459639  72.7283776  88.2880289
  18.2566309  72.6505573  88.3489462  27.9099793  83.5608096  90.8775226
  26.9630129  83.4413447  90.8053552  28.2582566  82.6730594  90.9601487
  20.2699366  69.4502234  94.7013468  20.7933768  69.6964531  95.4639777
  20.0511700  70.2822269  94.2816605  15.6666647  71.7205909  82.5684592
  15.3379354  70.8403288  82.3859698  16.0206018  71.6653578  83.4560982
  24.9146226  83.3560812  87.0779578  24.7671189  82.4277519  87.2587148
  25.7399720  83.3780902  86.5936653  18.7808471  72.0078879  82.9360070
  19.1204543  72.5364800  82.2138678  19.2280591  72.3459285  83.7118637
  28.5180348  84.1789371  88.1644451  29.4426896  83.9732232  88.0268902
  28.3495652  83.9305772  89.0733792  21.4751911  70.3915930  92.3863138
  21.1348732  69.5923743  92.7883818  20.7690918  70.6917640  91.8139971
  22.1268383  67.4765242  90.8390461  22.9494453  67.0025720  90.7169351
  22.3706447  68.2555726  91.3389147  19.6506962  74.1684363  88.6482440
  19.5051543  74.4824666  89.5406721  19.1732166  74.7869263  88.0953338
  21.5103345  71.1586911  88.6963329  21.4964914  70.2628004  88.3595627
  22.2275773  71.1657574  89.3301615  23.3629476  71.5924251  90.7416457
  23.1047253  72.5141321  90.7400787  22.8314516  71.1954685  91.4316921
  14.1252624  76.7089707  91.5870101  13.5806092  77.4849515  91.7190375
  15.0031974  77.0560512  91.4289222  14.9118646  75.8359603  94.4800258
  14.1700382  75.9842239  95.0664888  14.5911390  76.0967869  93.6167007
  22.8562309  85.3775582  94.2780648  23.1649435  85.1324728  95.1503347
  23.6537791  85.5822220  93.7899518  22.8782921  87.5313491  86.5086024
  22.4387911  87.0389870  87.2018881  23.6291038  86.9886459  86.2678100
  15.3575260  83.7225032  86.5110652  16.1833280  83.4228804  86.1309296
  15.0069312  82.9532654  86.9600441  20.3256793  83.0751500  88.5808326
  19.7036802  82.4122205  88.2810554  20.9961660  83.1012632  87.8981974
  13.5583865  81.6411358  87.4699586  12.7215773  81.2133533  87.2883587
  13.5307510  81.8343802  88.4070377  20.3981320  71.5533288  98.1740832
  20.4469476  72.4295411  97.7918602  20.9403835  71.0110681  97.6012475
  30.8836166  82.0974412  97.4541969  30.0931710  82.0798550  96.9146469
  30.6469521  82.6362705  98.2091006  31.0034041  78.9466878  94.7674698
  31.0532046  78.7816885  95.7090220  30.8947964  78.0794137  94.3772578
  19.8870300  81.6255424  82.0566787  20.0358420  82.3090888  81.4033459
  20.6936743  81.6060514  82.5716242  22.6280609  72.3064661  94.9287191
  21.7583918  72.5998227  94.6569779  22.8640089  72.8905106  95.6494454
  32.5052238  81.3663819  95.0116719  32.2137046  81.7293800  95.8480180
  31.8924369  80.6530828  94.8330051  17.6422933  77.6520601  83.0627855
  17.3968975  76.7482931  83.2608066  17.8118847  77.6537752  82.1207333
  25.3319643  68.5244278  92.4452611  25.8501587  69.2605305  92.1199100
  24.9774775  68.8308271  93.2799370  16.9118580  73.3848959  80.5614017
  16.2187825  73.4593314  79.9054053  16.6670332  72.6209302  81.0835534
  23.3865705  84.1203554  79.5278534  22.8139672  84.7393741  79.0749006
  23.9598499  84.6702916  80.0618456  26.6062965  84.4040704  80.6587116
  27.5393638  84.3386266  80.8619992  26.5186178  85.2396971  80.2001649
  23.6551196  79.5082113  98.3295243  24.5754206  79.6860712  98.5235290
  23.6200779  78.5638158  98.1774943  21.9555421  73.3814343  76.8049472
  21.0486876  73.0847456  76.8812185  22.2331402  73.0844161  75.9383758
  12.8733361  74.7020707  87.2548518  12.5536146  73.8486015  86.9622892
  12.3266790  74.9169285  88.0106485  16.6513269  77.4183148  90.9718025
  16.8699279  78.3500255  90.9906058  17.0639043  77.0591122  91.7572828
  21.5241134  72.9916353 100.3620774  21.4237861  73.9410710 100.2932865
  21.3062676  72.6634592  99.4896844  20.7254206  70.2401278  76.9461451
  21.5873370  70.5656177  77.2057268  20.9104550  69.4532774  76.4334517
  12.7421621  78.3223618  89.2241640  12.0485093  77.9077571  88.7111594
  13.4894612  78.3644155  88.6275059  21.3872404  76.4213492  99.1785835
  20.9039486  77.2213852  99.3849724  21.4733343  76.4321437  98.2253279
  14.6558364  78.2541872  87.1007655  14.6329052  78.3529559  86.1489538
  14.9659000  79.1007023  87.4224821  17.3145742  80.3118027  91.2154269
  18.2688995  80.2801969  91.1484201  17.1158265  79.8508651  92.0304495
  17.9045124  78.8819143  93.7825067  18.7238013  79.3763222  93.8059904
  18.1781932  77.9651111  93.7542634  15.6695971  85.8537646  88.2324467
  15.5350438  85.0938047  87.6662465  15.2528033  86.5778546  87.7653256
  26.8054934  81.0374570  77.2401042  27.5090784  81.2424572  77.8558698
  26.0817582  81.6051332  77.5050126  18.8265096  86.7506963  88.4442910
  18.7097481  87.6952396  88.3421600  18.0057543  86.4480525  88.8328709
  13.1580038  73.2157277  94.4817264  13.8038902  72.7056231  94.9704489
  12.9497189  73.9525958  95.0560689  25.6833430  80.2838124  99.9809404
  26.5524590  80.4578777  99.6196039  25.2040182  81.1032541  99.8585134
  19.8519611  87.4035225  91.6598838  20.7546857  87.4358836  91.9765333
  19.6256981  86.4735676  91.6745174  21.6073213  86.1566212  88.3208917
  20.6568844  86.1568073  88.2073289  21.9105699  85.4098946  87.8044951
  17.4977529  70.3624894  98.5792278  18.3608991  70.0061699  98.7895603
  16.9242940  70.0238789  99.2667682  37.3425906  91.9926750  89.3854679
  37.9804316  91.8733498  88.6818019  37.2246749  92.9407594  89.4442631
  34.1515612  91.9454178  89.3216204  33.8134124  91.8295243  88.4336739
  35.0205381  91.5445343  89.3017210  30.0102428  93.7989655  85.3113095
  29.4467293  93.7079592  84.5429382  29.8954823  92.9789559  85.7915587
  34.6335395  93.0989030  95.2802409  34.6224036  92.7041828  94.4082913
  34.7956035  92.3655103  95.8736181  27.5566860  95.2940846  88.1497315
  28.3488152  94.9531671  87.7343614  27.7963510  95.4035821  89.0699468
  35.5901987  97.4660622  80.6227559  34.9389967  98.0514703  80.2361573
  36.3846350  97.9966817  80.6822597  29.5157614  94.5549760  81.0214694
  30.2888490  94.0078747  80.8827570  29.8683013  95.4194009  81.2329155
  31.3542656  95.8826142  94.2281593  31.0632522  96.7871773  94.1128259
  31.9899641  95.9242669  94.9425663  32.2798863  93.2602990  90.8182953
  32.8762436  93.0359013  90.1039916  32.3373835  92.5187736  91.4208401
  37.0677252  95.1551054  81.1596544  36.4323085  95.2285681  81.8717448
  36.7374658  95.7444653  80.4815623  31.5720180  92.6170532  80.8557519
  31.4556439  91.9415435  81.5238603  31.6822440  92.1302906  80.0389672
  33.9151721  92.0780679  84.5604208  33.5509929  91.5511300  85.2717129
  34.7718837  91.6879148  84.3870693  36.3132542  95.5687557  91.2231387
  36.0133265  96.4712596  91.1147194  35.9683601  95.3019741  92.0752540
  29.7645023  92.0201354  87.2568091  28.8395520  91.8877568  87.4645783
  30.0129436  92.7995573  87.7538034  27.1253834  91.6634628  88.0911880
  27.2546215  91.9169107  89.0051292  26.4451285  92.2562336  87.7716535
  31.2953321 102.3331878  84.1902355  31.2177351 103.2839703  84.2690835
  30.6914965 101.9877750  84.8477281  33.7870551  89.5059743  96.8463721
  33.0103885  90.0653663  96.8366586  34.4261114  89.9916526  97.3678592
  32.0416923  92.3145197  96.4081688  32.7831608  92.8530240  96.1316512
  31.3353909  92.9411485  96.5653240  37.5172263  94.4574337  95.0053850
  37.9255619  94.0156748  94.2608482  36.7949525  93.8826965  95.2588043
  33.8703333  89.3946944  92.3787407  34.7164528  89.8186357  92.5222056
  33.8101971  88.7380568  93.0725970  37.8401078  95.0175528  88.7606139
  37.2109940  95.1821242  88.0582207  37.4526740  95.4317137  89.5317103
  41.7190310  95.9529965  86.1150503  41.0341348  96.3328867  85.5647536
  41.8034159  96.5625292  86.8482450  37.0202778  87.0551312  94.0368581
  36.7763710  87.8093373  93.5002856  37.2962709  87.4336660  94.8715828
  38.9741241  93.5989924  92.7145846  39.1858136  94.2421684  92.0380227
  38.9270989  92.7652241  92.2467776  33.3929040  94.7549936  86.0256224
  33.8567385  95.0337639  85.2360846  33.1285838  93.8533380  85.8429315
  30.2853121  94.3021417  88.9635987  30.8554478  94.7308686  88.3253472
  30.8761233  94.0204002  89.6620173  30.7778287  89.4684845  97.2096998
  30.1476948  90.1501126  97.4432395  30.6714375  89.3567926  96.2650137
  26.0723260  89.1356641  88.1362923  25.2822314  89.3914169  87.6603033
  26.5634507  89.9504979  88.2414963  40.0887069  96.4761880  90.8868203
  40.9104513  96.0742067  90.6050885  40.0849472  96.3730114  91.8384319
  28.0238005  89.5001220  85.0946399  27.2269168  89.6119914  85.6129895
  27.7963597  89.8387872  84.2287290  33.8543673  96.0245923  93.0428914
  33.9188105  96.4866330  93.8787086  33.1454596  95.3943288  93.1711224
  24.3560963  89.3887131  90.5677913  24.6069001  90.2734141  90.8335489
  24.8920511  89.2091733  89.7953005  33.5691690  97.6914031  82.9107894
  33.4337365  98.5365566  83.3392742  34.1101503  97.8933308  82.1473828
  30.0559030  83.7705611  99.5722249  29.6625975  83.2171809 100.2469894
  30.8725170  84.0816189  99.9628767  27.0221088  95.2089469  83.4835819
  27.5345608  96.0032719  83.6341384  27.6743800  94.5115759  83.4169421
  28.8315972  98.3255225  85.5658573  29.0082601  99.2473190  85.3779556
  29.6272806  98.0113644  85.9952952  32.9726991  85.1863490  97.1642506
  33.7136704  85.7870643  97.0846969  33.2044914  84.4441127  96.6060549
  28.1168329  90.3719857  95.4420736  28.0021844  89.4705114  95.7427835
  27.2612847  90.6183554  95.0905552  35.1960167  98.3137597  97.0408236
  34.7524021  97.5273976  96.7229141  35.8577380  98.5016748  96.3752127
  29.9547288  99.8433399  91.5668915  30.5054713  99.7150462  90.7945909
  29.1158764 100.1428288  91.2163808  37.2941405  98.5940397  95.0689638
  37.2759880  99.4149278  94.5769907  38.2161325  98.4694472  95.2939779
  33.7514459  96.1084527  95.9113146  34.2842796  95.3472815  95.6812454
  33.2228540  95.8158178  96.6537300  24.9870004  93.5378123  84.2595390
  25.8245226  93.9475131  84.0429098  25.1648272  92.5977565  84.2295584
  36.8834437  91.2053204  79.9479223  36.3681060  91.9757808  80.1867610
  36.6111745  90.5318340  80.5712284  32.2423580  83.6687977  88.4122203
  33.1076577  83.4730786  88.0528092  32.3101089  83.4398329  89.3391559
  41.8568711  93.9585558  81.8832396  41.0798153  93.6196718  81.4387558
  42.5360192  93.9638181  81.2087361  35.1167172  95.2370519  83.4231958
  34.5888533  94.5023279  83.1105195  34.6154674  96.0145195  83.1771926
  40.0960018  93.4319540  88.5399004  39.4383692  94.1218801  88.6279133
  40.9000417  93.8215972  88.8832991  38.9065476  91.7863912  86.5902946
  39.4197358  92.4193904  87.0924656  39.5566700  91.1865108  86.2246306
  33.2619772  93.0550729  76.4266931  32.3546833  92.8239983  76.6258080
  33.7590804  92.2588349  76.6140913  36.1687851 101.7648237  79.3463617
  35.4949549 102.0679933  79.9548575  36.5553673 102.5677317  78.9969074
  35.3846307  89.2613368  88.8361287  34.4668869  89.4828315  88.6782975
  35.8006451  89.3359678  87.9772994  34.4408005  93.1563324  80.9490921
  33.5319224  92.8722357  81.0463391  34.4703089  93.5762403  80.0894228
  39.6727273  96.7669914  84.7182089  39.2189600  95.9260824  84.7747279
  39.0421239  97.4031312  85.0556869  38.1160212  98.6046410  85.6531907
  38.4083186  99.1651468  84.9344272  38.6258832  98.8974971  86.4085066
  25.0096176  90.8768838  84.9306123  24.8120575  90.2838199  84.2057190
  24.4542840  90.5721049  85.6482062  32.9892899  90.7691945  87.0500716
  33.0441509  89.8165781  86.9743193  32.1784101  90.9251384  87.5342015
  34.1384093  94.6972068  78.2879000  33.7003523  93.9807927  77.8284637
  34.8794534  94.9248183  77.7264091  30.9285259  89.3869005  84.8091095
  30.1153125  89.6863175  85.2156287  31.4244253  88.9924693  85.5265578
  33.0793837  99.3826761  86.7425360  33.0370016  99.6087608  85.8133892
  33.9956536  99.1490136  86.8911161  36.5259471  89.8510829  93.6405989
  36.8808859  90.0782302  94.5000455  37.1731602  90.1829206  93.0183245
  42.2557208  92.9729265  84.3455318  42.1175106  93.1630861  83.4176507
  41.8993427  93.7348648  84.8023369  30.4199334  86.9587360  90.4252330
  31.0598713  86.8176119  89.7275294  29.5876864  86.6721873  90.0490932
  42.2826587  95.0405792  89.3566590  42.7163094  94.9481081  90.2049644
  42.9958168  95.0163292  88.7186606  31.1959638  96.2589791  86.5387323
  31.9900236  95.7640111  86.3369898  30.4851330  95.7307654  86.1755028
  36.0154482  98.6407886  90.8899690  36.0691505  99.2098822  91.6577406
  35.1469264  98.8109771  90.5253727  27.5042401  90.4032872  82.6147075
  26.5739989  90.3417328  82.8317038  27.5999873  89.8808825  81.8183717
  27.4227950  86.9287685  85.2025317  27.6834768  87.8433018  85.0934478
  28.2445123  86.4612128  85.3521930  28.8952876  88.3425442  92.3724142
  29.5675929  88.1342804  91.7236791  28.0682662  88.1447528  91.9329374
  43.1442137  95.0829493  91.8899475  43.3378027  95.9875303  92.1358750
  43.0442755  94.6236912  92.7238060  34.7978448  84.9687383  94.3889802
  34.1506363  85.6677333  94.2954279  35.5679463  85.4023527  94.7566051
  38.2057246  95.2336235  97.4640356  38.0542752  95.0046787  96.5470439
  38.1961925  96.1906837  97.4771701  34.9742582  92.8068148  92.4486622
  35.9034642  92.9579308  92.2755590  34.5533612  92.8952169  91.5935269
  33.7730914  96.8318813  90.2185160  33.6342000  96.4637597  91.0911098
  32.9845510  97.3466452  90.0469118  34.3679066 101.9327909  81.5610696
  34.5430821 101.4615952  82.3756319  33.6811854 102.5593675  81.7891957
  35.3236129  96.2100415  87.6073998  34.9885962  96.1701185  88.5031648
  34.8240075  95.5445131  87.1344408  29.2980373  91.6168045  93.1326579
  29.1600171  90.8848284  93.7338118  30.2085296  91.5276945  92.8510767
  38.2595321  93.5556450  77.8811057  37.6424491  92.8303278  77.7844110
  37.7911809  94.3165810  77.5378132  31.9262674  91.3288005  92.6210258
  32.6362292  90.6881197  92.5796877  31.8831982  91.5800899  93.5436439
  39.9149452  98.2655358  95.5416838  39.8561998  97.5814578  94.8747421
  40.3168971  99.0074348  95.0897464  30.6391608  88.3153222  94.4405898
  30.1028965  87.8643961  95.0927494  30.0508316  88.4499131  93.6976362
  28.9340151 105.0817272  88.3350557  29.1736749 105.7135796  89.0129575
  28.0909348 104.7305312  88.6215916  39.9166860  96.2294942  93.7730817
  39.0293638  95.8920864  93.8957216  40.4865411  95.4977973  94.0099583
  21.5696007  92.5619034  87.0973869  22.2567046  92.2480764  86.5094884
  21.4144135  93.4660398  86.8241120  26.3730729  87.4509230  91.5258892
  26.2888918  86.8434900  90.7909302  25.5513435  87.9418248  91.5268389
  33.4468013 100.8896394  90.7392061  33.3738184 101.6951366  91.2511365
  33.0045406 101.0888360  89.9140082  33.2357793 100.1268164  84.2494882
  32.4525314 100.6689844  84.3433107  33.9350538 100.6442144  84.6489123
  35.9066696 100.7883228  92.8950219  36.6194669 101.4230693  92.8226121
  35.4156725 100.8847094  92.0790221  37.6284223  94.6934481  84.4667511
  36.6940502  94.8135943  84.2972215  37.8060892  93.7906948  84.2027521
  33.1289411  88.0780177  86.6200772  32.7587199  87.5251217  87.3081678
  33.6248504  87.4738310  86.0675772  30.9578610  98.5377672  93.7155790
  31.6588069  99.1714155  93.8685184  30.4873725  98.8792403  92.9551429
  39.0833006  96.8795621  82.0003697  39.3592850  96.7652216  82.9097571
  38.2137505  96.4813106  81.9615870  38.7579896  91.0922279  91.5408340
  38.1051346  91.3398187  90.8860793  39.1360276  90.2786417  91.2070818
  35.7187070 101.1281972  85.6436511  35.9009464 100.3103628  86.1064263
  36.5420056 101.3449665  85.2061401  36.0529235 100.0550157  82.9051559
  36.5817002  99.5442612  82.2921721  36.3157455  99.7392688  83.7697092
  34.8067469  91.8342090  98.0274377  34.1308106  91.7336220  98.6976753
  35.6295103  91.6781304  98.4910375  26.5546328  98.0714027  90.6486893
  27.1399765  97.3257715  90.7814797  26.3571167  98.3817983  91.5323557
  29.4084983 101.1065274  85.6649335  28.7395359 101.5911402  85.1813375
  29.2697853 101.3534495  86.5792714  21.1463983  90.6419627  89.3691336
  21.1848082  90.1083218  90.1628454  20.6404276  90.1154832  88.7502313
  33.5490252 103.1409018  92.2631993  34.1008560 103.3040639  93.0281079
  33.8896445 103.7313455  91.5912018  28.5254745  85.4884167  92.8653878
  28.5896072  86.3498998  92.4531276  28.4621865  84.8758169  92.1326237
  28.0007018  87.5607300  96.5126912  28.6279056  87.1784377  97.1264437
  27.1434936  87.3421502  96.8782605  38.4001126  97.9670275  98.1180648
  38.9441030  98.5800233  97.6235603  37.8187971  98.5249854  98.6347661
  24.7772560  89.3683729  82.4445267  25.0726001  88.4594407  82.3912321
  23.8760596  89.3471469  82.1226270  36.6858639 101.0890993  89.2495676
  36.5609779 100.2880733  88.7406621  37.3437730 101.5837187  88.7609646
  28.3066807  87.4439726  88.4272816  27.5853393  88.0575693  88.2880289
  29.0960063  87.9797490  88.3489462  38.7493548  98.8900013  90.8775226
  37.8023883  98.7705364  90.8053552  39.0976321  98.0022511  90.9601487
  31.1093121  84.7794152  94.7013468  31.6327523  85.0256449  95.4639777
  30.8905454  85.6114187  94.2816605  26.5060402  87.0497827  82.5684592
  26.1773108  86.1695206  82.3859698  26.8599773  86.9945495  83.4560982
  35.7539981  98.6852729  87.0779578  35.6064943  97.7569437  87.2587148
  36.5793474  98.7072820  86.5936653  39.3574103  99.5081288  88.1644451
  40.2820650  99.3024150  88.0268902  39.1889406  99.2597689  89.0733792
  32.3145666  85.7207847  92.3863138  31.9742486  84.9215660  92.7883818
  31.6084672  86.0209558  91.8139971  32.9662138  82.8057160  90.8390461
  33.7888207  82.3317638  90.7169351  33.2100201  83.5847643  91.3389147
  30.4900717  89.4976280  88.6482440  30.3445297  89.8116583  89.5406721
  30.0125920  90.1161181  88.0953338  32.3497099  86.4878828  88.6963329
  32.3358668  85.5919922  88.3595627  33.0669528  86.4949492  89.3301615
  34.2023230  86.9216169  90.7416457  33.9441008  87.8433239  90.7400787
  33.6708270  86.5246603  91.4316921  39.1469419 100.0266956  83.5206542
  39.3206296  99.4613378  82.7680395  39.6398310 100.8267851  83.3386032
  24.9646379  92.0381625  91.5870101  24.4199847  92.8141433  91.7190375
  25.8425729  92.3852429  91.4289222  40.1344591  99.3433720  80.6203440
  40.8295496  99.9640413  80.8390755  40.4767742  98.4929071  80.8955818
  25.7512401  91.1651521  94.4800258  25.0094137  91.3134156  95.0664888
  25.4305145  91.4259787  93.6167007  42.0336014  96.7933426  82.1490771
  42.5587339  97.1320698  81.4240091  41.9458367  95.8580441  81.9653906
  33.6956063 100.7067499  94.2780648  34.0043190 100.4616646  95.1503347
  34.4931545 100.9114138  93.7899518  33.7176675 102.8605409  86.5086024
  33.2781666 102.3681788  87.2018881  34.4684792 102.3178377  86.2678100
  26.1969014  99.0516950  86.5110652  27.0227034  98.7520722  86.1309296
  25.8463066  98.2824572  86.9600441  31.1650547  98.4043418  88.5808326
  30.5430557  97.7414123  88.2810554  31.8355414  98.4304550  87.8981974
  24.3977619  96.9703276  87.4699586  23.5609528  96.5425451  87.2883587
  24.3701265  97.1635720  88.4070377  31.2375075  86.8825206  98.1740832
  31.2863230  87.7587329  97.7918602  31.7797589  86.3402599  97.6012475
  41.7229921  97.4266329  97.4541969  40.9325464  97.4090468  96.9146469
  41.4863275  97.9654623  98.2091006  41.8427796  94.2758796  94.7674698
  41.8925801  94.1108803  95.7090220  41.7341719  93.4086055  94.3772578
  30.7264054  96.9547341  82.0566787  30.8752175  97.6382806  81.4033459
  31.5330498  96.9352431  82.5716242  39.1331558  90.2589724  96.0834004
  40.0341421  90.1196188  95.7918002  39.2079533  90.4244178  97.0232182
  33.4674363  87.6356578  94.9287191  32.5977673  87.9290144  94.6569779
  33.7033844  88.2197023  95.6494454  43.3445992  96.6955737  95.0116719
  43.0530801  97.0585718  95.8480180  42.7318124  95.9822745  94.8330051
  44.5441675  94.2608617  87.5319289  45.3788566  94.6998421  87.6956850
  44.6800804  93.7847270  86.7127535  41.5933181  91.8188352  93.4796777
  42.0687302  92.0115998  92.6715629  40.6698746  91.8747538  93.2340161
  28.4816687  92.9812519  83.0627855  28.2362729  92.0774849  83.2608066
  28.6512602  92.9829669  82.1207333  36.1713397  83.8536195  92.4452611
  36.6895341  84.5897222  92.1199100  35.8168530  84.1600189  93.2799370
  27.7512335  88.7140876  80.5614017  27.0581580  88.7885231  79.9054053
  27.5064087  87.9501220  81.0835534  34.2259460  99.4495472  79.5278534
  33.6533427 100.0685659  79.0749006  34.7992253  99.9994833  80.0618456
  37.4456720  99.7332622  80.6587116  38.3787393  99.6678184  80.8619992
  37.3579932 100.5688889  80.2001649  40.0744736  99.0498492  77.6191064
  39.9958368  98.7158356  78.5126822  40.8954403  99.5420260  77.6182536
  42.7722927  91.9160232  90.8267382  42.7399248  90.9776232  91.0127066
  43.3823551  91.9944268  90.0933207  34.6106258  90.7856284  76.8694586
  35.5565363  90.6562493  76.9383005  34.2320503  90.0470946  77.3464015
  34.4944951  94.8374031  98.3295243  35.4147960  95.0152630  98.5235290
  34.4594534  93.8930076  98.1774943  23.7127116  90.0312624  87.2548518
  23.3929900  89.1777932  86.9622892  23.1660544  90.2461202  88.0106485
  27.4907023  92.7475065  90.9718025  27.7093033  93.6792173  90.9906058
  27.9032797  92.3883040  91.7572828  32.3634889  88.3208271 100.3620774
  32.2631616  89.2702628 100.2932865  32.1456431  87.9926510  99.4896844
  23.5815376  93.6515536  89.2241640  22.8878847  93.2369489  88.7111594
  24.3288367  93.6936072  88.6275059  32.2266159  91.7505410  99.1785835
  31.7433240  92.5505770  99.3849724  32.3127098  91.7613355  98.2253279
  25.4952118  93.5833790  87.1007655  25.4722806  93.6821477  86.1489538
  25.8052755  94.4298940  87.4224821  28.1539496  95.6409945  91.2154269
  29.1082750  95.6093887  91.1484201  27.9552020  95.1800568  92.0304495
  28.7438878  94.2111061  93.7825067  29.5631767  94.7055139  93.8059904
  29.0175686  93.2943029  93.7542634  26.5089725 101.1829564  88.2324467
  26.3744193 100.4229965  87.6662465  26.0921787 101.9070464  87.7653256
  37.6448688  96.3666488  77.2401042  38.3484538  96.5716490  77.8558698
  36.9211337  96.9343249  77.5050126  38.4746498  92.1176349  83.3603312
  38.4181700  92.5744900  82.5210945  39.0274841  91.3567033  83.1826155
  29.6658851 102.0798881  88.4442910  29.5491235 103.0244314  88.3421600
  28.8451297 101.7772443  88.8328709  39.5535385  96.8049017  79.2899502
  40.3880989  96.3730215  79.1076977  39.3919728  96.6331030  80.2176397
  39.2081278  93.3081130  80.6555842  39.1530081  93.1425402  79.7144286
  38.5827333  94.0157163  80.8118031  23.9973793  88.5449194  94.4817264
  24.6432656  88.0348148  94.9704489  23.7890944  89.2817876  95.0560689
  36.5227185  95.6130042  99.9809404  37.3918344  95.7870694  99.6196039
  36.0433936  96.4324459  99.8585134  30.6913365 102.7327143  91.6598838
  31.5940612 102.7650753  91.9765333  30.4650735 101.8027594  91.6745174
  32.4466967 101.4858130  88.3208917  31.4962598 101.4859991  88.2073289
  32.7499453 100.7390864  87.8044951  28.3371284  85.6916812  98.5792278
  29.2002745  85.3353616  98.7895603  27.7636694  85.3530706  99.2667682
  48.1819661 107.3218668  89.3854679  48.8198071 107.2025415  88.6818019
  48.0640503 108.2699512  89.4442631  44.9909367 107.2746096  89.3216204
  44.6527878 107.1587161  88.4336739  45.8599135 106.8737261  89.3017210
  40.8496183 109.1281572  85.3113095  40.2861048 109.0371509  84.5429382
  40.7348578 108.3081477  85.7915587  45.4729150 108.4280948  95.2802409
  45.4617791 108.0333746  94.4082913  45.6349789 107.6947020  95.8736181
  38.3960614 110.6232764  88.1497315  39.1881906 110.2823589  87.7343614
  38.6357265 110.7327739  89.0699468  46.4295741 112.7952540  80.6227559
  45.7783721 113.3806621  80.2361573  47.2240104 113.3258735  80.6822597
  40.3551368 109.8841677  81.0214694  41.1282244 109.3370664  80.8827570
  40.7076767 110.7485927  81.2329155  42.1936411 111.2118060  94.2281593
  41.9026277 112.1163690  94.1128259  42.8293395 111.2534587  94.9425663
  43.1192618 108.5894908  90.8182953  43.7156190 108.3650930  90.1039916
  43.1767589 107.8479654  91.4208401  42.6917646 106.0434343  78.6533144
  42.9443167 105.5215865  77.8916607  41.7542205 105.8800489  78.7559827
  47.7360929 105.0470122  86.4607887  48.5224018 104.6289545  86.1098304
  47.9999633 105.9516214  86.6289535  47.9071006 110.4842972  81.1596544
  47.2716839 110.5577599  81.8717448  47.5768413 111.0736571  80.4815623
  53.1369356 104.9845355  87.3640866  53.8694528 104.4144572  87.5978695
  52.3808712 104.5966955  87.8047371  42.4113935 107.9462449  80.8557519
  42.2950193 107.2707353  81.5238603  42.5216195 107.4594823  80.0389672
  44.7545476 107.4072596  84.5604208  44.3903683 106.8803217  85.2717129
  45.6112592 107.0171066  84.3870693  50.6594777  98.6966929  91.8235474
  50.3278101  99.5662340  91.5996689  50.0640390  98.3803213  92.5029504
  44.3950963 102.4362496  79.5565556  44.5625365 103.3042733  79.9236028
  44.2048132 102.5989778  78.6326846  47.1526296 110.8979475  91.2231387
  46.8527019 111.8004514  91.1147194  46.8077356 110.6311658  92.0752540
  40.6038778 107.3493272  87.2568091  39.6789274 107.2169486  87.4645783
  40.8523191 108.1287491  87.7538034  50.5523440 103.4162015  88.9028824
  49.6440317 103.3477424  88.6087585  50.5011036 103.8933960  89.7310650
  44.3740184 104.8920154  80.5412223  44.2539809 105.3377204  81.3797704
  43.6792772 105.2405471  79.9825761  37.9647589 106.9926545  88.0911880
  38.0939970 107.2461024  89.0051292  37.2845040 107.5854253  87.7716535
  42.1347076 117.6623795  84.1902355  42.0571106 118.6131620  84.2690835
  41.5308719 117.3169668  84.8477281  44.6264306 104.8351661  96.8463721
  43.8497640 105.3945581  96.8366586  45.2654869 105.3208444  97.3678592
  52.4185086 101.6178454  90.6806698  51.7759466 101.9110987  90.0346493
  51.9140015 101.5031374  91.4859895  50.0725250 105.3641627  81.3692557
  50.9843106 105.5969014  81.1940255  49.5634897 105.9478671  80.8067636
  42.8810678 107.6437114  96.4081688  43.6225362 108.1822158  96.1316512
  42.1747663 108.2703403  96.5653240  48.3566018 109.7866255  95.0053850
  48.7649374 109.3448665  94.2608482  47.6343279 109.2118882  95.2588043
  44.7097088 104.7238861  92.3787407  45.5558283 105.1478275  92.5222056
  44.6495725 104.0672486  93.0725970  48.6794832 110.3467445  88.7606139
  48.0503695 110.5113159  88.0582207  48.2920494 110.7609055  89.5317103
  52.5584064 111.2821883  86.1150503  51.8735102 111.6620784  85.5647536
  52.6427913 111.8917210  86.8482450  47.8596533 102.3843230  94.0368581
  47.6157465 103.1385290  93.5002856  48.1356463 102.7628577  94.8715828
  49.8134996 108.9281842  92.7145846  50.0251891 109.5713602  92.0380227
  49.7664744 108.0944159  92.2467776  47.4161225 101.5399663  89.6182418
  46.5545704 101.8380916  89.9099156  47.4423659 101.7570062  88.6863451
  44.2322794 110.0841853  86.0256224  44.6961140 110.3629556  85.2360846
  43.9679592 109.1825298  85.8429315  41.1246875 109.6313335  88.9635987
  41.6948232 110.0600603  88.3253472  41.7154987 109.3495920  89.6620173
  43.1691680 106.2065006  82.8345789  43.8715723 106.6586049  83.3019715
  42.8372309 105.5648825  83.4625682  41.6172042 104.7976762  97.2096998
  40.9870702 105.4793043  97.4432395  41.5108130 104.6859844  96.2650137
  36.9117014 104.4648558  88.1362923  36.1216068 104.7206087  87.6603033
  37.4028261 105.2796896  88.2414963  50.9280824 111.8053798  90.8868203
  51.7498267 111.4033985  90.6050885  50.9243227 111.7022032  91.8384319
  38.8631759 104.8293138  85.0946399  38.0662923 104.9411832  85.6129895
  38.6357352 105.1679790  84.2287290  44.6937427 111.3537841  93.0428914
  44.7581860 111.8158248  93.8787086  43.9848351 110.7235206  93.1711224
  35.1954717 104.7179049  90.5677913  35.4462756 105.6026059  90.8335489
  35.7314265 104.5383650  89.7953005  59.0186817 108.1492546  87.2353175
  58.2650525 107.5799944  87.0797179  59.1534358 108.1155211  88.1823810
  44.4085445 113.0205948  82.9107894  44.2731120 113.8657484  83.3392742
  44.9495257 113.2225226  82.1473828  40.8952784  99.0997528  99.5722249
  40.5019730  98.5463727 100.2469894  41.7118925  99.4108107  99.9628767
  37.8614842 110.5381386  83.4835819  38.3739363 111.3324637  83.6341384
  38.5137555 109.8407677  83.4169421  39.6709727 113.6547143  85.5658573
  39.8476355 114.5765107  85.3779556  40.4666560 113.3405562  85.9952952
  43.8120745 100.5155407  97.1642506  44.5530459 101.1162560  97.0846969
  44.0438668  99.7733045  96.6060549  38.9562083 105.7011775  95.4420736
  38.8415599 104.7997032  95.7427835  38.1006601 105.9475471  95.0905552
  46.0353921 113.6429515  97.0408236  45.5917775 112.8565893  96.7229141
  46.6971135 113.8308665  96.3752127  40.7941042 115.1725316  91.5668915
  41.3448467 115.0442380  90.7945909  39.9552518 115.4720205  91.2163808
  48.1335159 113.9232315  95.0689638  48.1153635 114.7441196  94.5769907
  49.0555079 113.7986390  95.2939779  44.5908213 111.4376444  95.9113146
  45.1236550 110.6764732  95.6812454  44.0622294 111.1450096  96.6537300
  47.7577908  96.5436510  91.4406788  47.4142178  97.4338152  91.3645898
  48.1256871  96.3538168  90.5776373  35.8263759 108.8670041  84.2595390
  36.6638981 109.2767049  84.0429098  36.0042027 107.9269483  84.2295584
  47.7228191 106.5345121  79.9479223  47.2074814 107.3049726  80.1867610
  47.4505499 105.8610258  80.5712284  45.3075302 101.3794822  85.0064461
  44.4516898 100.9901673  84.8270100  45.7202254 101.4586783  84.1464247
  46.8374449  98.9141165  89.4056021  46.3339244  98.8771301  88.5923826
  47.1305056  99.8233908  89.4652678  43.0817335  98.9979895  88.4122203
  43.9470331  98.8022704  88.0528092  43.1494844  98.7690247  89.3391559
  52.6962465 109.2877476  81.8832396  51.9191908 108.9488635  81.4387558
  53.3753946 109.2930099  81.2087361  47.5114494 104.4072213  81.7739004
  47.2064630 104.7218363  82.6249147  48.4644936 104.4853633  81.8166337
  45.9560926 110.5662437  83.4231958  45.4282288 109.8315196  83.1105195
  45.4548429 111.3437113  83.1771926  50.9353772 108.7611457  88.5399004
  50.2777447 109.4510719  88.6279133  51.7394171 109.1507889  88.8832991
  40.6879654 101.2282103  85.7838570  41.2623406 101.0057285  85.0511762
  41.2750636 101.2970798  86.5367171  49.7459231 107.1155830  86.5902946
  50.2591113 107.7485822  87.0924656  50.3960455 106.5157025  86.2246306
  41.0149241 103.2586564  79.8034455  40.1786553 103.5961251  80.1243730
  40.8754010 103.1235544  78.8661592  42.9902321  98.1023352  84.5113639
  42.3366734  97.7872369  83.8870254  42.9482796  97.4799092  85.2373462
  44.1013526 108.3842647  76.4266931  43.1940588 108.1531900  76.6258080
  44.5984558 107.5880266  76.6140913  47.0081605 117.0940154  79.3463617
  46.3343304 117.3971851  79.9548575  47.3947427 117.8969235  78.9969074
  46.2240062 104.5905285  88.8361287  45.3062623 104.8120233  88.6782975
  46.6400205 104.6651596  87.9772994  47.0075110 105.9896701  83.9663967
  47.7546928 106.5018098  83.6571089  47.2766699 105.6680754  84.8268360
  45.2801760 108.4855242  80.9490921  44.3712979 108.2014275  81.0463391
  45.3096843 108.9054320  80.0894228  50.5121027 112.0961831  84.7182089
  50.0583354 111.2552741  84.7747279  49.8814994 112.7323230  85.0556869
  49.4553947 103.0253817  85.9482756  48.7176703 102.5131204  86.2792999
  49.7080720 102.5854199  85.1366033  48.9553966 113.9338328  85.6531907
  49.2476941 114.4943385  84.9344272  49.4652587 114.2266889  86.4085066
  49.5565574  95.8030069  86.5424525  49.8624451  94.9427433  86.2550440
  50.2818179  96.3947690  86.3423519  35.8489930 106.2060756  84.9306123
  35.6514330 105.6130117  84.2057190  35.2936594 105.9012966  85.6482062
  43.8286654 106.0983862  87.0500716  43.8835264 105.1457699  86.9743193
  43.0177856 106.2543302  87.5342015  44.9777847 110.0263986  78.2879000
  44.5397277 109.3099844  77.8284637  45.7188288 110.2540100  77.7264091
  41.7679014 104.7160922  84.8091095  40.9546879 105.0155093  85.2156287
  42.2638008 104.3216611  85.5265578  43.9187592 114.7118679  86.7425360
  43.8763770 114.9379525  85.8133892  44.8350290 114.4782054  86.8911161
  47.3653225 105.1802747  93.6405989  47.7202613 105.4074220  94.5000455
  48.0125357 105.5121124  93.0183245  53.0950962 108.3021183  84.3455318
  52.9568861 108.4922779  83.4176507  52.7387181 109.0640565  84.8023369
  41.2593088 102.2879278  90.4252330  41.8992468 102.1468037  89.7275294
  40.4270619 102.0013791  90.0490932  53.1220342 110.3697710  89.3566590
  53.5556849 110.2772999  90.2049644  53.8351923 110.3455210  88.7186606
  42.0353392 111.5881708  86.5387323  42.8293991 111.0932028  86.3369898
  41.3245085 111.0599571  86.1755028  46.8548237 113.9699804  90.8899690
  46.9085259 114.5390740  91.6577406  45.9863018 114.1401689  90.5253727
  38.3436156 105.7324790  82.6147075  37.4133744 105.6709245  82.8317038
  38.4393628 105.2100743  81.8183717  38.2621705 102.2579603  85.2025317
  38.5228522 103.1724936  85.0934478  39.0838877 101.7904045  85.3521930
  39.7346630 103.6717360  92.3724142  40.4069684 103.4634722  91.7236791
  38.9076417 103.4739446  91.9329374  53.9835891 110.4121410  91.8899475
  54.1771782 111.3167221  92.1358750  53.8836510 109.9528829  92.7238060
  45.6372202 100.2979301  94.3889802  44.9900117 100.9969251  94.2954279
  46.4073218 100.7315445  94.7566051  49.0451000 110.5628153  97.4640356
  48.8936507 110.3338705  96.5470439  49.0355680 111.5198754  97.4771701
  45.8136337 108.1360066  92.4486622  46.7428397 108.2871225  92.2755590
  45.3927367 108.2244087  91.5935269  44.6124668 112.1610730  90.2185160
  44.4735754 111.7929515  91.0911098  43.8239265 112.6758370  90.0469118
  45.2072820 117.2619827  81.5610696  45.3824576 116.7907870  82.3756319
  44.5205608 117.8885593  81.7891957  46.1629883 111.5392333  87.6073998
  45.8279716 111.4993103  88.5031648  45.6633829 110.8737049  87.1344408
  40.1374127 106.9459963  93.1326579  39.9993925 106.2140202  93.7338118
  41.0479051 106.8568863  92.8510767  49.0989075 108.8848367  77.8811057
  48.4818246 108.1595195  77.7844110  48.6305564 109.6457727  77.5378132
  42.7656428 106.6579922  92.6210258  43.4756047 106.0173114  92.5796877
  42.7225736 106.9092817  93.5436439  50.7543207 113.5947276  95.5416838
  50.6955753 112.9106496  94.8747421  51.1562725 114.3366266  95.0897464
  41.4785362 103.6445140  94.4405898  40.9422719 103.1935879  95.0927494
  40.8902071 103.7791049  93.6976362  40.8887621 103.1033792  77.0032362
  40.0117087 102.9822592  76.6394608  41.3645374 102.3119870  76.7511250
  50.7560614 111.5586860  93.7730817  49.8687393 111.2212781  93.8957216
  51.3259165 110.8269891  94.0099583  32.4089761 107.8910951  87.0973869
  33.0960801 107.5772681  86.5094884  32.2537890 108.7952316  86.8241120
  37.2124483 102.7801148  91.5258892  37.1282672 102.1726817  90.7909302
  36.3907190 103.2710166  91.5268389  44.2861767 116.2188312  90.7392061
  44.2131939 117.0243283  91.2511365  43.8439161 116.4180278  89.9140082
  44.0751547 115.4560082  84.2494882  43.2919069 115.9981762  84.3433107
  44.7744292 115.9734062  84.6489123  47.3848197 101.2654711  86.8929087
  47.8816897 100.5124674  86.5730158  46.6135179 101.3019028  86.3272297
  55.2377955 106.9695077  88.5347379  55.2267831 107.8519792  88.1641312
  54.3695334 106.6166628  88.3401916  46.7460451 116.1175146  92.8950219
  47.4588423 116.7522611  92.8226121  46.2550480 116.2139012  92.0790221
  48.4677978 110.0226399  84.4667511  47.5334257 110.1427861  84.2972215
  48.6454646 109.1198865  84.2027521  43.9683166 103.4072094  86.6200772
  43.5980953 102.8543135  87.3081678  44.4642258 102.8030228  86.0675772
  51.8550529 105.8643718  85.0017545  52.3210981 106.6971709  84.9277848
  52.3058030 105.3988699  85.7062803  41.7972364 113.8669589  93.7155790
  42.4981824 114.5006072  93.8685184  41.3267479 114.2084321  92.9551429
  49.9226760 112.2087539  82.0003697  50.1986604 112.0944134  82.9097571
  49.0531259 111.8105024  81.9615870  49.8267192  98.2324305  89.0408446
  48.9130272  98.4628532  89.2090653  50.2560293  98.3162749  89.8922479
  49.5973650 106.4214197  91.5408340  48.9445101 106.6690104  90.8860793
  49.9754030 105.6078335  91.2070818  46.5580824 116.4573890  85.6436511
  46.7403219 115.6395546  86.1064263  47.3813810 116.6741582  85.2061401
  46.8922990 115.3842075  82.9051559  47.4210756 114.8734530  82.2921721
  47.1551209 115.0684605  83.7697092  45.6461223 107.1634008  98.0274377
  44.9701860 107.0628137  98.6976753  46.4688857 107.0073222  98.4910375
  37.3940083 113.4005944  90.6486893  37.9793519 112.6549632  90.7814797
  37.1964921 113.7109901  91.5323557  40.2478738 116.4357192  85.6649335
  39.5789113 116.9203319  85.1813375  40.1091607 116.6826412  86.5792714
  31.9857737 105.9711545  89.3691336  32.0241837 105.4375135  90.1628454
  31.4798030 105.4446750  88.7502313  44.3884006 118.4700935  92.2631993
  44.9402314 118.6332557  93.0281079  44.7290200 119.0605373  91.5912018
  39.3648500 100.8176085  92.8653878  39.4289826 101.6790916  92.4531276
  39.3015620 100.2050087  92.1326237  38.8400772 102.8899218  96.5126912
  39.4672811 102.5076295  97.1264437  37.9828691 102.6713420  96.8782605
  49.2394881 113.2962193  98.1180648  49.7834785 113.9092151  97.6235603
  48.6581726 113.8541771  98.6347661  35.6166315 104.6975647  82.4445267
  35.9119756 103.7886325  82.3912321  34.7154351 104.6763386  82.1226270
  47.5252394 116.4182911  89.2495676  47.4003533 115.6172651  88.7406621
  48.1831485 116.9129104  88.7609646  39.1460562 102.7731643  88.4272816
  38.4247148 103.3867611  88.2880289  39.9353818 103.3089408  88.3489462
  49.5887302 114.2191931  90.8775226  48.6417638 114.0997282  90.8053552
  49.9370075 113.3314429  90.9601487  41.9486875 100.1086070  94.7013468
  42.4721277 100.3548366  95.4639777  41.7299209 100.9406105  94.2816605
  37.3454156 102.3789744  82.5684592  37.0166863 101.4987123  82.3859698
  37.6993527 102.3237413  83.4560982  46.5933735 114.0144647  87.0779578
  46.4458698 113.0861355  87.2587148  47.4187229 114.0364738  86.5936653
  40.4595980 102.6662714  82.9360070  40.7992052 103.1948635  82.2138678
  40.9068100 103.0043120  83.7118637  50.1967857 114.8373206  88.1644451
  51.1214405 114.6316067  88.0268902  50.0283161 114.5889607  89.0733792
  43.1539420 101.0499765  92.3863138  42.8136241 100.2507578  92.7883818
  42.4478427 101.3501476  91.8139971  43.8055892  98.1349077  90.8390461
  44.6281962  97.6609556  90.7169351  44.0493956  98.9139561  91.3389147
  42.4464127 101.1637336  81.1353363  43.1672489 101.5418589  80.6317080
  41.8229431 101.8826213  81.2388341  46.5895250 101.8682485  82.0711695
  46.8058864 102.7507123  81.7700523  46.1089317 101.4768698  81.3417337
  41.3294471 104.8268198  88.6482440  41.1839052 105.1408501  89.5406721
  40.8519675 105.4453098  88.0953338  43.1890854 101.8170746  88.6963329
  43.1752423 100.9211839  88.3595627  43.9063282 101.8241410  89.3301615
  45.0416985 102.2508086  90.7416457  44.7834762 103.1725157  90.7400787
  44.5102025 101.8538521  91.4316921  49.9863173 115.3558873  83.5206542
  50.1600051 114.7905296  82.7680395  50.4792065 116.1559768  83.3386032
  35.8040133 107.3673542  91.5870101  35.2593601 108.1433350  91.7190375
  36.6819483 107.7144347  91.4289222  42.5927750 100.6985126  83.9650899
  42.7143661  99.7701772  84.1641787  42.3029792 100.7123812  83.0529215
  45.4618940  98.3840037  87.1017619  45.4840637  98.4479370  86.1469599
  45.8786999  97.5444545  87.2958125  55.8402565 108.1195296  85.1396842
  56.2833711 107.3702621  84.7415965  54.9629075 108.1105433  84.7570574
  50.9738346 114.6725638  80.6203440  51.6689250 115.2932330  80.8390755
  51.3161496 113.8220989  80.8955818  36.5906155 106.4943439  94.4800258
  35.8487891 106.6426074  95.0664888  36.2698899 106.7551704  93.6167007
  52.8729769 112.1225343  82.1490771  53.3981093 112.4612616  81.4240091
  52.7852122 111.1872359  81.9653906  44.5349818 116.0359417  94.2780648
  44.8436944 115.7908564  95.1503347  45.3325300 116.2406055  93.7899518
  44.5570430 118.1897327  86.5086024  44.1175420 117.6973705  87.2018881
  45.3078547 117.6470294  86.2678100  37.0362769 114.3808867  86.5110652
  37.8620789 114.0812639  86.1309296  36.6856821 113.6116490  86.9600441
  42.0044302 113.7335336  88.5808326  41.3824311 113.0706041  88.2810554
  42.6749169 113.7596468  87.8981974  35.2371374 112.2995194  87.4699586
  34.4003282 111.8717368  87.2883587  35.2095019 112.4927637  88.4070377
  42.0768829 102.2117124  98.1740832  42.1256985 103.0879246  97.7918602
  42.6191344 101.6694517  97.6012475  52.5623675 112.7558247  97.4541969
  51.7719219 112.7382386  96.9146469  52.3257030 113.2946541  98.2091006
  52.6821550 109.6050713  94.7674698  52.7319555 109.4400721  95.7090220
  52.5735473 108.7377972  94.3772578  41.5657809 112.2839259  82.0566787
  41.7145929 112.9674723  81.4033459  42.3724252 112.2644349  82.5716242
  49.9725312 105.5881641  96.0834004  50.8735175 105.4488106  95.7918002
  50.0473287 105.7536096  97.0232182  44.3068118 102.9648496  94.9287191
  43.4371427 103.2582062  94.6569779  44.5427598 103.5488941  95.6494454
  54.1839747 112.0247655  95.0116719  53.8924555 112.3877635  95.8480180
  53.5711878 111.3114663  94.8330051  55.3835429 109.5900535  87.5319289
  56.2182321 110.0290339  87.6956850  55.5194558 109.1139188  86.7127535
  52.4326935 107.1480269  93.4796777  52.9081057 107.3407916  92.6715629
  51.5092501 107.2039455  93.2340161  39.3210442 108.3104437  83.0627855
  39.0756484 107.4066767  83.2608066  39.4906356 108.3121587  82.1207333
  47.0107152  99.1828113  92.4452611  47.5289096  99.9189140  92.1199100
  46.6562284  99.4892106  93.2799370  38.5906089 104.0432794  80.5614017
  37.8975334 104.1177149  79.9054053  38.3457841 103.2793138  81.0835534
  47.2619746  95.6028396  87.9653508  47.5421500  94.9351585  88.5913934
  48.0470353  95.7957491  87.4528172  45.0653214 114.7787389  79.5278534
  44.4927181 115.3977577  79.0749006  45.6386008 115.3286751  80.0618456
  51.1328604 104.0246029  91.7125083  52.0846027 104.1244127  91.7337307
  50.9632055 103.2324298  92.2223167  49.1542984 101.1101613  91.8984484
  48.5592916 101.3906625  91.2030972  48.8692680 101.5995514  92.6701225
  48.2850474 115.0624540  80.6587116  49.2181147 114.9970101  80.8619992
  48.1973687 115.8980806  80.2001649  50.9138491 114.3790410  77.6191064
  50.8352122 114.0450273  78.5126822  51.7348158 114.8712178  77.6182536
  53.6116682 107.2452149  90.8267382  53.5793002 106.3068150  91.0127066
  54.2217306 107.3236186  90.0933207  45.4500013 106.1148202  76.8694586
  46.3959118 105.9854410  76.9383005  45.0714258 105.3762864  77.3464015
  53.7611170 104.0363193  90.8725666  53.2450219 103.2521649  90.6855594
  54.6451119 103.7081909  91.0372185  51.4221897  97.7804208  86.8321478
  51.2246718  97.4719296  87.7164810  52.0321603  98.5065847  86.9619408
  59.4293232 108.3068156  89.9673419  60.1596620 108.0453444  90.5281123
  58.8200177 107.5696878  90.0075487  57.5108529 106.4476019  90.5647870
  56.7841692 106.3131984  89.9564362  57.0955816 106.7552847  91.3704588
  45.3338705 110.1665948  98.3295243  46.2541715 110.3444547  98.5235290
  45.2988288 109.2221994  98.1774943  43.6342930 104.0398179  76.8049472
  42.7274385 103.7431291  76.8812185  43.9118911 103.7427997  75.9383758
  34.5520870 105.3604542  87.2548518  34.2323655 104.5069850  86.9622892
  34.0054299 105.5753120  88.0106485  38.3300778 108.0766983  90.9718025
  38.5486788 109.0084091  90.9906058  38.7426552 107.7174957  91.7572828
  45.2504996  98.5835068  82.9593713  44.4405724  98.2382153  83.3348959
  45.9389413  98.2742612  83.5481325  47.1795544  97.6613115  84.5818010
  47.7326583  98.0808568  85.2408033  47.4165630  96.7348863  84.6240966
  43.2028643 103.6500189 100.3620774  43.1025370 104.5994546 100.2932865
  42.9850185 103.3218428  99.4896844  42.4041715 100.8985114  76.9461451
  43.2660879 101.2240012  77.2057268  42.5892059 100.1116610  76.4334517
  34.4209130 108.9807453  89.2241640  33.7272602 108.5661406  88.7111594
  35.1682121 109.0227990  88.6275059  50.5574351  99.7713640  84.0896674
  49.9773020 100.4298444  83.7074726  50.2910284  98.9490985  83.6784091
  49.0077917  99.1718698  86.2917994  49.5077696  99.2835232  85.4832313
  49.6513525  98.8679751  86.9318803  43.0659913 107.0797328  99.1785835
  42.5826995 107.8797688  99.3849724  43.1520852 107.0905272  98.2253279
  36.3345873 108.9125707  87.1007655  36.3116561 109.0113395  86.1489538
  36.6446509 109.7590858  87.4224821  38.9933251 110.9701862  91.2154269
  39.9476504 110.9385805  91.1484201  38.7945774 110.5092486  92.0304495
  39.5832633 109.5402978  93.7825067  40.4025522 110.0347057  93.8059904
  39.8569441 108.6234946  93.7542634  49.3399229 101.9313731  83.1453022
  48.4525084 102.2163381  82.9273217  49.7553218 101.7707494  82.2980299
  52.6913765 101.9560252  86.8607361  53.4674155 102.4456704  87.1331978
  51.9661899 102.3818306  87.3179231  55.1286324 102.6687871  87.9181302
  55.7230815 102.4283607  87.2074610  55.2012908 101.9495001  88.5454838
  37.3483480 116.5121482  88.2324467  37.2137947 115.7521883  87.6662465
  36.9315542 117.2362382  87.7653256  48.4842443 111.6958405  77.2401042
  49.1878293 111.9008408  77.8558698  47.7605091 112.2635167  77.5050126
  49.3140253 107.4468267  83.3603312  49.2575454 107.9036818  82.5210945
  49.8668595 106.6858951  83.1826155  53.1245059 103.2357998  84.1853432
  52.8681993 102.8354634  85.0161640  52.4997927 103.9501792  84.0603571
  57.4357397 105.9754072  86.6924723  56.8756955 106.0447261  87.4656285
  56.8300900 105.7995056  85.9724219  40.5052605 117.4090799  88.4442910
  40.3884990 118.3536231  88.3421600  39.6845052 117.1064360  88.8328709
  50.3929140 112.1340934  79.2899502  51.2274744 111.7022133  79.1076977
  50.2313483 111.9622948  80.2176397  50.0475032 108.6373048  80.6555842
  49.9923836 108.4717319  79.7144286  49.4221087 109.3449081  80.8118031
  34.8367547 103.8741112  94.4817264  35.4826411 103.3640066  94.9704489
  34.6284698 104.6109794  95.0560689  47.3620939 110.9421960  99.9809404
  48.2312099 111.1162612  99.6196039  46.8827691 111.7616376  99.8585134
  43.3571158  98.1381157  80.2341160  43.3449827  99.0822997  80.3909431
  44.2494579  97.9551302  79.9400621  41.5307120 118.0619061  91.6598838
  42.4334366 118.0942671  91.9765333  41.3044490 117.1319512  91.6745174
  43.2860722 116.8150047  88.3208917  42.3356353 116.8151909  88.2073289
  43.5893208 116.0682782  87.8044951  39.1765038 101.0208729  98.5792278
  40.0396500 100.6645534  98.7895603  38.6030449 100.6822624  99.2667682
  59.0213415 122.6510586  89.3854679  59.6591825 122.5317333  88.6818019
  58.9034258 123.5991430  89.4442631  55.8303121 122.6038014  89.3216204
  55.4921633 122.4879078  88.4336739  56.6992890 122.2029179  89.3017210
  56.3122904 123.7572865  95.2802409  56.3011545 123.3625664  94.4082913
  56.4743544 123.0238938  95.8736181  53.5311401 121.3726261  78.6533144
  53.7836921 120.8507782  77.8916607  52.5935960 121.2092407  78.7559827
  58.5754684 120.3762039  86.4607887  59.3617773 119.9581463  86.1098304
  58.8393388 121.2808132  86.6289535  63.9763111 120.3137273  87.3640866
  64.7088283 119.7436489  87.5978695  63.2202466 119.9258873  87.8047371
  55.5939230 122.7364514  84.5604208  55.2297438 122.2095135  85.2717129
  56.4506346 122.3462983  84.3870693  61.4988531 114.0258847  91.8235474
  61.1671856 114.8954258  91.5996689  60.9034144 113.7095131  92.5029504
  55.2344717 117.7654414  79.5565556  55.4019120 118.6334650  79.9236028
  55.0441886 117.9281696  78.6326846  61.3917194 118.7453933  88.9028824
  60.4834072 118.6769341  88.6087585  61.3404790 119.2225878  89.7310650
  55.2133938 120.2212071  80.5412223  55.0933563 120.6669122  81.3797704
  54.5186527 120.5697389  79.9825761  55.4658060 120.1643579  96.8463721
  54.6891394 120.7237499  96.8366586  56.1048623 120.6500361  97.3678592
  63.2578841 116.9470371  90.6806698  62.6153221 117.2402904  90.0346493
  62.7533769 116.8323292  91.4859895  60.9119004 120.6933545  81.3692557
  61.8236861 120.9260931  81.1940255  60.4028651 121.2770589  80.8067636
  59.1959772 125.1158172  95.0053850  59.6043128 124.6740583  94.2608482
  58.4737034 124.5410800  95.2588043  55.5490842 120.0530779  92.3787407
  56.3952037 120.4770193  92.5222056  55.4889480 119.3964403  93.0725970
  58.6990287 117.7135147  94.0368581  58.4551219 118.4677208  93.5002856
  58.9750218 118.0920495  94.8715828  60.6528750 124.2573760  92.7145846
  60.8645645 124.9005520  92.0380227  60.6058498 123.4236076  92.2467776
  58.2554979 116.8691580  89.6182418  57.3939458 117.1672834  89.9099156
  58.2817414 117.0861979  88.6863451  54.0085435 121.5356923  82.8345789
  54.7109478 121.9877967  83.3019715  53.6766063 120.8940742  83.4625682
  52.4565796 120.1268680  97.2096998  51.8264457 120.8084961  97.4432395
  52.3501884 120.0151762  96.2650137  47.7510769 119.7940476  88.1362923
  46.9609823 120.0498005  87.6603033  48.2422016 120.6088814  88.2414963
  49.7025514 120.1585055  85.0946399  48.9056677 120.2703750  85.6129895
  49.4751106 120.4971708  84.2287290  69.8580571 123.4784464  87.2353175
  69.1044280 122.9091862  87.0797179  69.9928112 123.4447128  88.1823810
  51.7346539 114.4289446  99.5722249  51.3413484 113.8755644 100.2469894
  52.5512679 114.7400024  99.9628767  54.6514500 115.8447325  97.1642506
  55.3924213 116.4454478  97.0846969  54.8832423 115.1024963  96.6060549
  49.7955838 121.0303692  95.4420736  49.6809353 120.1288949  95.7427835
  48.9400356 121.2767389  95.0905552  58.5971663 111.8728428  91.4406788
  58.2535932 112.7630070  91.3645898  58.9650625 111.6830086  90.5776373
  58.5621946 121.8637039  79.9479223  58.0468569 122.6341644  80.1867610
  58.2899254 121.1902175  80.5712284  56.1469057 116.7086740  85.0064461
  55.2910653 116.3193590  84.8270100  56.5596008 116.7878701  84.1464247
  57.6768203 114.2433083  89.4056021  57.1732999 114.2063218  88.5923826
  57.9698810 115.1525826  89.4652678  53.9211089 114.3271813  88.4122203
  54.7864086 114.1314621  88.0528092  53.9888598 114.0982165  89.3391559
  63.5356220 124.6169394  81.8832396  62.7585662 124.2780553  81.4387558
  64.2147701 124.6222017  81.2087361  58.3508249 119.7364131  81.7739004
  58.0458384 120.0510280  82.6249147  59.3038691 119.8145551  81.8166337
  61.7747527 124.0903375  88.5399004  61.1171201 124.7802636  88.6279133
  62.5787926 124.4799807  88.8832991  51.5273408 116.5574021  85.7838570
  52.1017160 116.3349202  85.0511762  52.1144391 116.6262715  86.5367171
  60.5852985 122.4447748  86.5902946  61.0984867 123.0777739  87.0924656
  61.2354209 121.8448943  86.2246306  51.8542995 118.5878482  79.8034455
  51.0180308 118.9253168  80.1243730  51.7147765 118.4527462  78.8661592
  53.8296076 113.4315270  84.5113639  53.1760488 113.1164287  83.8870254
  53.7876550 112.8091010  85.2373462  54.9407281 123.7134565  76.4266931
  54.0334342 123.4823818  76.6258080  55.4378313 122.9172184  76.6140913
  57.0633816 119.9197203  88.8361287  56.1456378 120.1412150  88.6782975
  57.4793960 119.9943514  87.9772994  57.8468864 121.3188619  83.9663967
  58.5940683 121.8310016  83.6571089  58.1160454 120.9972672  84.8268360
  56.1195514 123.8147160  80.9490921  55.2106733 123.5306192  81.0463391
  56.1490598 124.2346238  80.0894228  60.2947701 118.3545735  85.9482756
  59.5570458 117.8423121  86.2792999  60.5474475 117.9146117  85.1366033
  60.3959328 111.1321987  86.5424525  60.7018205 110.2719351  86.2550440
  61.1211933 111.7239607  86.3423519  54.6680408 121.4275780  87.0500716
  54.7229018 120.4749617  86.9743193  53.8571610 121.5835219  87.5342015
  52.6072768 120.0452840  84.8091095  51.7940634 120.3447010  85.2156287
  53.1031762 119.6508529  85.5265578  58.2046980 120.5094664  93.6405989
  58.5596368 120.7366138  94.5000455  58.8519111 120.8413041  93.0183245
  63.9344717 123.6313100  84.3455318  63.7962615 123.8214696  83.4176507
  63.5780936 124.3932483  84.8023369  52.0986843 117.6171195  90.4252330
  52.7386222 117.4759955  89.7275294  51.2664373 117.3305709  90.0490932
  63.9614096 125.6989627  89.3566590  64.3950603 125.6064916  90.2049644
  64.6745677 125.6747128  88.7186606  49.1829910 121.0616708  82.6147075
  48.2527498 121.0001163  82.8317038  49.2787382 120.5392660  81.8183717
  49.1015459 117.5871520  85.2025317  49.3622277 118.5016854  85.0934478
  49.9232632 117.1195963  85.3521930  50.5740385 119.0009278  92.3724142
  51.2463438 118.7926640  91.7236791  49.7470171 118.8031364  91.9329374
  64.8229646 125.7413328  91.8899475  65.0165536 126.6459138  92.1358750
  64.7230264 125.2820747  92.7238060  56.4765957 115.6271219  94.3889802
  55.8293872 116.3261168  94.2954279  57.2466972 116.0607362  94.7566051
  56.6530091 123.4651983  92.4486622  57.5822151 123.6163143  92.2755590
  56.2321121 123.5536004  91.5935269  50.9767882 122.2751881  93.1326579
  50.8387680 121.5432119  93.7338118  51.8872805 122.1860781  92.8510767
  59.9382830 124.2140285  77.8811057  59.3212000 123.4887113  77.7844110
  59.4699318 124.9749645  77.5378132  53.6050183 121.9871840  92.6210258
  54.3149801 121.3465032  92.5796877  53.5619491 122.2384735  93.5436439
  52.3179117 118.9737058  94.4405898  51.7816474 118.5227796  95.0927494
  51.7295825 119.1082967  93.6976362  51.7281376 118.4325709  77.0032362
  50.8510842 118.3114510  76.6394608  52.2039129 117.6411787  76.7511250
  48.0518238 118.1093065  91.5258892  47.9676427 117.5018735  90.7909302
  47.2300944 118.6002084  91.5268389  58.2241952 116.5946629  86.8929087
  58.7210651 115.8416591  86.5730158  57.4528933 116.6310946  86.3272297
  66.0771709 122.2986995  88.5347379  66.0661585 123.1811710  88.1641312
  65.2089088 121.9458545  88.3401916  54.8076920 118.7364012  86.6200772
  54.4374708 118.1835052  87.3081678  55.3036013 118.1322145  86.0675772
  62.6944284 121.1935636  85.0017545  63.1604736 122.0263627  84.9277848
  63.1451784 120.7280617  85.7062803  60.6660946 113.5616223  89.0408446
  59.7524026 113.7920449  89.2090653  61.0954048 113.6454667  89.8922479
  60.4367405 121.7506114  91.5408340  59.7838855 121.9982022  90.8860793
  60.8147785 120.9370253  91.2070818  56.4854978 122.4925926  98.0274377
  55.8095615 122.3920055  98.6976753  57.3082612 122.3365139  98.4910375
  50.2042254 116.1468003  92.8653878  50.2683581 117.0082834  92.4531276
  50.1409374 115.5342004  92.1326237  49.6794527 118.2191135  96.5126912
  50.3066565 117.8368213  97.1264437  48.8222445 118.0005337  96.8782605
  46.4560069 120.0267564  82.4445267  46.7513510 119.1178243  82.3912321
  45.5548105 120.0055304  82.1226270  49.9854316 118.1023561  88.4272816
  49.2640902 118.7159529  88.2880289  50.7747572 118.6381326  88.3489462
  52.7880630 115.4377988  94.7013468  53.3115032 115.6840284  95.4639777
  52.5692963 116.2698022  94.2816605  48.1847911 117.7081662  82.5684592
  47.8560617 116.8279041  82.3859698  48.5387282 117.6529331  83.4560982
  51.2989734 117.9954632  82.9360070  51.6385807 118.5240553  82.2138678
  51.7461855 118.3335038  83.7118637  53.9933175 116.3791683  92.3863138
  53.6529995 115.5799496  92.7883818  53.2872181 116.6793393  91.8139971
  54.6449647 113.4640995  90.8390461  55.4675716 112.9901473  90.7169351
  54.8887710 114.2431479  91.3389147  53.2857881 116.4929253  81.1353363
  54.0066244 116.8710506  80.6317080  52.6623185 117.2118130  81.2388341
  57.4289004 117.1974402  82.0711695  57.6452619 118.0799040  81.7700523
  56.9483071 116.8060616  81.3417337  52.1688225 120.1560116  88.6482440
  52.0232806 120.4700419  89.5406721  51.6913429 120.7745016  88.0953338
  54.0284608 117.1462664  88.6963329  54.0146177 116.2503757  88.3595627
  54.7457036 117.1533327  89.3301615  55.8810739 117.5800004  90.7416457
  55.6228517 118.5017075  90.7400787  55.3495779 117.1830438  91.4316921
  53.4321504 116.0277044  83.9650899  53.5537416 115.0993690  84.1641787
  53.1423547 116.0415730  83.0529215  56.3012695 113.7131954  87.1017619
  56.3234392 113.7771287  86.1469599  56.7180754 112.8736463  87.2958125
  66.6796319 123.4487214  85.1396842  67.1227465 122.6994539  84.7415965
  65.8022829 123.4397350  84.7570574  52.9162584 117.5409041  98.1740832
  52.9650739 118.4171164  97.7918602  53.4585098 116.9986434  97.6012475
  63.5215305 124.9342631  94.7674698  63.5713310 124.7692638  95.7090220
  63.4129228 124.0669890  94.3772578  60.8119067 120.9173559  96.0834004
  61.7128930 120.7780024  95.7918002  60.8867041 121.0828014  97.0232182
  55.1461872 118.2940414  94.9287191  54.2765182 118.5873980  94.6569779
  55.3821353 118.8780859  95.6494454  66.2229184 124.9192452  87.5319289
  67.0576075 125.3582256  87.6956850  66.3588313 124.4431105  86.7127535
  63.2720690 122.4772187  93.4796777  63.7474811 122.6699833  92.6715629
  62.3486255 122.5331373  93.2340161  57.8500906 114.5120031  92.4452611
  58.3682850 115.2481058  92.1199100  57.4956039 114.8184024  93.2799370
  49.4299844 119.3724712  80.5614017  48.7369089 119.4469067  79.9054053
  49.1851596 118.6085055  81.0835534  58.1013500 110.9320313  87.9653508
  58.3815254 110.2643502  88.5913934  58.8864107 111.1249409  87.4528172
  61.9722359 119.3537947  91.7125083  62.9239782 119.4536045  91.7337307
  61.8025809 118.5616216  92.2223167  59.9936738 116.4393530  91.8984484
  59.3986670 116.7198543  91.2030972  59.7086435 116.9287431  92.6701225
  64.4510436 122.5744067  90.8267382  64.4186757 121.6360068  91.0127066
  65.0611060 122.6528104  90.0933207  56.2893767 121.4440120  76.8694586
  57.2352872 121.3146328  76.9383005  55.9108012 120.7054782  77.3464015
  64.6004925 119.3655110  90.8725666  64.0843974 118.5813567  90.6855594
  65.4844873 119.0373827  91.0372185  62.2615652 113.1096126  86.8321478
  62.0640473 112.8011214  87.7164810  62.8715357 113.8357765  86.9619408
  70.2686986 123.6360074  89.9673419  70.9990375 123.3745362  90.5281123
  69.6593932 122.8988796  90.0075487  68.3502283 121.7767936  90.5647870
  67.6235447 121.6423901  89.9564362  67.9349570 122.0844765  91.3704588
  54.4736684 119.3690096  76.8049472  53.5668140 119.0723209  76.8812185
  54.7512665 119.0719914  75.9383758  56.0898750 113.9126986  82.9593713
  55.2799478 113.5674071  83.3348959  56.7783167 113.6034530  83.5481325
  58.0189298 112.9905033  84.5818010  58.5720337 113.4100486  85.2408033
  58.2559385 112.0640781  84.6240966  54.0422398 118.9792106 100.3620774
  53.9419125 119.9286463 100.2932865  53.8243940 118.6510345  99.4896844
  53.2435469 116.2277031  76.9461451  54.1054633 116.5531930  77.2057268
  53.4285813 115.4408527  76.4334517  61.3968106 115.1005558  84.0896674
  60.8166775 115.7590362  83.7074726  61.1304038 114.2782902  83.6784091
  59.8471672 114.5010616  86.2917994  60.3471450 114.6127150  85.4832313
  60.4907280 114.1971668  86.9318803  53.9053668 122.4089245  99.1785835
  53.4220749 123.2089605  99.3849724  53.9914607 122.4197190  98.2253279
  60.1792984 117.2605648  83.1453022  59.2918839 117.5455299  82.9273217
  60.5946973 117.0999412  82.2980299  63.5307520 117.2852169  86.8607361
  64.3067910 117.7748622  87.1331978  62.8055654 117.7110223  87.3179231
  65.9680078 117.9979788  87.9181302  66.5624569 117.7575524  87.2074610
  66.0406662 117.2786919  88.5454838  60.1534007 122.7760184  83.3603312
  60.0969209 123.2328736  82.5210945  60.7062350 122.0150869  83.1826155
  63.9638813 118.5649916  84.1853432  63.7075747 118.1646552  85.0161640
  63.3391681 119.2793710  84.0603571  68.2751151 121.3045989  86.6924723
  67.7150709 121.3739179  87.4656285  67.6694654 121.1286974  85.9724219
  60.8868787 123.9664965  80.6555842  60.8317590 123.8009237  79.7144286
  60.2614842 124.6740998  80.8118031  45.6761302 119.2033030  94.4817264
  46.3220165 118.6931984  94.9704489  45.4678453 119.9401711  95.0560689
  54.1964912 113.4673074  80.2341160  54.1843582 114.4114914  80.3909431
  55.0888334 113.2843220  79.9400621  58.0117032 110.0615851  84.4887097
  57.2449427 109.5074338  84.6343779  58.4227737 110.1337720  85.3501248
  50.0158793 116.3500647  98.5792278  50.8790254 115.9937452  98.7895603
  49.4424203 116.0114542  99.2667682  69.4365417 127.2020346  91.4406788
  69.0929687 128.0921987  91.3645898  69.8044380 127.0122003  90.5776373
  71.2353083 126.4613905  86.5424525  71.5411960 125.6011268  86.2550440
  71.9605688 127.0531525  86.3423519  71.5054701 128.8908140  89.0408446
  70.5917781 129.1212367  89.2090653  71.9347802 128.9746584  89.8922479
  68.9407255 126.2612231  87.9653508  69.2209009 125.5935420  88.5913934
  69.7257862 126.4541326  87.4528172  73.1009406 128.4388044  86.8321478
  72.9034227 128.1303132  87.7164810  73.7109112 129.1649682  86.9619408
  68.8583053 128.3196950  84.5818010  69.4114092 128.7392404  85.2408033
  69.0953139 127.3932699  84.6240966  68.8510786 125.3907769  84.4887097
  68.0843182 124.8366255  84.6343779  69.2621491 125.4629638  85.3501248
   4.8244644  23.0113120  76.1099986   5.4623054  22.8919867  75.4063326
   4.7065487  23.9593964  76.1687938   1.6334350  22.9640548  76.0461510
   1.2952862  22.8481613  75.1582045   2.5024118  22.5631713  76.0262516
   2.1154133  24.1175400  82.0047716   2.1042774  23.7228198  81.1328219
   2.2774773  23.3841472  82.5981487   3.0720725  28.4846992  67.3472866
   2.4208704  29.0701072  66.9606880   3.8665087  29.0153187  67.4067904
   4.3785912  20.7364574  73.1853194   5.1649002  20.3183997  72.8343611
   4.6424617  21.6410666  73.3534842   4.5495990  26.1737424  67.8841850
   3.9141823  26.2472050  68.5962755   4.2193396  26.7631023  67.2060930
   9.7794339  20.6739807  74.0886172  10.5119511  20.1039024  74.3224002
   9.0233695  20.2861407  74.5292678   1.3970459  23.0967048  71.2849515
   1.0328666  22.5697669  71.9962436   2.2537575  22.7065517  71.1116000
   7.3019760  14.3861381  78.5480781   6.9703085  15.2556792  78.3241996
   6.7065373  14.0697665  79.2274811   1.0375946  18.1256948  66.2810863
   1.2050349  18.9937184  66.6481334   0.8473115  18.2884230  65.3572152
   3.7951279  26.5873927  77.9476693   3.4952002  27.4898966  77.8392501
   3.4502339  26.3206110  78.7997846   7.1948423  19.1056467  75.6274131
   6.2865300  19.0371876  75.3332892   7.1436019  19.5828412  76.4555956
   1.2689289  20.5246113  83.5709028   0.4922623  21.0840033  83.5611893
   1.9079852  21.0102896  84.0923898   9.0610070  17.3072906  77.4052005
   8.4184450  17.6005439  76.7591799   8.5564998  17.1925826  78.2105201
   6.7150233  21.0536079  68.0937864   7.6268089  21.2863465  67.9185562
   6.2059880  21.6373123  67.5312943   4.9991001  25.4760707  81.7299157
   5.4074357  25.0343117  80.9853789   4.2768262  24.9013334  81.9833349
   1.3522071  20.4133313  79.1032713   2.1983266  20.8372727  79.2467362
   1.2920709  19.7566938  79.7971277   5.3219816  26.0361897  75.4851445
   4.6928678  26.2007611  74.7827513   4.9345478  26.4503507  76.2562409
   9.2009047  26.9716335  72.8395809   8.5160086  27.3515236  72.2892843
   9.2852897  27.5811662  73.5727757   4.5021516  18.0737682  80.7613887
   4.2582448  18.8279742  80.2248163   4.7781447  18.4523029  81.5961134
   6.4559979  24.6176294  79.4391153   6.6676874  25.2608054  78.7625534
   6.4089727  23.7838611  78.9713083   4.0586208  17.2294115  76.3427725
   3.1970687  17.5275368  76.6344462   4.0848643  17.4464514  75.4108757
   0.8747777  25.7736305  72.7501531   1.3386123  26.0524008  71.9606153
   0.6104575  24.8719750  72.5674621   7.5705807  27.4948249  77.6113510
   8.3923251  27.0928437  77.3296192   7.5668210  27.3916484  78.5629626
   1.3362410  27.0432293  79.7674221   1.4006843  27.5052700  80.6032392
   0.6273334  26.4129658  79.8956530  15.6611800  23.8386998  73.9598482
  14.9075508  23.2694396  73.8042486  15.7959341  23.8049662  74.9069116
   1.0510428  28.7100400  69.6353201   0.9156103  29.5551936  70.0638049
   1.5920241  28.9119678  68.8719135   2.6778904  29.3323967  83.7653543
   2.2342759  28.5460345  83.4474447   3.3396118  29.5203117  83.0997434
   4.7760143  29.6126767  81.7934944   4.7578618  30.4335648  81.3015213
   5.6980063  29.4880842  82.0185085   1.2333197  27.1270896  82.6358453
   1.7661533  26.3659184  82.4057761   0.7047278  26.8344548  83.3782607
   4.3653174  22.2239573  66.6724529   3.8499798  22.9944178  66.9112917
   4.0930483  21.5504709  67.2957591   9.3387448  24.9771928  68.6077703
   8.5616891  24.6383087  68.1632865  10.0178929  24.9824551  67.9332668
   4.1539478  20.0966665  68.4984311   3.8489613  20.4112815  69.3494454
   5.1069920  20.1748085  68.5411644   2.5985909  26.2556889  70.1477265
   2.0707271  25.5209648  69.8350502   2.0973412  27.0331565  69.9017233
   7.5778755  24.4505909  75.2644311   6.9202430  25.1405171  75.3524440
   8.3819155  24.8402341  75.6078297   6.3884214  22.8050282  73.3148253
   6.9016096  23.4380274  73.8169962   7.0385438  22.2051477  72.9491613
   3.6506588  32.7834606  66.0708924   2.9768287  33.0866303  66.6793882
   4.0372410  33.5863686  65.7214381   2.8665045  20.2799737  75.5606593
   1.9487606  20.5014684  75.4028281   3.2825189  20.3546048  74.7018301
   3.6500093  21.6791153  70.6909273   4.3971912  22.1912550  70.3816396
   3.9191682  21.3575206  71.5513667   1.9226743  24.1749694  67.6736228
   1.0137962  23.8908727  67.7708697   1.9521827  24.5948772  66.8139535
   7.1546010  27.7856283  71.4427395   6.7008338  26.9447193  71.4992586
   6.5239977  28.4217682  71.7802175   6.0978930  18.7148269  72.6728063
   5.3601687  18.2025656  73.0038305   6.3505703  18.2748651  71.8611340
   5.5978950  29.6232780  72.3777213   5.8901924  30.1837837  71.6589579
   6.1077570  29.9161341  73.1330373   1.6202831  25.7158437  65.0124306
   1.1822261  24.9994296  64.5529944   2.3613272  25.9434552  64.4509398
   0.5612575  30.4013131  73.4670667   0.5188754  30.6273977  72.5379199
   1.4775274  30.1676506  73.6156468   4.0078209  20.8697199  80.3651296
   4.3627596  21.0968672  81.2245762   4.6550340  21.2015575  79.7428551
   9.7375946  23.9915634  71.0700625   9.5993844  24.1817230  70.1421814
   9.3812164  24.7535017  71.5268676   9.7645325  26.0592162  76.0811896
  10.1981832  25.9667451  76.9294950  10.4776906  26.0349662  75.4431912
   3.4973220  29.6594256  77.6144997   3.5510242  30.2285192  78.3822713
   2.6288001  29.8296141  77.2499034  10.6260875  26.1015862  78.6144782
  10.8196765  27.0061673  78.8604057  10.5261493  25.6423281  79.4483367
   5.6875983  26.2522605  84.1885662   5.5361490  26.0233157  83.2715746
   5.6780663  27.2093206  84.2017007   2.4561320  23.8254518  79.1731929
   3.3853380  23.9765677  79.0000896   2.0352350  23.9138538  78.3180575
   1.8497804  32.9514279  68.2856003   2.0249559  32.4802322  69.1001626
   1.1630592  33.5780045  68.5137264   2.8054867  27.2286785  74.3319304
   2.4704699  27.1887555  75.2276954   2.3058812  26.5631501  73.8589714
   5.7414058  24.5742819  64.6056364   5.1243229  23.8489647  64.5089417
   5.2730547  25.3352179  64.2623438   7.3968190  29.2841727  82.2662144
   7.3380736  28.6000948  81.5992727   7.7987708  30.0260717  81.8142770
   7.3985597  27.2481311  80.4976124   6.5112376  26.9107233  80.6202523
   7.9684148  26.5164343  80.7344889   0.9286751  31.9082764  77.4637367
   0.8556922  32.7137735  77.9756672   0.4864144  32.1074730  76.6385389
   4.0273180  16.9549163  73.6174394   4.5241880  16.2019126  73.2975464
   3.2560162  16.9913480  73.0517603  11.8802938  22.6589529  75.2592686
  11.8692814  23.5414244  74.8886619  11.0120317  22.3061080  75.0647223
   3.3885434  31.8069598  79.6195526   4.1013406  32.4417063  79.5471427
   2.8975463  31.9033464  78.8035528   5.1102961  25.7120850  71.1912817
   4.1759240  25.8322313  71.0217522   5.2879630  24.8093317  70.9272827
   8.4975513  21.5538170  71.7262852   8.9635965  22.3866161  71.6523154
   8.9483013  21.0883151  72.4308110   6.5651744  27.8981991  68.7249004
   6.8411588  27.7838586  69.6342878   5.6956242  27.4999476  68.6861177
   6.2398634  22.1108649  78.2653647   5.5870084  22.3584556  77.6106100
   6.6179014  21.2972787  77.9316124   3.2005808  32.1468342  72.3681817
   3.3828202  31.3289998  72.8309570   4.0238794  32.3636034  71.9306707
   3.5347973  31.0736527  69.6296866   4.0635740  30.5628982  69.0167028
   3.7976193  30.7579057  70.4942399   2.2886207  22.8528460  84.7519684
   1.6126844  22.7522589  85.4222059   3.1113841  22.6967673  85.2155681
   1.0308990  34.1595387  78.9877300   1.5827298  34.3227009  79.7526385
   1.3715183  34.7499825  78.3157325   5.8819864  28.9856645  84.8425954
   6.4259768  29.5986603  84.3480909   5.3006709  29.5436223  85.3592967
   4.1677377  32.1077363  75.9740982   4.0428516  31.3067103  75.4651928
   4.8256468  32.6023556  75.4854952   6.2312285  29.9086383  77.6020532
   5.2842621  29.7891734  77.5298859   6.5795058  29.0208881  77.6846794
   3.2358719  29.7039099  73.8024885   3.0883681  28.7755806  73.9832455
   4.0612212  29.7259190  73.3181960   6.8392840  30.5267658  74.8889757
   7.7639388  30.3210519  74.7514208   6.6708144  30.2784059  75.7979099
   3.2320233  17.5576937  68.7957002   3.4483847  18.4401575  68.4945830
   2.7514300  17.1663150  68.0662644   6.6288157  31.0453325  70.2451849
   6.8025034  30.4799748  69.4925701   7.1217048  31.8454220  70.0631339
  12.4827548  23.8089748  71.8642148  12.9258694  23.0597073  71.4661272
  11.6054058  23.7999885  71.4815880   7.6163329  30.3620090  67.3448747
   8.3114234  30.9826782  67.5636062   7.9586479  29.5115441  67.6201125
   9.5154752  27.8119795  68.8736078  10.0406076  28.1507068  68.1485398
   9.4277105  26.8766810  68.6899212   1.1774801  31.7253869  81.0025954
   1.4861927  31.4803016  81.8748654   1.9750283  31.9300507  80.5144825
   1.1995413  33.8791778  73.2331331   0.7600403  33.3868157  73.9264188
   1.9503530  33.3364746  72.9923406   9.2048658  28.4452699  84.1787276
   8.4144202  28.4276838  83.6391775   8.9682013  28.9840992  84.9336312
   9.3246533  25.2945165  81.4920004   9.3744538  25.1295173  82.4335527
   9.2160457  24.4272424  81.1017885   6.6150296  21.2776093  82.8079311
   7.5160159  21.1382558  82.5163309   6.6898270  21.4430548  83.7477488
  10.8264730  27.7142107  81.7362026  10.5349539  28.0772087  82.5725487
  10.2136861  27.0009115  81.5575358  12.0260413  25.2794986  74.2564596
  12.8607304  25.7184791  74.4202156  12.1619541  24.8033640  73.4372842
   9.0751918  22.8374721  80.2042084   9.5506040  23.0302368  79.3960935
   8.1517484  22.8933907  79.9585467   1.7078198  30.4681841  66.2523841
   1.1352165  31.0872028  65.7994312   2.2810991  31.0181203  66.7863763
   7.7753587  19.7140481  78.4370389   8.7271010  19.8138579  78.4582613
   7.6057038  18.9218750  78.9468474   5.7967967  16.7996065  78.6229790
   5.2017899  17.0801077  77.9276279   5.5117664  17.2889966  79.3946531
   4.9275457  30.7518991  67.3832423   5.8606131  30.6864553  67.5865298
   4.8398670  31.5875258  66.9246956   7.5563474  30.0684862  64.3436370
   7.4777106  29.7344725  65.2372128   8.3773141  30.5606630  64.3427843
  10.2541665  22.9346601  77.5512689  10.2217985  21.9962602  77.7372373
  10.8642289  23.0130638  76.8178514   2.0924996  21.8042654  63.5939893
   3.0384101  21.6748862  63.6628311   1.7139241  21.0657316  64.0709321
  10.4036154  19.7257645  77.5970972   9.8875202  18.9416101  77.4100901
  11.2876102  19.3976361  77.7617492   8.0646881  13.4698660  73.5566785
   7.8671702  13.1613748  74.4410117   8.6746586  14.1960299  73.6864715
  16.0718215  23.9962608  76.6918726  16.8021604  23.7347896  77.2526429
  15.4625161  23.2591330  76.7320794  14.1533512  22.1370470  77.2893177
  13.4266676  22.0026435  76.6809669  13.7380799  22.4447299  78.0949895
   1.9763689  25.8560400  85.0540550   2.8966698  26.0338999  85.2480597
   1.9413272  24.9116446  84.9020249   7.1999334  15.4608092  70.8141981
   6.6198003  16.1192896  70.4320033   6.9335267  14.6385437  70.4029398
   5.6502901  14.8613150  73.0163301   6.1502679  14.9729684  72.2077620
   6.2938509  14.5574203  73.6564109   5.9824212  17.6208182  69.8698329
   5.0950067  17.9057833  69.6518524   6.3978201  17.4601946  69.0225606
   9.3338749  17.6454703  73.5852668  10.1099139  18.1351156  73.8577285
   8.6086883  18.0712758  74.0424538  11.7711307  18.3582323  74.6426609
  12.3655798  18.1178059  73.9319917  11.8437891  17.6389453  75.2700145
   5.1267426  27.3852857  63.9646349   5.8303276  27.5902860  64.5804004
   4.4030075  27.9529619  64.2295432   5.9565236  23.1362718  70.0848619
   5.9000438  23.5931270  69.2456251   6.5093579  22.3753403  69.9071462
   9.7670042  18.9252450  70.9098738   9.5106976  18.5249086  71.7406946
   9.1422910  19.6396244  70.7848878  14.0782380  21.6648524  73.4170030
  13.5181938  21.7341713  74.1901592  13.4725883  21.4889508  72.6969526
   7.0354123  27.8235386  66.0144809   7.8699727  27.3916585  65.8322284
   6.8738466  27.6517400  66.9421703   6.6900015  24.3267500  67.3801148
   6.6348819  24.1611771  66.4389592   6.0646071  25.0343533  67.5363338
   4.0045923  26.6316412  86.7054711   4.8737082  26.8057064  86.3441346
   3.5252674  27.4510828  86.5830440  15.6638398  38.3405037  76.1099986
  16.3016808  38.2211785  75.4063326  15.5459241  39.2885881  76.1687938
  12.4728105  38.2932466  76.0461510  12.1346616  38.1773530  75.1582045
  13.3417873  37.8923631  76.0262516   8.3314920  40.1467942  72.0358401
   7.7679785  40.0557879  71.2674689   8.2167315  39.3267846  72.5160894
  12.9547888  39.4467317  82.0047716  12.9436528  39.0520116  81.1328219
  13.1168527  38.7133390  82.5981487   5.8779352  41.6419134  74.8742622
   6.6700644  41.3009958  74.4588921   6.1176002  41.7514109  75.7944775
  13.9114479  43.8138910  67.3472866  13.2602459  44.3992990  66.9606880
  14.7058842  44.3445105  67.4067904   7.8370106  40.9028047  67.7460000
   8.6100982  40.3557034  67.6072876   8.1895505  41.7672296  67.9574462
   9.6755149  42.2304429  80.9526900   9.3845015  43.1350060  80.8373566
  10.3112133  42.2720957  81.6670969  10.6011356  39.6081278  77.5428259
  11.1974928  39.3837300  76.8285222  10.6586327  38.8666023  78.1453707
  10.1736384  37.0620713  65.3778450  10.4261905  36.5402234  64.6161913
   9.2360943  36.8986858  65.4805134  15.2179667  36.0656491  73.1853194
  16.0042756  35.6475914  72.8343611  15.4818371  36.9702584  73.3534842
  15.3889744  41.5029342  67.8841850  14.7535577  41.5763968  68.5962755
  15.0587151  42.0922940  67.2060930  20.6188094  36.0031725  74.0886172
  21.3513266  35.4330941  74.3224002  19.8627450  35.6153325  74.5292678
   9.8932673  38.9648819  67.5802825   9.7768931  38.2893722  68.2483910
  10.0034933  38.4781193  66.7634978  12.2364214  38.4258966  71.2849515
  11.8722421  37.8989587  71.9962436  13.0931330  38.0357435  71.1116000
  18.1413514  29.7153299  78.5480781  17.8096839  30.5848710  78.3241996
  17.5459128  29.3989583  79.2274811  11.8769701  33.4548866  66.2810863
  12.0444103  34.3229102  66.6481334  11.6866870  33.6176147  65.3572152
  14.6345034  41.9165845  77.9476693  14.3345757  42.8190883  77.8392501
  14.2896093  41.6498028  78.7997846   8.0857515  38.3679641  73.9813398
   7.1608012  38.2355856  74.1891090   8.3341929  39.1473861  74.4783340
  18.0342178  34.4348385  75.6274131  17.1259055  34.3663793  75.3332892
  17.9829773  34.9120330  76.4555956  11.8558922  35.9106523  67.2657530
  11.7358547  36.3563574  68.1043010  11.1611510  36.2591841  66.7071068
   5.4466326  38.0112915  74.8157187   5.5758708  38.2647394  75.7296599
   4.7663778  38.6040623  74.4961842   9.6165814  48.6810165  70.9147661
   9.5389843  49.6317990  70.9936142   9.0127457  48.3356037  71.5722587
  12.1083043  35.8538030  83.5709028  11.3316377  36.4131951  83.5611893
  12.7473606  36.3394813  84.0923898  19.9003824  32.6364823  77.4052005
  19.2578204  32.9297356  76.7591799  19.3958753  32.5217744  78.2105201
  17.5543988  36.3827996  68.0937864  18.4661844  36.6155383  67.9185562
  17.0453635  36.9665041  67.5312943  10.3629416  38.6623484  83.1326995
  11.1044100  39.2008528  82.8561819   9.6566401  39.2889773  83.2898547
  15.8384755  40.8052624  81.7299157  16.2468111  40.3635035  80.9853789
  15.1162017  40.2305252  81.9833349  12.1915825  35.7425231  79.1032713
  13.0377021  36.1664645  79.2467362  12.1314463  35.0858855  79.7971277
  16.1613570  41.3653815  75.4851445  15.5322432  41.5299529  74.7827513
  15.7739232  41.7795424  76.2562409  20.0402802  42.3008253  72.8395809
  19.3553840  42.6807154  72.2892843  20.1246651  42.9103579  73.5727757
  15.3415271  33.4029599  80.7613887  15.0976203  34.1571660  80.2248163
  15.6175201  33.7814947  81.5961134  17.2953734  39.9468212  79.4391153
  17.5070629  40.5899972  78.7625534  17.2483482  39.1130528  78.9713083
  14.8979962  32.5586032  76.3427725  14.0364441  32.8567286  76.6344462
  14.9242397  32.7756431  75.4108757  11.7141532  41.1028223  72.7501531
  12.1779877  41.3815926  71.9606153  11.4498330  40.2011668  72.5674621
   8.6065613  40.6499704  75.6881294   9.1766970  41.0786973  75.0498778
   9.1973725  40.3682289  76.3865479  10.6510418  37.2251375  69.5591096
  11.3534461  37.6772419  70.0265022  10.3191046  36.5835194  70.1870989
   9.0990779  35.8163132  83.9342305   8.4689440  36.4979413  84.1677702
   8.9926867  35.7046214  82.9895443   4.3935752  35.4834928  74.8608229
   3.6034806  35.7392457  74.3848340   4.8846999  36.2983266  74.9660270
  18.4099561  42.8240167  77.6113510  19.2317005  42.4220354  77.3296192
  18.4061964  42.7208401  78.5629626   6.3450497  35.8479507  71.8191706
   5.5481661  35.9598201  72.3375202   6.1176089  36.1866159  70.9532596
  12.1756165  42.3724210  79.7674221  12.2400597  42.8344618  80.6032392
  11.4667089  41.7421575  79.8956530   2.6773455  35.7365418  77.2923220
   2.9281493  36.6212428  77.5580796   3.2133003  35.5570020  76.5198312
  26.5005555  39.1678916  73.9598482  25.7469263  38.5986314  73.8042486
  26.6353096  39.1341580  74.9069116  11.8904183  44.0392318  69.6353201
  11.7549857  44.8843854  70.0638049  12.4313995  44.2411596  68.8719135
   8.3771522  30.1183898  86.2967556   7.9838468  29.5650096  86.9715200
   9.1937663  30.4294476  86.6874074   5.3433580  41.5567756  70.2081126
   5.8558101  42.3511006  70.3586691   5.9956293  40.8594046  70.1414727
   7.1528465  44.6733512  72.2903879   7.3295093  45.5951477  72.1024863
   7.9485298  44.3591931  72.7198259  11.2939483  31.5341777  83.8887813
  12.0349197  32.1348930  83.8092275  11.5257406  30.7919415  83.3305855
   6.4380821  36.7198144  82.1666042   6.3234336  35.8183401  82.4673141
   5.5825339  36.9661841  81.8150859  13.5172659  44.6615884  83.7653543
  13.0736513  43.8752263  83.4474447  14.1789873  44.8495035  83.0997434
   8.2759780  46.1911686  78.2914221   8.8267205  46.0628749  77.5191215
   7.4371256  46.4906575  77.9409114  15.6153897  44.9418684  81.7934944
  15.5972372  45.7627565  81.3015213  16.5373817  44.8172760  82.0185085
  12.0726951  42.4562814  82.6358453  12.6055288  41.6951102  82.4057761
  11.5441032  42.1636466  83.3782607  15.2396646  27.5622880  78.1652094
  14.8960916  28.4524521  78.0891205  15.6075609  27.3724537  77.3021679
   3.3082497  39.8856410  70.9840697   4.1457719  40.2953419  70.7674404
   3.4860764  38.9455852  70.9540890  15.2046929  37.5531491  66.6724529
  14.6893552  38.3236096  66.9112917  14.9324237  36.8796627  67.2957591
  12.7894040  32.3981192  71.7309768  11.9335636  32.0088042  71.5515407
  13.2020992  32.4773153  70.8709553  14.3193187  29.9327535  76.1301328
  13.8157982  29.8957670  75.3169133  14.6123793  30.8420278  76.1897984
  10.5636072  30.0166265  75.1367509  11.4289069  29.8209073  74.7773399
  10.6313581  29.7876616  76.0636866  20.1781203  40.3063846  68.6077703
  19.4010646  39.9675005  68.1632865  20.8572684  40.3116469  67.9332668
  14.9933232  35.4258583  68.4984311  14.6883368  35.7404732  69.3494454
  15.9463674  35.5040003  68.5411644  13.4379664  41.5848806  70.1477265
  12.9101025  40.8501566  69.8350502  12.9367167  42.3623483  69.9017233
  18.4172510  39.7797827  75.2644311  17.7596184  40.4697088  75.3524440
  19.2212909  40.1694259  75.6078297   8.1698391  32.2468473  72.5083876
   8.7442143  32.0243654  71.7757069   8.7569374  32.3157167  73.2612477
  17.2277969  38.1342200  73.3148253  17.7409850  38.7672191  73.8169962
  17.8779193  37.5343395  72.9491613   8.4967979  34.2772934  66.5279761
   7.6605291  34.6147620  66.8489036   8.3572748  34.1421913  65.5906898
  10.4721059  29.1209722  71.2358946   9.8185472  28.8058739  70.6115560
  10.4301533  28.4985462  71.9618769  11.5832264  39.4029017  63.1512238
  10.6759326  39.1718270  63.3503387  12.0803296  38.6066636  63.3386219
  14.4900343  48.1126524  66.0708924  13.8162042  48.4158221  66.6793882
  14.8766165  48.9155604  65.7214381  13.7058800  35.6091655  75.5606593
  12.7881361  35.8306602  75.4028281  14.1218943  35.6837966  74.7018301
  14.4893847  37.0083071  70.6909273  15.2365666  37.5204468  70.3816396
  14.7585437  36.6867123  71.5513667  12.7620497  39.5041611  67.6736228
  11.8531717  39.2200644  67.7708697  12.7915581  39.9240690  66.8139535
  17.9939765  43.1148201  71.4427395  17.5402092  42.2739111  71.4992586
  17.3633732  43.7509599  71.7802175  16.9372684  34.0440187  72.6728063
  16.1995441  33.5317573  73.0038305  17.1899458  33.6040569  71.8611340
  16.4372704  44.9524698  72.3777213  16.7295679  45.5129755  71.6589579
  16.9471325  45.2453259  73.1330373  17.0384312  26.8216439  73.2669832
  17.3443189  25.9613802  72.9795747  17.7636917  27.4134059  73.0668826
   3.3308668  37.2247126  71.6551430   3.1333068  36.6316486  70.9302497
   2.7755332  36.9199336  72.3727369  11.3105392  37.1170232  73.7746023
  11.3654001  36.1644068  73.6988500  10.4996594  37.2729671  74.2587322
  12.4596585  41.0450355  65.0124306  12.0216015  40.3286214  64.5529944
  13.2007026  41.2726470  64.4509398   9.2497751  35.7347292  71.5336402
   8.4365617  36.0341462  71.9401594   9.7456746  35.3402981  72.2510884
  11.4006329  45.7305049  73.4670667  11.3582508  45.9565895  72.5379199
  12.3169028  45.4968423  73.6156468  14.8471963  36.1989116  80.3651296
  15.2021351  36.4260589  81.2245762  15.4944094  36.5307493  79.7428551
  20.5769700  39.3207552  71.0700625  20.4387599  39.5109148  70.1421814
  20.2205919  40.0826935  71.5268676   8.7411826  33.3065647  77.1497637
   9.3811206  33.1654406  76.4520600   7.9089357  33.0200161  76.7736239
  20.6039080  41.3884079  76.0811896  21.0375586  41.2959368  76.9294950
  21.3170660  41.3641580  75.4431912   9.5172130  42.6068078  73.2632629
  10.3112729  42.1118398  73.0615204   8.8063822  42.0785941  72.9000335
  14.3366975  44.9886173  77.6144997  14.3903997  45.5577110  78.3822713
  13.4681756  45.1588058  77.2499034   5.8254894  36.7511159  69.3392382
   4.8952482  36.6895615  69.5562344   5.9212366  36.2287112  68.5429023
   5.7440443  33.2765972  71.9270624   6.0047260  34.1911306  71.8179784
   6.5657615  32.8090415  72.0767237   7.2165368  34.6903729  79.0969448
   7.8888421  34.4821092  78.4482097   6.3895154  34.4925815  78.6574681
  21.4654629  41.4307780  78.6144782  21.6590519  42.3353590  78.8604057
  21.3655247  40.9715199  79.4483367  13.1190940  31.3165670  81.1135109
  12.4718855  32.0155620  81.0199586  13.8891955  31.7501814  81.4811357
  16.5269738  41.5814523  84.1885662  16.3755244  41.3525074  83.2715746
  16.5174417  42.5385124  84.2017007  13.2955074  39.1546435  79.1731929
  14.2247134  39.3057595  79.0000896  12.8746104  39.2430456  78.3180575
  12.0943406  43.1797100  76.9430466  11.9554492  42.8115884  77.8156405
  11.3058002  43.6944739  76.7714424  12.6891558  48.2806196  68.2856003
  12.8643314  47.8094239  69.1001626  12.0024346  48.9071962  68.5137264
  13.6448621  42.5578702  74.3319304  13.3098454  42.5179472  75.2276954
  13.1452567  41.8923418  73.8589714   7.6192865  37.9646332  79.8571885
   7.4812663  37.2326571  80.4583424   8.5297789  37.8755233  79.5756073
  16.5807813  39.9034737  64.6056364  15.9636984  39.1781565  64.5089417
  16.1124301  40.6644097  64.2623438  10.2475166  37.6766292  79.3455565
  10.9574784  37.0359484  79.3042183  10.2044474  37.9279187  80.2681746
  18.2361945  44.6133645  82.2662144  18.1774491  43.9292865  81.5992727
  18.6381463  45.3552635  81.8142770   8.9604100  34.6631510  81.1651205
   8.4241457  34.2122248  81.8172801   8.3720808  34.7977419  80.4221669
   7.2552643  51.4295559  75.0595863   7.4949242  52.0614083  75.7374882
   6.4121840  51.0783599  75.3461222   8.3706359  34.1220161  63.7277668
   7.4935825  34.0008962  63.3639915   8.8464112  33.3306239  63.4756557
  18.2379352  42.5773229  80.4976124  17.3506131  42.2399151  80.6202523
  18.8077903  41.8456260  80.7344889   4.6943221  33.7987517  78.2504199
   4.6101410  33.1913187  77.5154609   3.8725927  34.2896536  78.2513695
  11.7680505  47.2374681  77.4637367  11.6950677  48.0429653  77.9756672
  11.3257898  47.4366647  76.6385389  11.5570285  46.4746451  70.9740189
  10.7737807  47.0168132  71.0678413  12.2563030  46.9920431  71.3734430
  14.8666935  32.2841081  73.6174394  15.3635634  31.5311043  73.2975464
  14.0953916  32.3205398  73.0517603  22.7196692  37.9881446  75.2592686
  22.7086569  38.8706162  74.8886619  21.8514072  37.6352997  75.0647223
  14.2279189  47.1361515  79.6195526  14.9407161  47.7708980  79.5471427
  13.7369217  47.2325381  78.8035528  15.9496716  41.0412768  71.1912817
  15.0152994  41.1614231  71.0217522  16.1273384  40.1385235  70.9272827
  11.4501904  34.4258464  73.3446079  11.0799691  33.8729504  74.0326984
  11.9460996  33.8216597  72.7921079  19.3369267  36.8830087  71.7262852
  19.8029719  37.7158079  71.6523154  19.7876767  36.4175069  72.4308110
   9.2791102  44.8855959  80.4401097   9.9800562  45.5192442  80.5930491
   8.8086217  45.2270690  79.6796736  17.4045498  43.2273909  68.7249004
  17.6805342  43.1130503  69.6342878  16.5349997  42.8291394  68.6861177
  17.3085930  29.2510674  75.7653753  16.3949010  29.4814901  75.9335960
  17.7379031  29.3349118  76.6167785  17.0792388  37.4400566  78.2653647
  16.4263838  37.6876474  77.6106100  17.4572768  36.6264705  77.9316124
  14.0399562  47.4760260  72.3681817  14.2221957  46.6581915  72.8309570
  14.8632548  47.6927952  71.9306707  14.3741728  46.4028445  69.6296866
  14.9029494  45.8920899  69.0167028  14.6369947  46.0870975  70.4942399
  13.1279961  38.1820377  84.7519684  12.4520598  38.0814507  85.4222059
  13.9507595  38.0259591  85.2155681   4.8758820  44.4192314  77.3732199
   5.4612257  43.6736002  77.5060104   4.6783659  44.7296271  78.2568863
   7.7297476  47.4543561  72.3894642   7.0607851  47.9389689  71.9058682
   7.5910345  47.7012782  73.3038020  11.8702744  49.4887305  78.9877300
  12.4221052  49.6518926  79.7526385  12.2108938  50.0791743  78.3157325
   6.8467237  31.8362455  79.5899185   6.9108564  32.6977286  79.1776582
   6.7834358  31.2236456  78.8571543   6.3219510  33.9085587  83.2372219
   6.9491549  33.5262665  83.8509743   5.4647429  33.6899789  83.6027912
  16.7213618  44.3148562  84.8425954  17.2653522  44.9278521  84.3480909
  16.1400463  44.8728141  85.3592967   3.0985053  35.7162016  69.1690574
   3.3938494  34.8072695  69.1157628   2.1973088  35.6949756  68.8471576
  15.0071131  47.4369280  75.9740982  14.8822271  46.6359020  75.4651928
  15.6650223  47.9315474  75.4854952   6.6279300  33.7918013  75.1518122
   5.9065885  34.4053981  75.0125596   7.4172555  34.3275778  75.0734768
  17.0706040  45.2378300  77.6020532  16.1236375  45.1183652  77.5298859
  17.4188813  44.3500799  77.6846794   9.4305613  31.1272439  81.4258774
   9.9540015  31.3734736  82.1885084   9.2117946  31.9592474  81.0061912
   4.8272894  33.3976114  69.2929899   4.4985600  32.5173493  69.1105005
   5.1812265  33.3423783  70.1806288  14.0752473  45.0331017  73.8024885
  13.9277436  44.1047724  73.9832455  14.9005967  45.0551107  73.3181960
   7.9414717  33.6849084  69.6605377   8.2810790  34.2135005  68.9383985
   8.3886838  34.0229490  70.4363943  17.6786595  45.8559575  74.8889757
  18.6033142  45.6502437  74.7514208  17.5101898  45.6075977  75.7979099
  10.6358158  32.0686135  79.1108445  10.2954979  31.2693948  79.5129125
   9.9297164  32.3687845  78.5385278  11.2874630  29.1535447  77.5635768
  12.1100699  28.6795925  77.4414658  11.5312694  29.9325931  78.0634454
   9.9282865  32.1823705  67.8598669  10.6491227  32.5604958  67.3562386
   9.3048169  32.9012582  67.9633647  14.0713987  32.8868854  68.7957002
  14.2877602  33.7693492  68.4945830  13.5908055  32.4955068  68.0662644
   8.8113209  35.8454568  75.3727746   8.6657790  36.1594871  76.2652028
   8.3338412  36.4639468  74.8198645  10.6709592  32.8357116  75.4208636
  10.6571160  31.9398209  75.0840934  11.3882020  32.8427779  76.0546922
  12.5235722  33.2694456  77.4661763  12.2653500  34.1911526  77.4646094
  11.9920763  32.8724890  78.1562227  17.4681911  46.3745243  70.2451849
  17.6418789  45.8091665  69.4925701  17.9610802  47.1746138  70.0631339
   3.2858871  38.3859912  78.3115408   2.7412339  39.1619720  78.4435682
   4.1638221  38.7330716  78.1534529  10.0746488  31.7171496  70.6896206
  10.1962399  30.7888142  70.8887094   9.7848530  31.7310182  69.7774521
  12.9437678  29.4026406  73.8262926  12.9659375  29.4665739  72.8714905
  13.3605737  28.5630915  74.0203432  23.3221302  39.1381666  71.8642148
  23.7652448  38.3888991  71.4661272  22.4447813  39.1291802  71.4815880
  18.4557084  45.6912007  67.3448747  19.1507988  46.3118700  67.5636062
  18.7980234  44.8407359  67.6201125   4.0724893  37.5129808  81.2045564
   3.3306629  37.6612444  81.7910195   3.7517637  37.7738074  80.3412314
  20.3548507  43.1411713  68.8736078  20.8799831  43.4798986  68.1485398
  20.2670859  42.2058728  68.6899212  12.0168555  47.0545786  81.0025954
  12.3255682  46.8094933  81.8748654  12.8144037  47.2592425  80.5144825
  12.0389168  49.2083696  73.2331331  11.5994158  48.7160075  73.9264188
  12.7897284  48.6656664  72.9923406   4.5181506  45.3995237  73.2355959
   5.3439526  45.0999009  72.8554603   4.1675558  44.6302859  73.6845748
   9.4863040  44.7521705  75.3053633   8.8643049  44.0892410  75.0055861
  10.1567907  44.7782837  74.6227280   2.7190112  43.3181563  74.1944893
   1.8822020  42.8903738  74.0128894   2.6913757  43.5114007  75.1315684
   9.5587567  33.2303493  84.8986139   9.6075723  34.1065616  84.5163908
  10.1010081  32.6880886  84.3257782  20.0442413  43.7744616  84.1787276
  19.2537957  43.7568755  83.6391775  19.8075767  44.3132910  84.9336312
  20.1640288  40.6237083  81.4920004  20.2138293  40.4587090  82.4335527
  20.0554211  39.7564342  81.1017885   9.0476547  43.3025629  68.7812093
   9.1964667  43.9861093  68.1278766   9.8542990  43.2830719  69.2961549
  17.4544050  36.6068011  82.8079311  18.3553913  36.4674476  82.5163309
  17.5292025  36.7722466  83.7477488  11.7886856  33.9834866  81.6532497
  10.9190165  34.2768432  81.3815086  12.0246336  34.5675311  82.3739761
  21.6658485  43.0434024  81.7362026  21.3743293  43.4064005  82.5725487
  21.0530616  42.3301033  81.5575358  22.8654167  40.6086904  74.2564596
  23.7001058  41.0476708  74.4202156  23.0013296  40.1325557  73.4372842
  19.9145673  38.1666639  80.2042084  20.3899795  38.3594285  79.3960935
  18.9911238  38.2225825  79.9585467   6.8029180  39.3290806  69.7873162
   6.5575221  38.4253136  69.9853372   6.9725094  39.3307957  68.8452640
  14.4925889  30.2014483  79.1697918  15.0107833  30.9375509  78.8444406
  14.1381022  30.5078476  80.0044677   6.0724827  35.0619164  67.2859324
   5.3794072  35.1363519  66.6299360   5.8276579  34.2979507  67.8080840
  14.7438484  26.6214765  74.6898814  15.0240237  25.9537954  75.3159241
  15.5289091  26.8143861  74.1773478  12.5471952  45.7973759  66.2523841
  11.9745919  46.4163946  65.7994312  13.1204746  46.3473121  66.7863763
  18.6147342  35.0432399  78.4370389  19.5664765  35.1430497  78.4582613
  18.4450792  34.2510668  78.9468474  16.6361721  32.1287982  78.6229790
  16.0411654  32.4092995  77.9276279  16.3511418  32.6181883  79.3946531
  15.7669212  46.0810909  67.3832423  16.6999885  46.0156471  67.5865298
  15.6792425  46.9167176  66.9246956  18.3957229  45.3976779  64.3436370
  18.3170860  45.0636643  65.2372128  19.2166895  45.8898547  64.3427843
  21.0935420  38.2638519  77.5512689  21.0611740  37.3254519  77.7372373
  21.7036043  38.3422555  76.8178514  12.9318751  37.1334572  63.5939893
  13.8777855  37.0040780  63.6628311  12.5532996  36.3949234  64.0709321
  21.2429908  35.0549562  77.5970972  20.7268957  34.2708019  77.4100901
  22.1269857  34.7268279  77.7617492  18.9040635  28.7990578  73.5566785
  18.7065456  28.4905666  74.4410117  19.5140341  29.5252217  73.6864715
  26.9111970  39.3254526  76.6918726  27.6415358  39.0639814  77.2526429
  26.3018915  38.5883248  76.7320794  24.9927267  37.4662388  77.2893177
  24.2660430  37.3318353  76.6809669  24.5774554  37.7739217  78.0949895
  12.8157443  41.1852318  85.0540550  13.7360453  41.3630917  85.2480597
  12.7807026  40.2408363  84.9020249  11.1161668  35.0584548  63.5294778
  10.2093123  34.7617661  63.6057492  11.3937649  34.7614366  62.6629065
   2.0339608  36.3790912  73.9793825   1.7142392  35.5256220  73.6868199
   1.4873036  36.5939490  74.7351792   5.8119516  39.0953353  77.6963331
   6.0305525  40.0270460  77.7151365   6.2245289  38.7361327  78.4818135
  12.7323733  29.6021438  69.6839020  11.9224462  29.2568523  70.0594266
  13.4208150  29.2928982  70.2726631  14.6614282  28.6799485  71.3063316
  15.2145320  29.0994938  71.9653339  14.8984368  27.7535233  71.3486272
  10.6847381  34.6686558  87.0866080  10.5844108  35.6180915  87.0178171
  10.4668923  34.3404797  86.2142150   9.8860452  31.9171483  63.6706758
  10.7479616  32.2426382  63.9302575  10.0710797  31.1302979  63.1579823
   1.9027868  39.9993823  75.9486946   1.2091340  39.5847776  75.4356901
   2.6500859  40.0414360  75.3520365  18.0393089  30.7900010  70.8141981
  17.4591758  31.4484814  70.4320033  17.7729022  29.9677354  70.4029398
  16.4896655  30.1905068  73.0163301  16.9896434  30.3021602  72.2077620
  17.1332263  29.8866120  73.6564109  10.5478651  38.0983697  85.9031142
  10.0645733  38.8984057  86.1095031  10.6339590  38.1091642  84.9498586
   3.8164611  39.9312077  73.8252961   3.7935299  40.0299764  72.8734844
   4.1265247  40.7777228  74.1470127   6.4751989  41.9888232  77.9399576
   7.4295242  41.9572174  77.8729507   6.2764512  41.5278856  78.7549802
   7.0651371  40.5589348  80.5070373   7.8844260  41.0533427  80.5305211
   7.3388178  39.6421316  80.4787941  16.8217967  32.9500100  69.8698329
  15.9343822  33.2349751  69.6518524  17.2371956  32.7893864  69.0225606
  20.1732503  32.9746621  73.5852668  20.9492893  33.4643074  73.8577285
  19.4480637  33.4004675  74.0424538  22.6105062  33.6874240  74.6426609
  23.2049552  33.4469976  73.9319917  22.6831645  32.9681371  75.2700145
   4.8302217  47.5307851  74.9569773   4.6956685  46.7708252  74.3907772
   4.4134280  48.2548751  74.4898562  15.9661180  42.7144775  63.9646349
  16.6697030  42.9194777  64.5804004  15.2423829  43.2821537  64.2295432
  16.7958991  38.4654636  70.0848619  16.7394192  38.9223188  69.2456251
  17.3487333  37.7045321  69.9071462  20.6063797  34.2544368  70.9098738
  20.3500731  33.8541004  71.7406946  19.9816665  34.9688162  70.7848878
  24.9176134  36.9940441  73.4170030  24.3575692  37.0633631  74.1901592
  24.3119638  36.8181426  72.6969526   7.9871343  48.4277168  75.1688216
   7.8703727  49.3722601  75.0666906   7.1663789  48.1250730  75.5574015
  17.8747878  43.1527304  66.0144809  18.7093482  42.7208503  65.8322284
  17.7132221  42.9809318  66.9421703  17.5293770  39.6559417  67.3801148
  17.4742574  39.4903689  66.4389592  16.9039825  40.3635450  67.5363338
   2.3186285  34.8927482  81.2062570   2.9645149  34.3826436  81.6949796
   2.1103436  35.6296163  81.7805996  14.8439677  41.9608329  86.7054711
  15.7130837  42.1348982  86.3441346  14.3646429  42.7802746  86.5830440
  10.8389895  29.1567526  66.9586467  10.8268565  30.1009366  67.1154737
  11.7313317  28.9737672  66.6645928   9.0125857  49.0805430  78.3844145
   9.9153104  49.1129040  78.7010640   8.7863227  48.1505881  78.3990480
  10.7679459  47.8336417  75.0454223   9.8175090  47.8338278  74.9318595
  11.0711945  47.0869151  74.5290258  14.6542015  25.7510303  71.2132403
  13.8874411  25.1968790  71.3589086  15.0652720  25.8232172  72.0746555
   6.6583776  32.0395099  85.3037585   7.5215237  31.6831904  85.5140909
   6.0849187  31.7008994  85.9912989  26.5032153  53.6696955  76.1099986
  27.1410563  53.5503703  75.4063326  26.3852996  54.6177799  76.1687938
  23.3121859  53.6224383  76.0461510  22.9740371  53.5065448  75.1582045
  24.1811627  53.2215548  76.0262516  19.1708675  55.4759860  72.0358401
  18.6073540  55.3849797  71.2674689  19.0561070  54.6559764  72.5160894
  23.7941642  54.7759235  82.0047716  23.7830283  54.3812033  81.1328219
  23.9562282  54.0425308  82.5981487  16.7173107  56.9711051  74.8742622
  17.5094399  56.6301876  74.4588921  16.9569757  57.0806026  75.7944775
  24.7508234  59.1430827  67.3472866  24.0996213  59.7284908  66.9606880
  25.5452596  59.6737022  67.4067904  18.6763861  56.2319965  67.7460000
  19.4494737  55.6848952  67.6072876  19.0289260  57.0964214  67.9574462
  20.5148903  57.5596347  80.9526900  20.2238769  58.4641978  80.8373566
  21.1505888  57.6012874  81.6670969  21.4405110  54.9373195  77.5428259
  22.0368682  54.7129218  76.8285222  21.4980082  54.1957941  78.1453707
  21.0130139  52.3912631  65.3778450  21.2655659  51.8694152  64.6161913
  20.0754698  52.2278776  65.4805134  26.0573421  51.3948409  73.1853194
  26.8436511  50.9767832  72.8343611  26.3212126  52.2994501  73.3534842
  26.2283499  56.8321259  67.8841850  25.5929332  56.9055886  68.5962755
  25.8980905  57.4214858  67.2060930  31.4581848  51.3323642  74.0886172
  32.1907020  50.7622859  74.3224002  30.7021204  50.9445243  74.5292678
  20.7326427  54.2940737  67.5802825  20.6162685  53.6185640  68.2483910
  20.8428687  53.8073111  66.7634978  23.0757968  53.7550884  71.2849515
  22.7116175  53.2281505  71.9962436  23.9325084  53.3649353  71.1116000
  28.9807269  45.0445216  78.5480781  28.6490594  45.9140627  78.3241996
  28.3852882  44.7281500  79.2274811  22.7163455  48.7840783  66.2810863
  22.8837858  49.6521020  66.6481334  22.5260624  48.9468065  65.3572152
  25.4738788  57.2457762  77.9476693  25.1739511  58.1482801  77.8392501
  25.1289848  56.9789946  78.7997846  18.9251270  53.6971559  73.9813398
  18.0001766  53.5647773  74.1891090  19.1735683  54.4765778  74.4783340
  28.8735932  49.7640303  75.6274131  27.9652809  49.6955711  75.3332892
  28.8223528  50.2412247  76.4555956  22.6952676  51.2398441  67.2657530
  22.5752301  51.6855492  68.1043010  22.0005264  51.5883759  66.7071068
  16.2860081  53.3404833  74.8157187  16.4152462  53.5939312  75.7296599
  15.6057532  53.9332541  74.4961842  20.4559568  64.0102083  70.9147661
  20.3783598  64.9609908  70.9936142  19.8521212  63.6647955  71.5722587
  22.9476798  51.1829948  83.5709028  22.1710132  51.7423868  83.5611893
  23.5867361  51.6686731  84.0923898  30.7397579  47.9656741  77.4052005
  30.0971959  48.2589274  76.7591799  30.2352507  47.8509661  78.2105201
  28.3937742  51.7119914  68.0937864  29.3055598  51.9447301  67.9185562
  27.8847389  52.2956958  67.5312943  21.2023170  53.9915401  83.1326995
  21.9437855  54.5300445  82.8561819  20.4960156  54.6181690  83.2898547
  26.6778510  56.1344542  81.7299157  27.0861866  55.6926952  80.9853789
  25.9555771  55.5597169  81.9833349  23.0309580  51.0717149  79.1032713
  23.8770775  51.4956562  79.2467362  22.9708218  50.4150773  79.7971277
  27.0007324  56.6945733  75.4851445  26.3716187  56.8591447  74.7827513
  26.6132987  57.1087342  76.2562409  30.8796556  57.6300170  72.8395809
  30.1947595  58.0099072  72.2892843  30.9640406  58.2395497  73.5727757
  26.1809025  48.7321517  80.7613887  25.9369957  49.4863578  80.2248163
  26.4568956  49.1106865  81.5961134  28.1347488  55.2760129  79.4391153
  28.3464383  55.9191889  78.7625534  28.0877236  54.4422446  78.9713083
  25.7373717  47.8877950  76.3427725  24.8758196  48.1859204  76.6344462
  25.7636152  48.1048349  75.4108757  22.5535286  56.4320141  72.7501531
  23.0173632  56.7107844  71.9606153  22.2892084  55.5303585  72.5674621
  19.4459367  55.9791622  75.6881294  20.0160724  56.4078891  75.0498778
  20.0367479  55.6974207  76.3865479  21.4904172  52.5543293  69.5591096
  22.1928216  53.0064337  70.0265022  21.1584801  51.9127112  70.1870989
  19.9384534  51.1455050  83.9342305  19.3083195  51.8271330  84.1677702
  19.8320622  51.0338131  82.9895443  15.2329506  50.8126846  74.8608229
  14.4428560  51.0684374  74.3848340  15.7240754  51.6275184  74.9660270
  29.2493316  58.1532085  77.6113510  30.0710760  57.7512272  77.3296192
  29.2455719  58.0500319  78.5629626  17.1844252  51.1771425  71.8191706
  16.3875415  51.2890119  72.3375202  16.9569844  51.5158077  70.9532596
  23.0149919  57.7016128  79.7674221  23.0794352  58.1636535  80.6032392
  22.3060843  57.0713493  79.8956530  13.5167209  51.0657336  77.2923220
  13.7675248  51.9504346  77.5580796  14.0526758  50.8861938  76.5198312
  22.7297937  59.3684236  69.6353201  22.5943612  60.2135771  70.0638049
  23.2707750  59.5703513  68.8719135  19.2165277  45.4475815  86.2967556
  18.8232222  44.8942014  86.9715200  20.0331417  45.7586394  86.6874074
  16.1827334  56.8859674  70.2081126  16.6951855  57.6802924  70.3586691
  16.8350047  56.1885964  70.1414727  17.9922219  60.0025430  72.2903879
  18.1688847  60.9243395  72.1024863  18.7879053  59.6883849  72.7198259
  22.1333238  46.8633695  83.8887813  22.8742951  47.4640848  83.8092275
  22.3651160  46.1211332  83.3305855  17.2774576  52.0490062  82.1666042
  17.1628091  51.1475319  82.4673141  16.4219093  52.2953759  81.8150859
  24.3566413  59.9907802  83.7653543  23.9130268  59.2044181  83.4474447
  25.0183627  60.1786953  83.0997434  19.1153535  61.5203604  78.2914221
  19.6660960  61.3920667  77.5191215  18.2765011  61.8198493  77.9409114
  26.4547651  60.2710602  81.7934944  26.4366127  61.0919483  81.3015213
  27.3767572  60.1464677  82.0185085  22.9120706  57.7854732  82.6358453
  23.4449042  57.0243020  82.4057761  22.3834787  57.4928383  83.3782607
  26.0790401  42.8914797  78.1652094  25.7354670  43.7816439  78.0891205
  26.4469363  42.7016455  77.3021679  14.1476251  55.2148328  70.9840697
  14.9851473  55.6245336  70.7674404  14.3254519  54.2747770  70.9540890
  26.0440683  52.8823409  66.6724529  25.5287307  53.6528013  66.9112917
  25.7717992  52.2088545  67.2957591  23.6287794  47.7273109  71.7309768
  22.7729391  47.3379960  71.5515407  24.0414746  47.8065070  70.8709553
  25.1586941  45.2619453  76.1301328  24.6551737  45.2249588  75.3169133
  25.4517548  46.1712195  76.1897984  21.4029827  45.3458182  75.1367509
  22.2682824  45.1500991  74.7773399  21.4707336  45.1168534  76.0636866
  31.0174957  55.6355763  68.6077703  30.2404400  55.2966923  68.1632865
  31.6966438  55.6408386  67.9332668  25.8326986  50.7550501  68.4984311
  25.5277122  51.0696650  69.3494454  26.7857429  50.8331921  68.5411644
  24.2773418  56.9140724  70.1477265  23.7494780  56.1793484  69.8350502
  23.7760921  57.6915400  69.9017233  29.2566264  55.1089745  75.2644311
  28.5989939  55.7989006  75.3524440  30.0606664  55.4986176  75.6078297
  19.0092146  47.5760390  72.5083876  19.5835898  47.3535572  71.7757069
  19.5963128  47.6449085  73.2612477  28.0671723  53.4634117  73.3148253
  28.5803605  54.0964109  73.8169962  28.7172947  52.8635313  72.9491613
  19.3361733  49.6064851  66.5279761  18.4999045  49.9439538  66.8489036
  19.1966503  49.4713831  65.5906898  21.3114814  44.4501639  71.2358946
  20.6579226  44.1350656  70.6115560  21.2695288  43.8277380  71.9618769
  22.4226019  54.7320934  63.1512238  21.5153080  54.5010188  63.3503387
  22.9197051  53.9358554  63.3386219  25.3294097  63.4418441  66.0708924
  24.6555796  63.7450138  66.6793882  25.7159919  64.2447522  65.7214381
  24.5452554  50.9383573  75.5606593  23.6275115  51.1598520  75.4028281
  24.9612698  51.0129883  74.7018301  25.3287602  52.3374988  70.6909273
  26.0759421  52.8496386  70.3816396  25.5979191  52.0159041  71.5513667
  23.6014252  54.8333529  67.6736228  22.6925471  54.5492562  67.7708697
  23.6309336  55.2532608  66.8139535  28.8333519  58.4440119  71.4427395
  28.3795846  57.6031029  71.4992586  28.2027486  59.0801517  71.7802175
  27.7766439  49.3732105  72.6728063  27.0389196  48.8609491  73.0038305
  28.0293212  48.9332486  71.8611340  27.2766459  60.2816615  72.3777213
  27.5689433  60.8421672  71.6589579  27.7865079  60.5745176  73.1330373
  27.8778066  42.1508357  73.2669832  28.1836943  41.2905720  72.9795747
  28.6030671  42.7425977  73.0668826  14.1702422  52.5539043  71.6551430
  13.9726822  51.9608404  70.9302497  13.6149086  52.2491253  72.3727369
  22.1499146  52.4462150  73.7746023  22.2047756  51.4935986  73.6988500
  21.3390348  52.6021589  74.2587322  23.2990340  56.3742273  65.0124306
  22.8609770  55.6578132  64.5529944  24.0400781  56.6018388  64.4509398
  20.0891506  51.0639209  71.5336402  19.2759371  51.3633380  71.9401594
  20.5850500  50.6694898  72.2510884  22.2400084  61.0596966  73.4670667
  22.1976263  61.2857813  72.5379199  23.1562783  60.8260341  73.6156468
  25.6865718  51.5281034  80.3651296  26.0415105  51.7552507  81.2245762
  26.3337849  51.8599411  79.7428551  31.4163455  54.6499470  71.0700625
  31.2781353  54.8401066  70.1421814  31.0599673  55.4118853  71.5268676
  19.5805581  48.6357565  77.1497637  20.2204960  48.4946324  76.4520600
  18.7483111  48.3492078  76.7736239  31.4432834  56.7175997  76.0811896
  31.8769341  56.6251286  76.9294950  32.1564415  56.6933497  75.4431912
  20.3565885  57.9359995  73.2632629  21.1506483  57.4410316  73.0615204
  19.6457577  57.4077859  72.9000335  25.1760729  60.3178091  77.6144997
  25.2297751  60.8869027  78.3822713  24.3075510  60.4879976  77.2499034
  16.6648648  52.0803077  69.3392382  15.7346236  52.0187533  69.5562344
  16.7606120  51.5579030  68.5429023  16.5834197  48.6057890  71.9270624
  16.8441014  49.5203223  71.8179784  17.4051369  48.1382333  72.0767237
  18.0559122  50.0195647  79.0969448  18.7282176  49.8113009  78.4482097
  17.2288909  49.8217733  78.6574681  32.3048384  56.7599698  78.6144782
  32.4984274  57.6645508  78.8604057  32.2049002  56.3007117  79.4483367
  23.9584694  46.6457588  81.1135109  23.3112609  47.3447538  81.0199586
  24.7285710  47.0793732  81.4811357  27.3663492  56.9106440  84.1885662
  27.2148999  56.6816992  83.2715746  27.3568172  57.8677042  84.2017007
  24.1348829  54.4838353  79.1731929  25.0640889  54.6349513  79.0000896
  23.7139859  54.5722374  78.3180575  22.9337161  58.5089017  76.9430466
  22.7948246  58.1407802  77.8156405  22.1451757  59.0236657  76.7714424
  23.5285313  63.6098114  68.2856003  23.7037068  63.1386157  69.1001626
  22.8418101  64.2363880  68.5137264  24.4842376  57.8870620  74.3319304
  24.1492208  57.8471390  75.2276954  23.9846321  57.2215336  73.8589714
  18.4586620  53.2938250  79.8571885  18.3206418  52.5618489  80.4583424
  19.3691543  53.2047150  79.5756073  27.4201567  55.2326654  64.6056364
  26.8030738  54.5073483  64.5089417  26.9518056  55.9936015  64.2623438
  21.0868920  53.0058209  79.3455565  21.7968539  52.3651402  79.3042183
  21.0438229  53.2571104  80.2681746  29.0755699  59.9425563  82.2662144
  29.0168245  59.2584783  81.5992727  29.4775217  60.6844553  81.8142770
  19.7997854  49.9923427  81.1651205  19.2635211  49.5414166  81.8172801
  19.2114563  50.1269336  80.4221669  18.0946398  66.7587477  75.0595863
  18.3342996  67.3906001  75.7374882  17.2515594  66.4075517  75.3461222
  19.2100113  49.4512079  63.7277668  18.3329580  49.3300880  63.3639915
  19.6857866  48.6598157  63.4756557  29.0773106  57.9065147  80.4976124
  28.1899885  57.5691069  80.6202523  29.6471657  57.1748178  80.7344889
  10.7302253  54.2389238  73.8219175  11.4173293  53.9250969  73.2340191
  10.5750382  55.1430603  73.5486427  15.5336976  49.1279435  78.2504199
  15.4495164  48.5205105  77.5154609  14.7119682  49.6188453  78.2513695
  22.6074260  62.5666599  77.4637367  22.5344431  63.3721571  77.9756672
  22.1651653  62.7658565  76.6385389  22.3964039  61.8038369  70.9740189
  21.6131561  62.3460049  71.0678413  23.0956785  62.3212349  71.3734430
  25.7060689  47.6132999  73.6174394  26.2029389  46.8602961  73.2975464
  24.9347671  47.6497315  73.0517603  33.5590447  53.3173364  75.2592686
  33.5480323  54.1998080  74.8886619  32.6907826  52.9644915  75.0647223
  26.7890470  56.3704686  71.1912817  25.8546749  56.4906148  71.0217522
  26.9667139  55.4677153  70.9272827  22.2895658  49.7550382  73.3446079
  21.9193446  49.2021422  74.0326984  22.7854751  49.1508515  72.7921079
  30.1763021  52.2122005  71.7262852  30.6423474  53.0449997  71.6523154
  30.6270522  51.7466987  72.4308110  20.1184857  60.2147877  80.4401097
  20.8194316  60.8484360  80.5930491  19.6479972  60.5562608  79.6796736
  28.2439253  58.5565826  68.7249004  28.5199096  58.4422421  69.6342878
  27.3743751  58.1583311  68.6861177  28.1479684  44.5802592  75.7653753
  27.2342764  44.8106819  75.9335960  28.5772786  44.6641036  76.6167785
  27.9186143  52.7692484  78.2653647  27.2657593  53.0168391  77.6106100
  28.2966523  51.9556622  77.9316124  24.8793317  62.8052177  72.3681817
  25.0615711  61.9873833  72.8309570  25.7026303  63.0219869  71.9306707
  25.2135482  61.7320362  69.6296866  25.7423249  61.2212817  69.0167028
  25.4763702  61.4162893  70.4942399  23.9673716  53.5112295  84.7519684
  23.2914353  53.4106424  85.4222059  24.7901350  53.3551509  85.2155681
  15.7152575  59.7484232  77.3732199  16.3006012  59.0027920  77.5060104
  15.5177413  60.0588188  78.2568863  18.5691230  62.7835479  72.3894642
  17.9001605  63.2681607  71.9058682  18.4304100  63.0304699  73.3038020
  10.3070230  52.3189832  76.0936642  10.3454329  51.7853423  76.8873761
   9.8010522  51.7925037  75.4747620  17.6860992  47.1654372  79.5899185
  17.7502318  48.0269203  79.1776582  17.6228112  46.5528374  78.8571543
  17.1613264  49.2377505  83.2372219  17.7885303  48.8554582  83.8509743
  16.3041183  49.0191707  83.6027912  13.9378807  51.0453934  69.1690574
  14.2332248  50.1364612  69.1157628  13.0366843  51.0241673  68.8471576
  17.4673054  49.1209931  75.1518122  16.7459640  49.7345898  75.0125596
  18.2566310  49.6567695  75.0734768  27.9099794  60.5670218  77.6020532
  26.9630130  60.4475569  77.5298859  28.2582567  59.6792716  77.6846794
  20.2699368  46.4564357  81.4258774  20.7933769  46.7026654  82.1885084
  20.0511701  47.2884392  81.0061912  15.6666649  48.7268032  69.2929899
  15.3379355  47.8465411  69.1105005  16.0206019  48.6715700  70.1806288
  24.9146228  60.3622934  73.8024885  24.7671190  59.4339642  73.9832455
  25.7399721  60.3843025  73.3181960  18.7808472  49.0141001  69.6605377
  19.1204544  49.5426923  68.9383985  19.2280592  49.3521408  70.4363943
  28.5180349  61.1851493  74.8889757  29.4426897  60.9794354  74.7514208
  28.3495653  60.9367894  75.7979099  21.4751913  47.3978052  79.1108445
  21.1348733  46.5985865  79.5129125  20.7690919  47.6979763  78.5385278
  22.1268385  44.4827365  77.5635768  22.9494454  44.0087843  77.4414658
  22.3706448  45.2617848  78.0634454  20.7676619  47.5115623  67.8598669
  21.4884982  47.8896876  67.3562386  20.1441923  48.2304500  67.9633647
  24.9107742  48.2160772  68.7957002  25.1271356  49.0985410  68.4945830
  24.4301809  47.8246985  68.0662644  19.6506963  51.1746485  75.3727746
  19.5051544  51.4886788  76.2652028  19.1732167  51.7931386  74.8198645
  21.5103346  48.1649033  75.4208636  21.4964915  47.2690127  75.0840934
  22.2275774  48.1719697  76.0546922  23.3629477  48.5986373  77.4661763
  23.1047255  49.5203444  77.4646094  22.8314517  48.2016808  78.1562227
  28.3075666  61.7037161  70.2451849  28.4812543  61.1383583  69.4925701
  28.8004557  62.5038055  70.0631339  14.1252625  53.7151830  78.3115408
  13.5806094  54.4911638  78.4435682  15.0031975  54.0622634  78.1534529
  20.9140242  47.0463414  70.6896206  21.0356153  46.1180060  70.8887094
  20.6242284  47.0602099  69.7774521  23.7831432  44.7318324  73.8262926
  23.8053129  44.7957657  72.8714905  24.1999491  43.8922833  74.0203432
  34.1615057  54.4673584  71.8642148  34.6046203  53.7180909  71.4661272
  33.2841567  54.4583720  71.4815880  29.2950838  61.0203925  67.3448747
  29.9901743  61.6410618  67.5636062  29.6373988  60.1699276  67.6201125
  14.9118647  52.8421726  81.2045564  14.1700383  52.9904361  81.7910195
  14.5911392  53.1029992  80.3412314  31.1942261  58.4703630  68.8736078
  31.7193585  58.8090903  68.1485398  31.1064614  57.5350646  68.6899212
  22.8562310  62.3837704  81.0025954  23.1649436  62.1386851  81.8748654
  23.6537792  62.5884343  80.5144825  22.8782922  64.5375614  73.2331331
  22.4387912  64.0451992  73.9264188  23.6291039  63.9948581  72.9923406
  15.3575261  60.7287155  73.2355959  16.1833281  60.4290926  72.8554603
  15.0069313  59.9594777  73.6845748  20.3256794  60.0813623  75.3053633
  19.7036803  59.4184328  75.0055861  20.9961661  60.1074755  74.6227280
  13.5583866  58.6473481  74.1944893  12.7215774  58.2195655  74.0128894
  13.5307511  58.8405924  75.1315684  20.3981322  48.5595411  84.8986139
  20.4469477  49.4357534  84.5163908  20.9403836  48.0172804  84.3257782
  31.0034042  55.9529001  81.4920004  31.0532047  55.7879008  82.4335527
  30.8947966  55.0856260  81.1017885  19.8870301  58.6317546  68.7812093
  20.0358421  59.3153011  68.1278766  20.6936745  58.6122636  69.2961549
  28.2937805  51.9359929  82.8079311  29.1947668  51.7966393  82.5163309
  28.3685779  52.1014383  83.7477488  22.6280610  49.3126783  81.6532497
  21.7583919  49.6060349  81.3815086  22.8640090  49.8967228  82.3739761
  32.5052239  58.3725942  81.7362026  32.2137048  58.7355923  82.5725487
  31.8924370  57.6592950  81.5575358  33.7047922  55.9378822  74.2564596
  34.5394813  56.3768626  74.4202156  33.8407050  55.4617475  73.4372842
  30.7539427  53.4958557  80.2042084  31.2293549  53.6886203  79.3960935
  29.8304993  53.5517742  79.9585467  17.6422934  54.6582724  69.7873162
  17.3968976  53.7545054  69.9853372  17.8118849  54.6599874  68.8452640
  25.3319644  45.5306400  79.1697918  25.8501588  46.2667427  78.8444406
  24.9774777  45.8370394  80.0044677  16.9118582  50.3911081  67.2859324
  16.2187827  50.4655436  66.6299360  16.6670333  49.6271425  67.8080840
  25.5832238  41.9506683  74.6898814  25.8633992  41.2829872  75.3159241
  26.3682845  42.1435778  74.1773478  23.3865707  61.1265677  66.2523841
  22.8139674  61.7455864  65.7994312  23.9598500  61.6765038  66.7863763
  29.4541096  50.3724317  78.4370389  30.4058519  50.4722414  78.4582613
  29.2844547  49.5802585  78.9468474  27.4755476  47.4579900  78.6229790
  26.8805408  47.7384913  77.9276279  27.1905173  47.9473801  79.3946531
  26.6062966  61.4102827  67.3832423  27.5393640  61.3448388  67.5865298
  26.5186179  62.2459094  66.9246956  29.2350983  60.7268697  64.3436370
  29.1564615  60.3928561  65.2372128  30.0560650  61.2190465  64.3427843
  31.9329174  53.5930436  77.5512689  31.9005494  52.6546437  77.7372373
  32.5429798  53.6714473  76.8178514  23.7712505  52.4626489  63.5939893
  24.7171610  52.3332698  63.6628311  23.3926750  51.7241151  64.0709321
  29.7434390  44.1282495  73.5566785  29.5459211  43.8197584  74.4410117
  30.3534095  44.8544134  73.6864715  23.6551198  56.5144236  85.0540550
  24.5754207  56.6922835  85.2480597  23.6200781  55.5700281  84.9020249
  21.9555422  50.3876466  63.5294778  21.0486878  50.0909579  63.6057492
  22.2331403  50.0906284  62.6629065  12.8733363  51.7082829  73.9793825
  12.5536147  50.8548137  73.6868199  12.3266791  51.9231407  74.7351792
  16.6513270  54.4245270  77.6963331  16.8699280  55.3562378  77.7151365
  17.0639044  54.0653245  78.4818135  23.5717488  44.9313356  69.6839020
  22.7618216  44.5860440  70.0594266  24.2601905  44.6220899  70.2726631
  25.5008036  44.0091402  71.3063316  26.0539075  44.4286856  71.9653339
  25.7378123  43.0827150  71.3486272  21.5241135  49.9978476  87.0866080
  21.4237862  50.9472833  87.0178171  21.3062678  49.6696715  86.2142150
  20.7254207  47.2463401  63.6706758  21.5873371  47.5718299  63.9302575
  20.9104551  46.4594897  63.1579823  12.7421623  55.3285741  75.9486946
  12.0485094  54.9139693  75.4356901  13.4894614  55.3706277  75.3520365
  28.8786843  46.1191927  70.8141981  28.2985512  46.7776731  70.4320033
  28.6122776  45.2969272  70.4029398  27.3290410  45.5196985  73.0163301
  27.8290188  45.6313520  72.2077620  27.9726018  45.2158038  73.6564109
  21.3872406  53.4275615  85.9031142  20.9039487  54.2275975  86.1095031
  21.4733345  53.4383560  84.9498586  14.6558365  55.2603994  73.8252961
  14.6329053  55.3591682  72.8734844  14.9659002  56.1069145  74.1470127
  17.3145743  57.3180149  77.9399576  18.2688997  57.2864092  77.8729507
  17.1158267  56.8570773  78.7549802  17.9045125  55.8881266  80.5070373
  18.7238014  56.3825344  80.5305211  18.1781933  54.9713234  80.4787941
  27.6611721  48.2792018  69.8698329  26.7737576  48.5641668  69.6518524
  28.0765710  48.1185781  69.0225606  31.0126257  48.3038539  73.5852668
  31.7886648  48.7934991  73.8577285  30.2874392  48.7296593  74.0424538
  33.4498816  49.0166158  74.6426609  34.0443307  48.7761894  73.9319917
  33.5225400  48.2973289  75.2700145  15.6695972  62.8599769  74.9569773
  15.5350440  62.1000170  74.3907772  15.2528034  63.5840669  74.4898562
  26.8054935  58.0436693  63.9646349  27.5090785  58.2486695  64.5804004
  26.0817584  58.6113454  64.2295432  27.6352745  53.7946554  70.0848619
  27.5787947  54.2515105  69.2456251  28.1881088  53.0337238  69.9071462
  31.4457551  49.5836286  70.9098738  31.1894485  49.1832921  71.7406946
  30.8210419  50.2980080  70.7848878  18.8265098  63.7569086  75.1688216
  18.7097482  64.7014518  75.0666906  18.0057544  63.4542648  75.5574015
  28.7141632  58.4819222  66.0144809  29.5487236  58.0500420  65.8322284
  28.5525975  58.3101235  66.9421703  28.3687524  54.9851335  67.3801148
  28.3136328  54.8195606  66.4389592  27.7433580  55.6927368  67.5363338
  13.1580039  50.2219399  81.2062570  13.8038903  49.7118353  81.6949796
  12.9497191  50.9588081  81.7805996  25.6833432  57.2900247  86.7054711
  26.5524591  57.4640899  86.3441346  25.2040183  58.1094664  86.5830440
  21.6783650  44.4859444  66.9586467  21.6662320  45.4301284  67.1154737
  22.5707072  44.3029589  66.6645928  19.8519612  64.4097348  78.3844145
  20.7546859  64.4420958  78.7010640  19.6256982  63.4797799  78.3990480
  21.6073214  63.1628334  75.0454223  20.6568845  63.1630196  74.9318595
  21.9105700  62.4161069  74.5290258  25.4935769  41.0802221  71.2132403
  24.7268165  40.5260707  71.3589086  25.9046474  41.1524089  72.0746555
  17.4977530  47.3687016  85.3037585  18.3608992  47.0123821  85.5140909
  16.9242941  47.0300911  85.9912989  29.5157615  71.5611882  67.7460000
  30.2888491  71.0140869  67.6072876  29.8683014  72.4256132  67.9574462
  31.8523893  67.7204548  65.3778450  32.1049414  67.1986070  64.6161913
  30.9148452  67.5570694  65.4805134  31.5720182  69.6232654  67.5802825
  31.4556440  68.9477558  68.2483910  31.6822442  69.1365028  66.7634978
  33.5557210  64.1132701  66.2810863  33.7231612  64.9812937  66.6481334
  33.3654379  64.2759983  65.3572152  33.5346431  66.5690359  67.2657530
  33.4146056  67.0147409  68.1043010  32.8399019  66.9175676  66.7071068
  32.3297927  67.8835211  69.5591096  33.0321970  68.3356254  70.0265022
  31.9978555  67.2419030  70.1870989  28.0238006  66.5063343  71.8191706
  27.2269170  66.6182037  72.3375202  27.7963598  66.8449995  70.9532596
  36.9184155  58.2206715  78.1652094  36.5748424  59.1108357  78.0891205
  37.2863118  58.0308373  77.3021679  34.4681549  63.0565027  71.7309768
  33.6123145  62.6671877  71.5515407  34.8808501  63.1356988  70.8709553
  35.9980695  60.5911370  76.1301328  35.4945491  60.5541505  75.3169133
  36.2911302  61.5004113  76.1897984  29.8485900  62.9052308  72.5083876
  30.4229652  62.6827489  71.7757069  30.4356883  62.9741002  73.2612477
  30.1755488  64.9356769  66.5279761  29.3392800  65.2731456  66.8489036
  30.0360257  64.8005749  65.5906898  32.1508568  59.7793557  71.2358946
  31.4972980  59.4642574  70.6115560  32.1089042  59.1569297  71.9618769
  25.0096177  67.8830961  71.6551430  24.8120577  67.2900322  70.9302497
  24.4542841  67.5783171  72.3727369  30.9285260  66.3931127  71.5336402
  30.1153126  66.6925298  71.9401594  31.4244255  65.9986816  72.2510884
  27.5042403  67.4094995  69.3392382  26.5739991  67.3479450  69.5562344
  27.5999875  66.8870948  68.5429023  27.4227952  63.9349808  71.9270624
  27.6834769  64.8495141  71.8179784  28.2445124  63.4674250  72.0767237
  30.0493868  64.7803996  63.7277668  29.1723334  64.6592797  63.3639915
  30.5251621  63.9890075  63.4756557  21.5696008  69.5681156  73.8219175
  22.2567048  69.2542886  73.2340191  21.4144137  70.4722521  73.5486427
  36.5454444  62.9424916  73.6174394  37.0423143  62.1894879  73.2975464
  35.7741425  62.9789233  73.0517603  21.1463984  67.6481750  76.0936642
  21.1848084  67.1145340  76.8873761  20.6404277  67.1216955  75.4747620
  28.5254746  62.4946290  79.5899185  28.5896073  63.3561121  79.1776582
  28.4621867  61.8820292  78.8571543  24.7772562  66.3745852  69.1690574
  25.0726003  65.4656530  69.1157628  23.8760597  66.3533591  68.8471576
  28.3066809  64.4501848  75.1518122  27.5853394  65.0637816  75.0125596
  29.0960064  64.9859613  75.0734768  26.5060403  64.0559949  69.2929899
  26.1773109  63.1757328  69.1105005  26.8599774  64.0007618  70.1806288
  29.6202226  64.3432919  69.6605377  29.9598299  64.8718840  68.9383985
  30.0674347  64.6813325  70.4363943  32.3145667  62.7269970  79.1108445
  31.9742488  61.9277783  79.5129125  31.6084673  63.0271681  78.5385278
  32.9662139  59.8119282  77.5635768  33.7888208  59.3379760  77.4414658
  33.2100203  60.5909766  78.0634454  31.6070374  62.8407541  67.8598669
  32.3278736  63.2188794  67.3562386  30.9835678  63.5596418  67.9633647
  32.3497101  63.4940951  75.4208636  32.3358669  62.5982044  75.0840934
  33.0669529  63.5011615  76.0546922  31.7533997  62.3755331  70.6896206
  31.8749908  61.4471977  70.8887094  31.4636039  62.3894017  69.7774521
  34.6225187  60.0610242  73.8262926  34.6446884  60.1249575  72.8714905
  35.0393246  59.2214750  74.0203432  28.4816689  69.9874642  69.7873162
  28.2362730  69.0836972  69.9853372  28.6512603  69.9891792  68.8452640
  36.1713398  60.8598318  79.1697918  36.6895342  61.5959345  78.8444406
  35.8168531  61.1662311  80.0044677  27.7512336  65.7202999  67.2859324
  27.0581581  65.7947354  66.6299360  27.5064088  64.9563343  67.8080840
  36.4225993  57.2798600  74.6898814  36.7027746  56.6121789  75.3159241
  37.2076600  57.4727696  74.1773478  34.6106260  67.7918407  63.5939893
  35.5565364  67.6624615  63.6628311  34.2320505  67.0533069  64.0709321
  32.7949177  65.7168383  63.5294778  31.8880632  65.4201496  63.6057492
  33.0725158  65.4198202  62.6629065  23.7127117  67.0374747  73.9793825
  23.3929901  66.1840055  73.6868199  23.1660545  67.2523325  74.7351792
  34.4111242  60.2605273  69.6839020  33.6011971  59.9152358  70.0594266
  35.0995659  59.9512817  70.2726631  36.3401791  59.3383320  71.3063316
  36.8932829  59.7578773  71.9653339  36.5771877  58.4119068  71.3486272
  31.5647961  62.5755319  63.6706758  32.4267125  62.9010217  63.9302575
  31.7498306  61.7886815  63.1579823  32.5177404  59.8151362  66.9586467
  32.5056074  60.7593202  67.1154737  33.4100826  59.6321507  66.6645928
  36.3329524  56.4094138  71.2132403  35.5661920  55.8552625  71.3589086
  36.7440229  56.4816007  72.0746555  40.8496184  86.1343695  72.0358401
  40.2861049  86.0433632  71.2674689  40.7348579  85.3143599  72.5160894
  46.4295743  89.8014663  67.3472866  45.7783722  90.3868743  66.9606880
  47.2240105  90.3320858  67.4067904  40.3551370  86.8903800  67.7460000
  41.1282246  86.3432787  67.6072876  40.7076769  87.7548049  67.9574462
  42.6917647  83.0496466  65.3778450  42.9443168  82.5277987  64.6161913
  41.7542207  82.8862611  65.4805134  47.9071008  87.4905095  67.8841850
  47.2716841  87.5639721  68.5962755  47.5768414  88.0798694  67.2060930
  42.4113936  84.9524572  67.5802825  42.2950194  84.2769475  68.2483910
  42.5216196  84.4656946  66.7634978  44.7545477  84.4134719  71.2849515
  44.3903684  83.8865340  71.9962436  45.6112593  84.0233188  71.1116000
  42.1347077  94.6685918  70.9147661  42.0571107  95.6193743  70.9936142
  41.5308721  94.3231791  71.5722587  50.0725251  82.3703749  68.0937864
  50.9843107  82.6031136  67.9185562  49.5634898  82.9540794  67.5312943
  59.0186818  85.1554669  73.9598482  58.2650526  84.5862067  73.8042486
  59.1534359  85.1217333  74.9069116  44.4085446  90.0268071  69.6353201
  44.2731121  90.8719607  70.0638049  44.9495259  90.2287349  68.8719135
  37.8614843  87.5443509  70.2081126  38.3739364  88.3386759  70.3586691
  38.5137556  86.8469799  70.1414727  39.6709728  90.6609265  72.2903879
  39.8476356  91.5827230  72.1024863  40.4666562  90.3467684  72.7198259
  40.7941044  92.1787439  78.2914221  41.3448469  92.0504502  77.5191215
  39.9552519  92.4782328  77.9409114  35.8263760  85.8732163  70.9840697
  36.6638982  86.2829172  70.7674404  36.0042028  84.9331605  70.9540890
  47.7228192  83.5407244  66.6724529  47.2074816  84.3111849  66.9112917
  47.4505501  82.8672380  67.2957591  52.6962466  86.2939599  68.6077703
  51.9191909  85.9550758  68.1632865  53.3753947  86.2992222  67.9332668
  45.9560927  87.5724559  70.1477265  45.4282289  86.8377319  69.8350502
  45.4548430  88.3499236  69.9017233  44.1013528  85.3904770  63.1512238
  43.1940589  85.1594023  63.3503387  44.5984559  84.5942389  63.3386219
  47.0081606  94.1002277  66.0708924  46.3343305  94.4033974  66.6793882
  47.3947428  94.9031357  65.7214381  45.2801761  85.4917364  67.6736228
  44.3712980  85.2076397  67.7708697  45.3096845  85.9116443  66.8139535
  48.9553968  90.9400451  72.3777213  49.2476942  91.5005508  71.6589579
  49.4652588  91.2329012  73.1330373  35.8489931  83.2122879  71.6551430
  35.6514331  82.6192239  70.9302497  35.2936595  82.9075089  72.3727369
  44.9777849  87.0326108  65.0124306  44.5397279  86.3161967  64.5529944
  45.7188290  87.2602223  64.4509398  43.9187593  91.7180802  73.4670667
  43.8763772  91.9441648  72.5379199  44.8350292  91.4844176  73.6156468
  53.0950964  85.3083305  71.0700625  52.9568862  85.4984901  70.1421814
  52.7387182  86.0702688  71.5268676  42.0353394  88.5943831  73.2632629
  42.8293992  88.0994151  73.0615204  41.3245086  88.0661694  72.9000335
  45.2072822  94.2681949  68.2856003  45.3824577  93.7969992  69.1001626
  44.5205610  94.8947715  68.5137264  49.0989076  85.8910490  64.6056364
  48.4818247  85.1657318  64.5089417  48.6305565  86.6519850  64.2623438
  39.7733907  97.4171312  75.0595863  40.0130505  98.0489836  75.7374882
  38.9303103  97.0659352  75.3461222  44.0751548  92.4622204  70.9740189
  43.2919070  93.0043885  71.0678413  44.7744293  92.9796184  71.3734430
  48.4677979  87.0288521  71.1912817  47.5334258  87.1489984  71.0217522
  48.6454648  86.1260988  70.9272827  51.8550530  82.8705840  71.7262852
  52.3210983  83.7033832  71.6523154  52.3058031  82.4050822  72.4308110
  49.9226762  89.2149662  68.7249004  50.1986605  89.1006256  69.6342878
  49.0531260  88.8167147  68.6861177  46.5580826  93.4636013  72.3681817
  46.7403220  92.6457668  72.8309570  47.3813812  93.6803705  71.9306707
  46.8922991  92.3904198  69.6296866  47.4210758  91.8796652  69.0167028
  47.1551211  92.0746728  70.4942399  37.3940084  90.4068067  77.3732199
  37.9793521  89.6611755  77.5060104  37.1964922  90.7172024  78.2568863
  40.2478739  93.4419314  72.3894642  39.5789114  93.9265442  71.9058682
  40.1091609  93.6888535  73.3038020  44.3884008  95.4763058  78.9877300
  44.9402316  95.6394679  79.7526385  44.7290201  96.0667496  78.3157325
  47.5252395  93.4245033  75.9740982  47.4003534  92.6234773  75.4651928
  48.1831486  93.9191227  75.4854952  46.5933737  91.0206770  73.8024885
  46.4458699  90.0923477  73.9832455  47.4187230  91.0426860  73.3181960
  49.9863175  92.3620996  70.2451849  50.1600052  91.7967418  69.4925701
  50.4792066  93.1621891  70.0631339  55.8402566  85.1257419  71.8642148
  56.2833712  84.3764744  71.4661272  54.9629076  85.1167555  71.4815880
  50.9738347  91.6787760  67.3448747  51.6689252  92.2994453  67.5636062
  51.3161497  90.8283112  67.6201125  52.8729770  89.1287466  68.8736078
  53.3981094  89.4674739  68.1485398  52.7852123  88.1934481  68.6899212
  44.5570431  95.1959449  73.2331331  44.1175421  94.7035828  73.9264188
  45.3078548  94.6532417  72.9923406  37.0362770  91.3870990  73.2355959
  37.8620790  91.0874762  72.8554603  36.6856822  90.6178612  73.6845748
  42.0044303  90.7397458  75.3053633  41.3824312  90.0768163  75.0055861
  42.6749170  90.7658590  74.6227280  35.2371375  89.3057316  74.1944893
  34.4003283  88.8779491  74.0128894  35.2095020  89.4989760  75.1315684
  41.5657810  89.2901382  68.7812093  41.7145930  89.9736846  68.1278766
  42.3724253  89.2706472  69.2961549  39.3210443  85.3166559  69.7873162
  39.0756485  84.4128889  69.9853372  39.4906358  85.3183710  68.8452640
  45.0653216  91.7849512  66.2523841  44.4927183  92.4039699  65.7994312
  45.6386009  92.3348874  66.7863763  48.2850475  92.0686662  67.3832423
  49.2181149  92.0032224  67.5865298  48.1973688  92.9042929  66.9246956
  50.9138492  91.3852532  64.3436370  50.8352124  91.0512396  65.2372128
  51.7348159  91.8774300  64.3427843  45.4500014  83.1210325  63.5939893
  46.3959119  82.9916533  63.6628311  45.0714259  82.3824987  64.0709321
  37.3483481  93.5183604  74.9569773  37.2137949  92.7584005  74.3907772
  36.9315543  94.2424504  74.4898562  48.4842444  88.7020528  63.9646349
  49.1878294  88.9070530  64.5804004  47.7605093  89.2697290  64.2295432
  53.1245060  80.2420121  70.9098738  52.8681994  79.8416757  71.7406946
  52.4997928  80.9563915  70.7848878  40.5052607  94.4152921  75.1688216
  40.3884991  95.3598354  75.0666906  39.6845053  94.1126483  75.5574015
  50.3929141  89.1403057  66.0144809  51.2274745  88.7084256  65.8322284
  50.2313484  88.9685071  66.9421703  50.0475033  85.6435170  67.3801148
  49.9923837  85.4779442  66.4389592  49.4221089  86.3511203  67.5363338
  41.5307121  95.0681183  78.3844145  42.4334368  95.1004794  78.7010640
  41.3044491  94.1381634  78.3990480  43.2860723  93.8212170  75.0454223
  42.3356354  93.8214031  74.9318595  43.5893209  93.0744904  74.5290258
  59.0213416  99.6572708  76.1099986  59.6591826  99.5379456  75.4063326
  58.9034259 100.6053552  76.1687938  55.8303123  99.6100136  76.0461510
  55.4921634  99.4941201  75.1582045  56.6992891  99.2091301  76.0262516
  51.6889938 101.4635613  72.0358401  51.1254803 101.3725550  71.2674689
  51.5742333 100.6435517  72.5160894  56.3122906 100.7634988  82.0047716
  56.3011546 100.3687786  81.1328219  56.4743545 100.0301061  82.5981487
  49.2354370 102.9586804  74.8742622  50.0275662 102.6177629  74.4588921
  49.4751020 103.0681779  75.7944775  57.2689497 105.1306580  67.3472866
  56.6177477 105.7160661  66.9606880  58.0633860 105.6612775  67.4067904
  51.1945124 102.2195718  67.7460000  51.9676000 101.6724705  67.6072876
  51.5470523 103.0839967  67.9574462  53.0330167 103.5472100  80.9526900
  52.7420033 104.4517731  80.8373566  53.6687151 103.5888627  81.6670969
  53.9586374 100.9248948  77.5428259  54.5549946 100.7004971  76.8285222
  54.0161345 100.1833694  78.1453707  53.5311402  98.3788384  65.3778450
  53.7836923  97.8569905  64.6161913  52.5935961  98.2154529  65.4805134
  58.5754685  97.3824162  73.1853194  59.3617774  96.9643585  72.8343611
  58.8393389  98.2870254  73.3534842  58.7464762 102.8197012  67.8841850
  58.1110595 102.8931639  68.5962755  58.4162169 103.4090611  67.2060930
  63.9763112  97.3199395  74.0886172  64.7088284  96.7498612  74.3224002
  63.2202468  96.9320996  74.5292678  53.2507691 100.2816490  67.5802825
  53.1343949  99.6061393  68.2483910  53.3609951  99.7948864  66.7634978
  55.5939232  99.7426637  71.2849515  55.2297439  99.2157258  71.9962436
  56.4506348  99.3525106  71.1116000  55.2344719  94.7716536  66.2810863
  55.4019121  95.6396773  66.6481334  55.0441888  94.9343818  65.3572152
  57.9920052 103.2333515  77.9476693  57.6920775 104.1358554  77.8392501
  57.6471111 102.9665699  78.7997846  51.4432533  99.6847312  73.9813398
  50.5183030  99.5523526  74.1891090  51.6916946 100.4641531  74.4783340
  61.3917196  95.7516056  75.6274131  60.4834073  95.6831464  75.3332892
  61.3404791  96.2288000  76.4555956  55.2133939  97.2274194  67.2657530
  55.0933565  97.6731245  68.1043010  54.5186528  97.5759512  66.7071068
  48.8041344  99.3280586  74.8157187  48.9333725  99.5815065  75.7296599
  48.1238796  99.9208294  74.4961842  52.9740832 109.9977836  70.9147661
  52.8964861 110.9485661  70.9936142  52.3702475 109.6523708  71.5722587
  63.2578842  93.9532494  77.4052005  62.6153222  94.2465027  76.7591799
  62.7533771  93.8385414  78.2105201  60.9119006  97.6995667  68.0937864
  61.8236862  97.9323054  67.9185562  60.4028653  98.2832711  67.5312943
  53.7204434  99.9791154  83.1326995  54.4619118 100.5176198  82.8561819
  53.0141419 100.6057443  83.2898547  59.1959773 102.1220295  81.7299157
  59.6043129 101.6802705  80.9853789  58.4737035 101.5472922  81.9833349
  55.5490843  97.0592902  79.1032713  56.3952039  97.4832315  79.2467362
  55.4889481  96.4026526  79.7971277  59.5188588 102.6821486  75.4851445
  58.8897450 102.8467200  74.7827513  59.1314250 103.0963095  76.2562409
  63.3977820 103.6175923  72.8395809  62.7128858 103.9974825  72.2892843
  63.4821669 104.2271250  73.5727757  60.6528751 101.2635882  79.4391153
  60.8645647 101.9067642  78.7625534  60.6058500 100.4298199  78.9713083
  58.2554980  93.8753703  76.3427725  57.3939459  94.1734957  76.6344462
  58.2817415  94.0924102  75.4108757  55.0716550 102.4195894  72.7501531
  55.5354895 102.6983597  71.9606153  54.8073348 101.5179338  72.5674621
  51.9640631 101.9667375  75.6881294  52.5341988 102.3954644  75.0498778
  52.5548743 101.6849960  76.3865479  54.0085436  98.5419046  69.5591096
  54.7109479  98.9940090  70.0265022  53.6766064  97.9002865  70.1870989
  52.4565797  97.1330803  83.9342305  51.8264458  97.8147084  84.1677702
  52.3501885  97.0213884  82.9895443  47.7510770  96.8002599  74.8608229
  46.9609824  97.0560127  74.3848340  48.2422017  97.6150937  74.9660270
  61.7674579 104.1407838  77.6113510  62.5892023 103.7388025  77.3296192
  61.7636982 104.0376072  78.5629626  49.7025515  97.1647178  71.8191706
  48.9056679  97.2765872  72.3375202  49.4751107  97.5033830  70.9532596
  55.5331183 103.6891881  79.7674221  55.5975615 104.1512288  80.6032392
  54.8242107 103.0589246  79.8956530  46.0348473  97.0533089  77.2923220
  46.2856511  97.9380099  77.5580796  46.5708021  96.8737691  76.5198312
  69.8580572 100.4846586  73.9598482  69.1044281  99.9153984  73.8042486
  69.9928114 100.4509251  74.9069116  55.2479201 105.3559989  69.6353201
  55.1124875 106.2011524  70.0638049  55.7889013 105.5579266  68.8719135
  48.7008598 102.8735427  70.2081126  49.2133118 103.6678677  70.3586691
  49.3531311 102.1761717  70.1414727  50.5103483 105.9901183  72.2903879
  50.6870111 106.9119148  72.1024863  51.3060316 105.6759602  72.7198259
  49.7955839  98.0365815  82.1666042  49.6809354  97.1351072  82.4673141
  48.9400357  98.2829512  81.8150859  56.8747677 105.9783555  83.7653543
  56.4311531 105.1919934  83.4474447  57.5364890 106.1662706  83.0997434
  51.6334798 107.5079357  78.2914221  52.1842223 107.3796420  77.5191215
  50.7946274 107.8074246  77.9409114  58.9728915 106.2586355  81.7934944
  58.9547390 107.0795236  81.3015213  59.8948835 106.1340430  82.0185085
  55.4301969 103.7730485  82.6358453  55.9630306 103.0118773  82.4057761
  54.9016050 103.4804136  83.3782607  46.6657515 101.2024081  70.9840697
  47.5032737 101.6121089  70.7674404  46.8435782 100.2623523  70.9540890
  58.5621947  98.8699162  66.6724529  58.0468570  99.6403766  66.9112917
  58.2899255  98.1964298  67.2957591  56.1469058  93.7148862  71.7309768
  55.2910654  93.3255713  71.5515407  56.5596010  93.7940823  70.8709553
  57.6768204  91.2495206  76.1301328  57.1733000  91.2125341  75.3169133
  57.9698811  92.1587948  76.1897984  63.5356221 101.6231516  68.6077703
  62.7585664 101.2842676  68.1632865  64.2147702 101.6284139  67.9332668
  58.3508250  96.7426254  68.4984311  58.0458386  97.0572403  69.3494454
  59.3038692  96.8207674  68.5411644  56.7954682 102.9016477  70.1477265
  56.2676043 102.1669237  69.8350502  56.2942185 103.6791153  69.9017233
  61.7747528 101.0965498  75.2644311  61.1171202 101.7864759  75.3524440
  62.5787927 101.4861929  75.6078297  51.5273409  93.5636143  72.5083876
  52.1017161  93.3411325  71.7757069  52.1144392  93.6324838  73.2612477
  60.5852987  99.4509870  73.3148253  61.0984868 100.0839862  73.8169962
  61.2354211  98.8511066  72.9491613  51.8542997  95.5940604  66.5279761
  51.0180309  95.9315291  66.8489036  51.7147766  95.4589584  65.5906898
  53.8296077  90.4377392  71.2358946  53.1760489  90.1226409  70.6115560
  53.7876551  89.8153133  71.9618769  54.9407282 100.7196687  63.1512238
  54.0334344 100.4885941  63.3503387  55.4378314  99.9234307  63.3386219
  57.8475361 109.4294194  66.0708924  57.1737060 109.7325891  66.6793882
  58.2341183 110.2323275  65.7214381  57.0633817  96.9259326  75.5606593
  56.1456379  97.1474273  75.4028281  57.4793961  97.0005636  74.7018301
  57.8468865  98.3250741  70.6909273  58.5940684  98.8372139  70.3816396
  58.1160455  98.0034794  71.5513667  56.1195515 100.8209282  67.6736228
  55.2106735 100.5368315  67.7708697  56.1490599 101.2408361  66.8139535
  61.3514783 104.4315872  71.4427395  60.8977110 103.5906782  71.4992586
  60.7208750 105.0677270  71.7802175  60.2947702  95.3607858  72.6728063
  59.5570459  94.8485244  73.0038305  60.5474476  94.9208239  71.8611340
  59.7947722 106.2692368  72.3777213  60.0870696 106.8297425  71.6589579
  60.3046343 106.5620929  73.1330373  60.3959330  88.1384110  73.2669832
  60.7018207  87.2781473  72.9795747  61.1211935  88.7301730  73.0668826
  46.6883686  98.5414796  71.6551430  46.4908086  97.9484157  70.9302497
  46.1330350  98.2367006  72.3727369  54.6680409  98.4337903  73.7746023
  54.7229019  97.4811739  73.6988500  53.8571612  98.5897342  74.2587322
  55.8171603 102.3618026  65.0124306  55.3791033 101.6453885  64.5529944
  56.5582044 102.5894141  64.4509398  52.6072769  97.0514963  71.5336402
  51.7940635  97.3509133  71.9401594  53.1031764  96.6570651  72.2510884
  54.7581347 107.0472719  73.4670667  54.7157526 107.2733566  72.5379199
  55.6744046 106.8136094  73.6156468  58.2046981  97.5156787  80.3651296
  58.5596369  97.7428260  81.2245762  58.8519112  97.8475164  79.7428551
  63.9344718 100.6375223  71.0700625  63.7962617 100.8276819  70.1421814
  63.5780937 101.3994606  71.5268676  52.0986844  94.6233318  77.1497637
  52.7386223  94.4822077  76.4520600  51.2664375  94.3367831  76.7736239
  63.9614098 102.7051750  76.0811896  64.3950604 102.6127039  76.9294950
  64.6745678 102.6809250  75.4431912  52.8747148 103.9235748  73.2632629
  53.6687747 103.4286069  73.0615204  52.1638840 103.3953612  72.9000335
  57.6941993 106.3053844  77.6144997  57.7479015 106.8744780  78.3822713
  56.8256774 106.4755729  77.2499034  49.1829912  98.0678830  69.3392382
  48.2527500  98.0063286  69.5562344  49.2787384  97.5454783  68.5429023
  49.1015461  94.5933643  71.9270624  49.3622278  95.5078976  71.8179784
  49.9232633  94.1258086  72.0767237  50.5740386  96.0071400  79.0969448
  51.2463439  95.7988762  78.4482097  49.7470172  95.8093486  78.6574681
  64.8229647 102.7475451  78.6144782  65.0165537 103.6521261  78.8604057
  64.7230265 102.2882870  79.4483367  59.8844756 102.8982193  84.1885662
  59.7330262 102.6692745  83.2715746  59.8749435 103.8552795  84.2017007
  56.6530092 100.4714106  79.1731929  57.5822152 100.6225266  79.0000896
  56.2321122 100.5598127  78.3180575  55.4518424 104.4964770  76.9430466
  55.3129510 104.1283555  77.8156405  54.6633020 105.0112410  76.7714424
  56.0466576 109.5973867  68.2856003  56.2218332 109.1261910  69.1001626
  55.3599364 110.2239633  68.5137264  57.0023639 103.8746373  74.3319304
  56.6673472 103.8347143  75.2276954  56.5027585 103.2091089  73.8589714
  50.9767883  99.2814003  79.8571885  50.8387681  98.5494242  80.4583424
  51.8872807  99.1922903  79.5756073  59.9382831 101.2202407  64.6056364
  59.3212001 100.4949236  64.5089417  59.4699319 101.9811768  64.2623438
  53.6050184  98.9933963  79.3455565  54.3149802  98.3527155  79.3042183
  53.5619492  99.2446857  80.2681746  61.5936963 105.9301316  82.2662144
  61.5349509 105.2460536  81.5992727  61.9956481 106.6720306  81.8142770
  52.3179118  95.9799180  81.1651205  51.7816475  95.5289919  81.8172801
  51.7295826  96.1145089  80.4221669  50.6127661 112.7463230  75.0595863
  50.8524260 113.3781754  75.7374882  49.7696858 112.3951270  75.3461222
  51.7281377  95.4387832  63.7277668  50.8510843  95.3176633  63.3639915
  52.2039130  94.6473910  63.4756557  61.5954370 103.8940900  80.4976124
  60.7081149 103.5566822  80.6202523  62.1652921 103.1623931  80.7344889
  43.2483517 100.2264992  73.8219175  43.9354557  99.9126722  73.2340191
  43.0931646 101.1306356  73.5486427  48.0518239  95.1155188  78.2504199
  47.9676428  94.5080858  77.5154609  47.2300945  95.6064206  78.2513695
  55.1255523 108.5542352  77.4637367  55.0525695 109.3597324  77.9756672
  54.6832916 108.7534318  76.6385389  54.9145303 107.7914122  70.9740189
  54.1312825 108.3335802  71.0678413  55.6138048 108.3088102  71.3734430
  58.2241953  93.6008752  73.6174394  58.7210652  92.8478714  73.2975464
  57.4528934  93.6373068  73.0517603  66.0771710  99.3049117  75.2592686
  66.0661587 100.1873833  74.8886619  65.2089090  98.9520668  75.0647223
  57.5854207 108.4529186  79.6195526  58.2982179 109.0876651  79.5471427
  57.0944235 108.5493052  78.8035528  59.3071734 102.3580439  71.1912817
  58.3728012 102.4781901  71.0217522  59.4848402 101.4552906  70.9272827
  54.8076922  95.7426135  73.3446079  54.4374709  95.1897175  74.0326984
  55.3036014  95.1384268  72.7921079  62.6944285  98.1997758  71.7262852
  63.1604737  99.0325750  71.6523154  63.1451785  97.7342740  72.4308110
  52.6366120 106.2023630  80.4401097  53.3375580 106.8360113  80.5930491
  52.1661235 106.5438361  79.6796736  60.7620516 104.5441579  68.7249004
  61.0380360 104.4298174  69.6342878  59.8925015 104.1459064  68.6861177
  60.4367406  98.7568237  78.2653647  59.7838856  99.0044145  77.6106100
  60.8147786  97.9432375  77.9316124  57.3974580 108.7927930  72.3681817
  57.5796975 107.9749586  72.8309570  58.2207566 109.0095622  71.9306707
  57.7316746 107.7196115  69.6296866  58.2604512 107.2088570  69.0167028
  57.9944965 107.4038646  70.4942399  48.2333838 105.7359985  77.3732199
  48.8187275 104.9903673  77.5060104  48.0358677 106.0463941  78.2568863
  51.0872494 108.7711232  72.3894642  50.4182869 109.2557360  71.9058682
  50.9485363 109.0180453  73.3038020  42.8251493  98.3065585  76.0936642
  42.8635593  97.7729176  76.8873761  42.3191786  97.7800790  75.4747620
  55.2277762 110.8054976  78.9877300  55.7796070 110.9686597  79.7526385
  55.5683956 111.3959413  78.3157325  49.6794528  95.2253258  83.2372219
  50.3066567  94.8430335  83.8509743  48.8222447  95.0067460  83.6027912
  60.0788636 105.6316233  84.8425954  60.6228540 106.2446191  84.3480909
  59.4975481 106.1895811  85.3592967  46.4560071  97.0329687  69.1690574
  46.7513512  96.1240365  69.1157628  45.5548106  97.0117426  68.8471576
  58.3646149 108.7536951  75.9740982  58.2397289 107.9526691  75.4651928
  59.0225240 109.2483144  75.4854952  49.9854318  95.1085684  75.1518122
  49.2640903  95.7221651  75.0125596  50.7747573  95.6443448  75.0734768
  60.4281058 106.5545971  77.6020532  59.4811393 106.4351322  77.5298859
  60.7763831 105.6668469  77.6846794  48.1847912  94.7143785  69.2929899
  47.8560618  93.8341164  69.1105005  48.5387283  94.6591453  70.1806288
  57.4327491 106.3498687  73.8024885  57.2852453 105.4215395  73.9832455
  58.2580985 106.3718778  73.3181960  51.2989735  95.0016754  69.6605377
  51.6385808  95.5302676  68.9383985  51.7461856  95.3397161  70.4363943
  61.0361613 107.1727246  74.8889757  61.9608160 106.9670107  74.7514208
  60.8676916 106.9243647  75.7979099  53.2857882  93.4991376  67.8598669
  54.0066245  93.8772629  67.3562386  52.6623187  94.2180253  67.9633647
  57.4289005  94.2036525  68.7957002  57.6452620  95.0861163  68.4945830
  56.9483073  93.8122738  68.0662644  52.1688227  97.1622238  75.3727746
  52.0232807  97.4762541  76.2652028  51.6913430  97.7807139  74.8198645
  54.0284610  94.1524786  75.4208636  54.0146178  93.2565880  75.0840934
  54.7457038  94.1595450  76.0546922  55.8810740  94.5862126  77.4661763
  55.6228518  95.5079197  77.4646094  55.3495781  94.1892561  78.1562227
  60.8256929 107.6912914  70.2451849  60.9993807 107.1259336  69.4925701
  61.3185820 108.4913808  70.0631339  46.6433889  99.7027583  78.3115408
  46.0987357 100.4787391  78.4435682  47.5213239 100.0498387  78.1534529
  53.4321506  93.0339167  70.6896206  53.5537417  92.1055813  70.8887094
  53.1423548  93.0477853  69.7774521  56.3012696  90.7194077  73.8262926
  56.3234393  90.7833410  72.8714905  56.7180755  89.8798586  74.0203432
  66.6796320 100.4549337  71.8642148  67.1227466  99.7056662  71.4661272
  65.8022831 100.4459473  71.4815880  61.8132102 107.0079678  67.3448747
  62.5083006 107.6286371  67.5636062  62.1555252 106.1575029  67.6201125
  47.4299911  98.8297479  81.2045564  46.6881647  98.9780114  81.7910195
  47.1092655  99.0905745  80.3412314  63.7123525 104.4579384  68.8736078
  64.2374849 104.7966656  68.1485398  63.6245877 103.5226399  68.6899212
  55.3743573 108.3713457  81.0025954  55.6830700 108.1262604  81.8748654
  56.1719055 108.5760096  80.5144825  55.3964185 110.5251367  73.2331331
  54.9569176 110.0327745  73.9264188  56.1472302 109.9824334  72.9923406
  47.8756524 106.7162908  73.2355959  48.7014544 106.4166680  72.8554603
  47.5250576 105.9470530  73.6845748  52.8438058 106.0689376  75.3053633
  52.2218067 105.4060081  75.0055861  53.5142925 106.0950508  74.6227280
  46.0765129 104.6349234  74.1944893  45.2397038 104.2071408  74.0128894
  46.0488775 104.8281677  75.1315684  63.4017431 105.0912287  84.1787276
  62.6112974 105.0736426  83.6391775  63.1650785 105.6300581  84.9336312
  63.5215306 101.9404754  81.4920004  63.5713311 101.7754761  82.4335527
  63.4129229 101.0732013  81.1017885  52.4051565 104.6193299  68.7812093
  52.5539685 105.3028764  68.1278766  53.2118008 104.5998389  69.2961549
  60.8119068  97.9235682  82.8079311  61.7128931  97.7842146  82.5163309
  60.8867043  98.0890136  83.7477488  65.0233503 104.3601695  81.7362026
  64.7318311 104.7231676  82.5725487  64.4105634 103.6468703  81.5575358
  66.2229185 101.9254575  74.2564596  67.0576076 102.3644379  74.4202156
  66.3588314 101.4493228  73.4372842  63.2720691  99.4834310  80.2042084
  63.7474812  99.6761956  79.3960935  62.3486256  99.5393496  79.9585467
  50.1604198 100.6458477  69.7873162  49.9150239  99.7420807  69.9853372
  50.3300112 100.6475627  68.8452640  49.4299845  96.3786834  67.2859324
  48.7369090  96.4531189  66.6299360  49.1851597  95.6147178  67.8080840
  55.9046970 107.1141430  66.2523841  55.3320937 107.7331617  65.7994312
  56.4779764 107.6640791  66.7863763  61.9722360  96.3600070  78.4370389
  62.9239783  96.4598167  78.4582613  61.8025810  95.5678338  78.9468474
  59.1244230 107.3978580  67.3832423  60.0574903 107.3324141  67.5865298
  59.0367443 108.2334847  66.9246956  61.7532247 106.7144450  64.3436370
  61.6745878 106.3804314  65.2372128  62.5741913 107.2066218  64.3427843
  64.4510438  99.5806189  77.5512689  64.4186758  98.6422190  77.7372373
  65.0611061  99.6590226  76.8178514  56.2893769  98.4502242  63.5939893
  57.2352873  98.3208451  63.6628311  55.9108014  97.7116904  64.0709321
  64.6004926  96.3717233  77.5970972  64.0843975  95.5875690  77.4100901
  65.4844875  96.0435950  77.7617492  62.2615653  90.1158248  73.5566785
  62.0640474  89.8073337  74.4410117  62.8715359  90.8419887  73.6864715
  70.2686988 100.6422196  76.6918726  70.9990376 100.3807484  77.2526429
  69.6593933  99.9050918  76.7320794  68.3502285  98.7830059  77.2893177
  67.6235448  98.6486024  76.6809669  67.9349572  99.0906887  78.0949895
  56.1732461 102.5019989  85.0540550  57.0935471 102.6798588  85.2480597
  56.1382044 101.5576034  84.9020249  54.4736686  96.3752219  63.5294778
  53.5668141  96.0785332  63.6057492  54.7512667  96.0782037  62.6629065
  45.3914626  97.6958582  73.9793825  45.0717410  96.8423890  73.6868199
  44.8448054  97.9107160  74.7351792  49.1694534 100.4121023  77.6963331
  49.3880543 101.3438131  77.7151365  49.5820307 100.0528998  78.4818135
  56.0898751  90.9189109  69.6839020  55.2799480  90.5736194  70.0594266
  56.7783168  90.6096652  70.2726631  58.0189300  89.9967155  71.3063316
  58.5720338  90.4162609  71.9653339  58.2559386  89.0702903  71.3486272
  53.2435470  93.2339154  63.6706758  54.1054634  93.5594052  63.9302575
  53.4285814  92.4470650  63.1579823  45.2602886 101.3161494  75.9486946
  44.5666358 100.9015447  75.4356901  46.0075877 101.3582030  75.3520365
  61.3968107  92.1067680  70.8141981  60.8166776  92.7652485  70.4320033
  61.1304039  91.2845025  70.4029398  59.8471673  91.5072738  73.0163301
  60.3471452  91.6189273  72.2077620  60.4907281  91.2033791  73.6564109
  47.1739629 101.2479747  73.8252961  47.1510317 101.3467435  72.8734844
  47.4840265 102.0944898  74.1470127  49.8327006 103.3055903  77.9399576
  50.7870260 103.2739845  77.8729507  49.6339530 102.8446526  78.7549802
  50.4226389 101.8757019  80.5070373  51.2419278 102.3701097  80.5305211
  50.6963196 100.9588987  80.4787941  60.1792985  94.2667771  69.8698329
  59.2918840  94.5517422  69.6518524  60.5946974  94.1061534  69.0225606
  63.5307521  94.2914292  73.5852668  64.3067911  94.7810744  73.8577285
  62.8055655  94.7172346  74.0424538  65.9680080  95.0041911  74.6426609
  66.5624570  94.7637647  73.9319917  66.0406663  94.2849042  75.2700145
  48.1877235 108.8475522  74.9569773  48.0531703 108.0875923  74.3907772
  47.7709298 109.5716422  74.4898562  59.3236198 104.0312446  63.9646349
  60.0272048 104.2362448  64.5804004  58.5998847 104.5989207  64.2295432
  60.1534009  99.7822307  70.0848619  60.0969210 100.2390858  69.2456251
  60.7062351  99.0212991  69.9071462  63.9638814  95.5712039  70.9098738
  63.7075749  95.1708674  71.7406946  63.3391683  96.2855833  70.7848878
  68.2751152  98.3108112  73.4170030  67.7150710  98.3801301  74.1901592
  67.6694656  98.1349097  72.6969526  51.3446361 109.7444839  75.1688216
  51.2278745 110.6890272  75.0666906  50.5238807 109.4418401  75.5574015
  61.2322896 104.4694975  66.0144809  62.0668500 104.0376173  65.8322284
  61.0707239 104.2976988  66.9421703  60.8868788 100.9727088  67.3801148
  60.8317592 100.8071359  66.4389592  60.2614843 101.6803121  67.5363338
  45.6761303  96.2095152  81.2062570  46.3220166  95.6994106  81.6949796
  45.4678454  96.9463834  81.7805996  58.2014695 103.2776000  86.7054711
  59.0705855 103.4516652  86.3441346  57.7221447 104.0970417  86.5830440
  54.1964913  90.4735197  66.9586467  54.1843583  91.4177037  67.1154737
  55.0888335  90.2905342  66.6645928  52.3700875 110.3973101  78.3844145
  53.2728122 110.4296711  78.7010640  52.1438245 109.4673552  78.3990480
  54.1254477 109.1504087  75.0454223  53.1750108 109.1505949  74.9318595
  54.4286963 108.4036822  74.5290258  58.0117033  87.0677974  71.2132403
  57.2449429  86.5136460  71.3589086  58.4227738  87.1399842  72.0746555
  50.0158794  93.3562770  85.3037585  50.8790255  92.9999574  85.5140909
  49.4424205  93.0176664  85.9912989  69.8607171 114.9864626  76.1099986
  70.4985581 114.8671373  75.4063326  69.7428014 115.9345470  76.1687938
  66.6696877 114.9392054  76.0461510  66.3315389 114.8233119  75.1582045
  67.5386645 114.5383219  76.0262516  62.5283693 116.7927530  72.0358401
  61.9648558 116.7017467  71.2674689  62.4136088 115.9727435  72.5160894
  67.1516660 116.0926906  82.0047716  67.1405301 115.6979704  81.1328219
  67.3137300 115.3592978  82.5981487  60.0748125 118.2878722  74.8742622
  60.8669417 117.9469547  74.4588921  60.3144775 118.3973697  75.7944775
  68.1083251 120.4598498  67.3472866  67.4571231 121.0452578  66.9606880
  68.9027614 120.9904693  67.4067904  62.0338879 117.5487635  67.7460000
  62.8069755 117.0016622  67.6072876  62.3864278 118.4131885  67.9574462
  63.8723921 118.8764017  80.9526900  63.5813787 119.7809648  80.8373566
  64.5080906 118.9180545  81.6670969  64.7980128 116.2540866  77.5428259
  65.3943700 116.0296888  76.8285222  64.8555100 115.5125611  78.1453707
  64.3705156 113.7080301  65.3778450  64.6230677 113.1861823  64.6161913
  63.4329716 113.5446447  65.4805134  69.4148439 112.7116080  73.1853194
  70.2011529 112.2935503  72.8343611  69.6787144 113.6162172  73.3534842
  69.5858517 118.1488930  67.8841850  68.9504350 118.2223557  68.5962755
  69.2555923 118.7382529  67.2060930  74.8156866 112.6491313  74.0886172
  75.5482038 112.0790530  74.3224002  74.0596222 112.2612913  74.5292678
  64.0901445 115.6108407  67.5802825  63.9737703 114.9353311  68.2483910
  64.2003705 115.1240781  66.7634978  66.4332986 115.0718554  71.2849515
  66.0691193 114.5449175  71.9962436  67.2900102 114.6817023  71.1116000
  72.3382287 106.3612887  78.5480781  72.0065612 107.2308298  78.3241996
  71.7427900 106.0449171  79.2274811  66.0738473 110.1008454  66.2810863
  66.2412875 110.9688691  66.6481334  65.8835642 110.2635736  65.3572152
  68.8313806 118.5625433  77.9476693  68.5314529 119.4650472  77.8392501
  68.4864866 118.2957616  78.7997846  62.2826288 115.0139230  73.9813398
  61.3576784 114.8815444  74.1891090  62.5310701 115.7933449  74.4783340
  72.2310950 111.0807973  75.6274131  71.3227827 111.0123382  75.3332892
  72.1798546 111.5579918  76.4555956  66.0527694 112.5566112  67.2657530
  65.9327319 113.0023162  68.1043010  65.3580282 112.9051429  66.7071068
  59.6435099 114.6572503  74.8157187  59.7727480 114.9106982  75.7296599
  58.9632550 115.2500211  74.4961842  63.8134586 125.3269753  70.9147661
  63.7358616 126.2777578  70.9936142  63.2096230 124.9815626  71.5722587
  66.3051816 112.4997619  83.5709028  65.5285150 113.0591539  83.5611893
  66.9442379 112.9854402  84.0923898  74.0972596 109.2824412  77.4052005
  73.4546977 109.5756945  76.7591799  73.5927525 109.1677332  78.2105201
  71.7512760 113.0287585  68.0937864  72.6630616 113.2614972  67.9185562
  71.2422407 113.6124629  67.5312943  64.5598188 115.3083072  83.1326995
  65.3012873 115.8468116  82.8561819  63.8535174 115.9349361  83.2898547
  70.0353528 117.4512213  81.7299157  70.4436884 117.0094623  80.9853789
  69.3130789 116.8764840  81.9833349  66.3884598 112.3884819  79.1032713
  67.2345793 112.8124233  79.2467362  66.3283236 111.7318444  79.7971277
  70.3582342 118.0113403  75.4851445  69.7291205 118.1759117  74.7827513
  69.9708005 118.4255013  76.2562409  74.2371574 118.9467841  72.8395809
  73.5522612 119.3266742  72.2892843  74.3215424 119.5563168  73.5727757
  69.5384043 110.0489188  80.7613887  69.2944975 110.8031248  80.2248163
  69.8143974 110.4274535  81.5961134  71.4922506 116.5927800  79.4391153
  71.7039401 117.2359560  78.7625534  71.4452254 115.7590117  78.9713083
  69.0948735 109.2045621  76.3427725  68.2333214 109.5026874  76.6344462
  69.1211170 109.4216020  75.4108757  65.9110304 117.7487811  72.7501531
  66.3748650 118.0275514  71.9606153  65.6467102 116.8471256  72.5674621
  62.8034385 117.2959293  75.6881294  63.3735742 117.7246561  75.0498778
  63.3942497 117.0141878  76.3865479  64.8479190 113.8710964  69.5591096
  65.5503234 114.3232007  70.0265022  64.5159819 113.2294783  70.1870989
  63.2959552 112.4622720  83.9342305  62.6658212 113.1439001  84.1677702
  63.1895640 112.3505802  82.9895443  58.5904524 112.1294516  74.8608229
  57.8003578 112.3852045  74.3848340  59.0815772 112.9442854  74.9660270
  72.6068334 119.4699756  77.6113510  73.4285778 119.0679943  77.3296192
  72.6030737 119.3667990  78.5629626  60.5419270 112.4939096  71.8191706
  59.7450433 112.6057790  72.3375202  60.3144862 112.8325748  70.9532596
  66.3724937 119.0183799  79.7674221  66.4369370 119.4804206  80.6032392
  65.6635861 118.3881164  79.8956530  56.8742227 112.3825007  77.2923220
  57.1250266 113.2672017  77.5580796  57.4101776 112.2029608  76.5198312
  80.6974327 115.8138504  73.9598482  79.9438035 115.2445902  73.8042486
  80.8321868 115.7801169  74.9069116  66.0872955 120.6851906  69.6353201
  65.9518630 121.5303442  70.0638049  66.6282768 120.8871184  68.8719135
  62.5740295 106.7643486  86.2967556  62.1807240 106.2109685  86.9715200
  63.3906435 107.0754065  86.6874074  59.5402352 118.2027344  70.2081126
  60.0526873 118.9970595  70.3586691  60.1925065 117.5053635  70.1414727
  61.3497237 121.3193101  72.2903879  61.5263865 122.2411065  72.1024863
  62.1454071 121.0051520  72.7198259  65.4908256 108.1801365  83.8887813
  66.2317969 108.7808518  83.8092275  65.7226178 107.4379003  83.3305855
  60.6349594 113.3657733  82.1666042  60.5203109 112.4642990  82.4673141
  59.7794111 113.6121429  81.8150859  67.7141431 121.3075473  83.7653543
  67.2705286 120.5211851  83.4474447  68.3758645 121.4954623  83.0997434
  62.4728553 122.8371274  78.2914221  63.0235978 122.7088338  77.5191215
  61.6340028 123.1366163  77.9409114  69.8122669 121.5878273  81.7934944
  69.7941145 122.4087154  81.3015213  70.7342589 121.4632348  82.0185085
  66.2695724 119.1022402  82.6358453  66.8024060 118.3410690  82.4057761
  65.7409805 118.8096054  83.3782607  69.4365419 104.2082468  78.1652094
  69.0929688 105.0984110  78.0891205  69.8044381 104.0184126  77.3021679
  57.5051269 116.5315999  70.9840697  58.3426491 116.9413007  70.7674404
  57.6829537 115.5915441  70.9540890  69.4015701 114.1991079  66.6724529
  68.8862325 114.9695684  66.9112917  69.1293010 113.5256215  67.2957591
  66.9862812 109.0440780  71.7309768  66.1304409 108.6547630  71.5515407
  67.3989764 109.1232741  70.8709553  68.5161959 106.5787123  76.1301328
  68.0126755 106.5417259  75.3169133  68.8092566 107.4879866  76.1897984
  64.7604845 106.6625853  75.1367509  65.6257842 106.4668662  74.7773399
  64.8282354 106.4336205  76.0636866  74.3749975 116.9523434  68.6077703
  73.5979418 116.6134593  68.1632865  75.0541456 116.9576057  67.9332668
  69.1902004 112.0718171  68.4984311  68.8852140 112.3864321  69.3494454
  70.1432447 112.1499591  68.5411644  67.6348436 118.2308395  70.1477265
  67.1069798 117.4961154  69.8350502  67.1335939 119.0083071  69.9017233
  72.6141282 116.4257415  75.2644311  71.9564957 117.1156677  75.3524440
  73.4181682 116.8153847  75.6078297  62.3667164 108.8928061  72.5083876
  62.9410916 108.6703242  71.7757069  62.9538146 108.9616756  73.2612477
  71.4246741 114.7801788  73.3148253  71.9378623 115.4131780  73.8169962
  72.0747965 114.1802983  72.9491613  62.6936751 110.9232522  66.5279761
  61.8574063 111.2607209  66.8489036  62.5541521 110.7881502  65.5906898
  64.6689832 105.7669310  71.2358946  64.0154244 105.4518327  70.6115560
  64.6270306 105.1445050  71.9618769  65.7801036 116.0488605  63.1512238
  64.8728098 115.8177858  63.3503387  66.2772068 115.2526224  63.3386219
  68.6869115 124.7586112  66.0708924  68.0130814 125.0617809  66.6793882
  69.0734937 125.5615193  65.7214381  67.9027572 112.2551243  75.5606593
  66.9850133 112.4766190  75.4028281  68.3187716 112.3297554  74.7018301
  68.6862620 113.6542659  70.6909273  69.4334439 114.1664056  70.3816396
  68.9554209 113.3326712  71.5513667  66.9589270 116.1501200  67.6736228
  66.0500489 115.8660233  67.7708697  66.9884354 116.5700278  66.8139535
  72.1908537 119.7607789  71.4427395  71.7370864 118.9198699  71.4992586
  71.5602504 120.3969188  71.7802175  71.1341457 110.6899775  72.6728063
  70.3964214 110.1777162  73.0038305  71.3868230 110.2500157  71.8611340
  70.6341477 121.5984286  72.3777213  70.9264451 122.1589343  71.6589579
  71.1440097 121.8912847  73.1330373  71.2353084 103.4676027  73.2669832
  71.5411961 102.6073391  72.9795747  71.9605689 104.0593648  73.0668826
  57.5277440 113.8706714  71.6551430  57.3301840 113.2776075  70.9302497
  56.9724104 113.5658924  72.3727369  65.5074164 113.7629820  73.7746023
  65.5622774 112.8103657  73.6988500  64.6965366 113.9189260  74.2587322
  66.6565358 117.6909944  65.0124306  66.2184788 116.9745802  64.5529944
  67.3975799 117.9186058  64.4509398  63.4466524 112.3806880  71.5336402
  62.6334389 112.6801051  71.9401594  63.9425518 111.9862569  72.2510884
  65.5975102 122.3764637  73.4670667  65.5551281 122.6025483  72.5379199
  66.5137801 122.1428012  73.6156468  69.0440736 112.8448705  80.3651296
  69.3990123 113.0720178  81.2245762  69.6912867 113.1767081  79.7428551
  74.7738473 115.9667141  71.0700625  74.6356371 116.1568737  70.1421814
  74.4174691 116.7286523  71.5268676  62.9380599 109.9525236  77.1497637
  63.5779978 109.8113995  76.4520600  62.1058129 109.6659749  76.7736239
  74.8007852 118.0343668  76.0811896  75.2344359 117.9418957  76.9294950
  75.5139433 118.0101168  75.4431912  63.7140903 119.2527666  73.2632629
  64.5081501 118.7577986  73.0615204  63.0032595 118.7245529  72.9000335
  68.5335747 121.6345762  77.6144997  68.5872769 122.2036698  78.3822713
  67.6650528 121.8047647  77.2499034  60.0223666 113.3970748  69.3392382
  59.0921254 113.3355203  69.5562344  60.1181138 112.8746701  68.5429023
  59.9409215 109.9225561  71.9270624  60.2016032 110.8370894  71.8179784
  60.7626387 109.4550003  72.0767237  61.4134140 111.3363318  79.0969448
  62.0857194 111.1280680  78.4482097  60.5863927 111.1385404  78.6574681
  75.6623402 118.0767368  78.6144782  75.8559292 118.9813179  78.8604057
  75.5624020 117.6174787  79.4483367  67.3159712 107.9625259  81.1135109
  66.6687627 108.6615208  81.0199586  68.0860728 108.3961403  81.4811357
  70.7238510 118.2274111  84.1885662  70.5724017 117.9984663  83.2715746
  70.7143190 119.1844712  84.2017007  67.4923847 115.8006024  79.1731929
  68.4215907 115.9517183  79.0000896  67.0714877 115.8890044  78.3180575
  66.2912179 119.8256688  76.9430466  66.1523264 119.4575473  77.8156405
  65.5026775 120.3404328  76.7714424  66.8860331 124.9265785  68.2856003
  67.0612086 124.4553828  69.1001626  66.1993119 125.5531551  68.5137264
  67.8417394 119.2038291  74.3319304  67.5067226 119.1639061  75.2276954
  67.3421339 118.5383007  73.8589714  61.8161638 114.6105921  79.8571885
  61.6781436 113.8786160  80.4583424  62.7266561 114.5214821  79.5756073
  70.7776585 116.5494325  64.6056364  70.1605756 115.8241153  64.5089417
  70.3093074 117.3103685  64.2623438  64.4443938 114.3225880  79.3455565
  65.1543557 113.6819072  79.3042183  64.4013246 114.5738775  80.2681746
  72.4330717 121.2593234  82.2662144  72.3743263 120.5752454  81.5992727
  72.8350235 122.0012224  81.8142770  63.1572872 111.3091098  81.1651205
  62.6210229 110.8581837  81.8172801  62.5689581 111.4437007  80.4221669
  62.5675131 110.7679749  63.7277668  61.6904598 110.6468550  63.3639915
  63.0432884 109.9765828  63.4756557  72.4348124 119.2232817  80.4976124
  71.5474903 118.8858739  80.6202523  73.0046675 118.4915849  80.7344889
  54.0877271 115.5556909  73.8219175  54.7748311 115.2418639  73.2340191
  53.9325400 116.4598274  73.5486427  58.8911994 110.4447106  78.2504199
  58.8070182 109.8372775  77.5154609  58.0694700 110.9356124  78.2513695
  65.9649278 123.8834270  77.4637367  65.8919449 124.6889241  77.9756672
  65.5226671 124.0826236  76.6385389  65.7539057 123.1206040  70.9740189
  64.9706579 123.6627720  71.0678413  66.4531802 123.6380019  71.3734430
  69.0635707 108.9300669  73.6174394  69.5604407 108.1770632  73.2975464
  68.2922689 108.9664986  73.0517603  76.9165465 114.6341035  75.2592686
  76.9055341 115.5165750  74.8886619  76.0482844 114.2812586  75.0647223
  68.4247961 123.7821104  79.6195526  69.1375933 124.4168569  79.5471427
  67.9337990 123.8784970  78.8035528  70.1465488 117.6872357  71.1912817
  69.2121767 117.8073819  71.0217522  70.3242157 116.7844823  70.9272827
  65.6470676 111.0718052  73.3446079  65.2768464 110.5189093  74.0326984
  66.1429769 110.4676186  72.7921079  73.5338039 113.5289676  71.7262852
  73.9998492 114.3617667  71.6523154  73.9845540 113.0634657  72.4308110
  63.4759875 121.5315547  80.4401097  64.1769334 122.1652030  80.5930491
  63.0054990 121.8730279  79.6796736  71.6014271 119.8733497  68.7249004
  71.8774114 119.7590092  69.6342878  70.7318769 119.4750982  68.6861177
  71.5054702 105.8970263  75.7653753  70.5917782 106.1274490  75.9335960
  71.9347804 105.9808707  76.6167785  71.2761161 114.0860155  78.2653647
  70.6232611 114.3336062  77.6106100  71.6541541 113.2724293  77.9316124
  68.2368335 124.1219848  72.3681817  68.4190729 123.3041504  72.8309570
  69.0601321 124.3387540  71.9306707  68.5710500 123.0488033  69.6296866
  69.0998266 122.5380488  69.0167028  68.8338720 122.7330563  70.4942399
  67.3248734 114.8279966  84.7519684  66.6489371 114.7274095  85.4222059
  68.1476368 114.6719180  85.2155681  59.0727593 121.0651902  77.3732199
  59.6581030 120.3195590  77.5060104  58.8752431 121.3755859  78.2568863
  61.9266248 124.1003150  72.3894642  61.2576623 124.5849277  71.9058682
  61.7879118 124.3472370  73.3038020  53.6645248 113.6357503  76.0936642
  53.7029347 113.1021093  76.8873761  53.1585540 113.1092708  75.4747620
  66.0671517 126.1346893  78.9877300  66.6189825 126.2978515  79.7526385
  66.4077710 126.7251331  78.3157325  61.0436010 108.4822043  79.5899185
  61.1077336 109.3436874  79.1776582  60.9803130 107.8696045  78.8571543
  60.5188282 110.5545176  83.2372219  61.1460321 110.1722253  83.8509743
  59.6616201 110.3359378  83.6027912  70.9182391 120.9608151  84.8425954
  71.4622295 121.5738109  84.3480909  70.3369236 121.5187729  85.3592967
  57.2953825 112.3621605  69.1690574  57.5907266 111.4532283  69.1157628
  56.3941861 112.3409344  68.8471576  69.2039904 124.0828869  75.9740982
  69.0791043 123.2818609  75.4651928  69.8618995 124.5775062  75.4854952
  60.8248072 110.4377601  75.1518122  60.1034658 111.0513569  75.0125596
  61.6141328 110.9735366  75.0734768  71.2674812 121.8837889  77.6020532
  70.3205148 121.7643240  77.5298859  71.6157585 120.9960387  77.6846794
  63.6274386 107.7732028  81.4258774  64.1508787 108.0194324  82.1885084
  63.4086719 108.6052063  81.0061912  59.0241667 110.0435702  69.2929899
  58.6954373 109.1633081  69.1105005  59.3781037 109.9883371  70.1806288
  68.2721246 121.6790605  73.8024885  68.1246208 120.7507312  73.9832455
  69.0974739 121.7010696  73.3181960  62.1383490 110.3308672  69.6605377
  62.4779562 110.8594593  68.9383985  62.5855610 110.6689078  70.4363943
  71.8755367 122.5019164  74.8889757  72.8001915 122.2962025  74.7514208
  71.7070671 122.2535565  75.7979099  64.8326931 108.7145723  79.1108445
  64.4923751 107.9153536  79.5129125  64.1265937 109.0147434  78.5385278
  65.4843402 105.7995035  77.5635768  66.3069472 105.3255514  77.4414658
  65.7281466 106.5785519  78.0634454  64.1251637 108.8283294  67.8598669
  64.8459999 109.2064547  67.3562386  63.5016941 109.5472171  67.9633647
  68.2682760 109.5328443  68.7957002  68.4846374 110.4153081  68.4945830
  67.7876827 109.1414656  68.0662644  63.0081981 112.4914156  75.3727746
  62.8626562 112.8054459  76.2652028  62.5307185 113.1099056  74.8198645
  64.8678364 109.4816704  75.4208636  64.8539933 108.5857797  75.0840934
  65.5850792 109.4887368  76.0546922  66.7204495 109.9154044  77.4661763
  66.4622273 110.8371115  77.4646094  66.1889535 109.5184479  78.1562227
  71.6650684 123.0204831  70.2451849  71.8387561 122.4551254  69.4925701
  72.1579575 123.8205726  70.0631339  57.4827643 115.0319500  78.3115408
  56.9381111 115.8079308  78.4435682  58.3606993 115.3790305  78.1534529
  64.2715260 108.3631084  70.6896206  64.3931171 107.4347730  70.8887094
  63.9817302 108.3769770  69.7774521  67.1406450 106.0485995  73.8262926
  67.1628147 106.1125328  72.8714905  67.5574509 105.2090503  74.0203432
  77.5190075 115.7841254  71.8642148  77.9621221 115.0348579  71.4661272
  76.6416585 115.7751391  71.4815880  72.6525856 122.3371596  67.3448747
  73.3476761 122.9578288  67.5636062  72.9949006 121.4866947  67.6201125
  58.2693665 114.1589397  81.2045564  57.5275401 114.3072032  81.7910195
  57.9486410 114.4197662  80.3412314  74.5517279 119.7871301  68.8736078
  75.0768603 120.1258574  68.1485398  74.4639632 118.8518317  68.6899212
  66.2137328 123.7005375  81.0025954  66.5224454 123.4554522  81.8748654
  67.0112810 123.9052013  80.5144825  66.2357940 125.8543284  73.2331331
  65.7962930 125.3619663  73.9264188  66.9866057 125.3116252  72.9923406
  58.7150279 122.0454825  73.2355959  59.5408299 121.7458597  72.8554603
  58.3644331 121.2762448  73.6845748  63.6831812 121.3981294  75.3053633
  63.0611821 120.7351999  75.0055861  64.3536679 121.4242425  74.6227280
  56.9158884 119.9641152  74.1944893  56.0790792 119.5363326  74.0128894
  56.8882529 120.1573595  75.1315684  63.7556340 109.8763082  84.8986139
  63.8044495 110.7525204  84.5163908  64.2978854 109.3340475  84.3257782
  74.2411185 120.4204205  84.1787276  73.4506729 120.4028344  83.6391775
  74.0044540 120.9592499  84.9336312  74.3609060 117.2696671  81.4920004
  74.4107065 117.1046679  82.4335527  74.2522984 116.4023930  81.1017885
  63.2445319 119.9485217  68.7812093  63.3933439 120.6320681  68.1278766
  64.0511762 119.9290307  69.2961549  71.6512823 113.2527599  82.8079311
  72.5522685 113.1134064  82.5163309  71.7260797 113.4182054  83.7477488
  65.9855628 110.6294454  81.6532497  65.1158937 110.9228020  81.3815086
  66.2215108 111.2134899  82.3739761  75.8627257 119.6893613  81.7362026
  75.5712065 120.0523593  82.5725487  75.2499388 118.9760621  81.5575358
  77.0622939 117.2546493  74.2564596  77.8969831 117.6936297  74.4202156
  77.1982068 116.7785146  73.4372842  74.1114445 114.8126227  80.2042084
  74.5868567 115.0053874  79.3960935  73.1880011 114.8685413  79.9585467
  60.9997952 115.9750395  69.7873162  60.7543994 115.0712725  69.9853372
  61.1693867 115.9767545  68.8452640  68.6894662 106.8474071  79.1697918
  69.2076606 107.5835098  78.8444406  68.3349795 107.1538064  80.0044677
  60.2693600 111.7078752  67.2859324  59.5762844 111.7823107  66.6299360
  60.0245351 110.9439096  67.8080840  68.9407256 103.2674353  74.6898814
  69.2209010 102.5997543  75.3159241  69.7257863 103.4603449  74.1773478
  66.7440725 122.4433347  66.2523841  66.1714692 123.0623534  65.7994312
  67.3173518 122.9932709  66.7863763  72.8116114 111.6891987  78.4370389
  73.7633537 111.7890085  78.4582613  72.6419565 110.8970256  78.9468474
  70.8330494 108.7747571  78.6229790  70.2380426 109.0552583  77.9276279
  70.5480191 109.2641472  79.3946531  69.9637984 122.7270497  67.3832423
  70.8968657 122.6616059  67.5865298  69.8761197 123.5626764  66.9246956
  72.5926001 122.0436368  64.3436370  72.5139633 121.7096231  65.2372128
  73.4135668 122.5358136  64.3427843  75.2904192 114.9098107  77.5512689
  75.2580512 113.9714108  77.7372373  75.9004816 114.9882144  76.8178514
  67.1287523 113.7794160  63.5939893  68.0746628 113.6500368  63.6628311
  66.7501768 113.0408822  64.0709321  75.4398681 111.7009151  77.5970972
  74.9237729 110.9167607  77.4100901  76.3238629 111.3727867  77.7617492
  73.1009408 105.4450166  73.5566785  72.9034229 105.1365254  74.4410117
  73.7109113 106.1711805  73.6864715  81.1080742 115.9714114  76.6918726
  81.8384131 115.7099402  77.2526429  80.4987688 115.2342836  76.7320794
  79.1896039 114.1121977  77.2893177  78.4629203 113.9777941  76.6809669
  78.7743326 114.4198805  78.0949895  67.0126216 117.8311906  85.0540550
  67.9329225 118.0090505  85.2480597  66.9775799 116.8867952  84.9020249
  65.3130440 111.7044136  63.5294778  64.4061896 111.4077249  63.6057492
  65.5906421 111.4073955  62.6629065  56.2308381 113.0250500  73.9793825
  55.9111165 112.1715808  73.6868199  55.6841809 113.2399078  74.7351792
  60.0088288 115.7412941  77.6963331  60.2274298 116.6730049  77.7151365
  60.4214062 115.3820915  78.4818135  66.9292506 106.2481026  69.6839020
  66.1193234 105.9028111  70.0594266  67.6176923 105.9388570  70.2726631
  68.8583054 105.3259073  71.3063316  69.4114093 105.7454526  71.9653339
  69.0953141 104.3994821  71.3486272  64.8816153 111.3146147  87.0866080
  64.7812880 112.2640504  87.0178171  64.6637695 110.9864386  86.2142150
  64.0829225 108.5631072  63.6706758  64.9448389 108.8885970  63.9302575
  64.2679569 107.7762568  63.1579823  56.0996641 116.6453411  75.9486946
  55.4060112 116.2307364  75.4356901  56.8469632 116.6873948  75.3520365
  72.2361861 107.4359598  70.8141981  71.6560530 108.0944402  70.4320033
  71.9697794 106.6136943  70.4029398  70.6865428 106.8364656  73.0163301
  71.1865206 106.9481190  72.2077620  71.3301036 106.5325709  73.6564109
  64.7447423 114.7443286  85.9031142  64.2614505 115.5443646  86.1095031
  64.8308363 114.7551230  84.9498586  58.0133383 116.5771665  73.8252961
  57.9904071 116.6759352  72.8734844  58.3234020 117.4236816  74.1470127
  60.6720761 118.6347820  77.9399576  61.6264015 118.6031763  77.8729507
  60.4733285 118.1738444  78.7549802  61.2620143 117.2048936  80.5070373
  62.0813032 117.6993015  80.5305211  61.5356951 116.2880904  80.4787941
  71.0186739 109.5959689  69.8698329  70.1312594 109.8809339  69.6518524
  71.4340728 109.4353452  69.0225606  74.3701275 109.6206210  73.5852668
  75.1461666 110.1102662  73.8577285  73.6449410 110.0464264  74.0424538
  76.8073834 110.3333829  74.6426609  77.4018325 110.0929565  73.9319917
  76.8800418 109.6140959  75.2700145  59.0270990 124.1767440  74.9569773
  58.8925458 123.4167841  74.3907772  58.6103052 124.9008340  74.4898562
  70.1629953 119.3604363  63.9646349  70.8665803 119.5654366  64.5804004
  69.4392602 119.9281125  64.2295432  70.9927763 115.1114224  70.0848619
  70.9362964 115.5682776  69.2456251  71.5456106 114.3504909  69.9071462
  74.8032569 110.9003956  70.9098738  74.5469503 110.5000592  71.7406946
  74.1785437 111.6147750  70.7848878  79.1144907 113.6400030  73.4170030
  78.5544465 113.7093219  74.1901592  78.5088410 113.4641014  72.6969526
  62.1840116 125.0736757  75.1688216  62.0672500 126.0182189  75.0666906
  61.3632562 124.7710318  75.5574015  72.0716650 119.7986892  66.0144809
  72.9062254 119.3668091  65.8322284  71.9100993 119.6268906  66.9421703
  71.7262542 116.3019006  67.3801148  71.6711346 116.1363277  66.4389592
  71.1008598 117.0095039  67.5363338  56.5155057 111.5387070  81.2062570
  57.1613921 111.0286024  81.6949796  56.3072208 112.2755752  81.7805996
  69.0408450 118.6067918  86.7054711  69.9099609 118.7808570  86.3441346
  68.5615201 119.4262334  86.5830440  65.0358668 105.8027115  66.9586467
  65.0237338 106.7468955  67.1154737  65.9282090 105.6197260  66.6645928
  63.2094630 125.7265019  78.3844145  64.1121876 125.7588629  78.7010640
  62.9832000 124.7965470  78.3990480  64.9648232 124.4796005  75.0454223
  64.0143863 124.4797867  74.9318595  65.2680718 123.7328740  74.5290258
  68.8510787 102.3969891  71.2132403  68.0843183 101.8428378  71.3589086
  69.2621492 102.4691760  72.0746555  60.8552548 108.6854687  85.3037585
  61.7184010 108.3291492  85.5140909  60.2817959 108.3468582  85.9912989
  80.7000925 130.3156544  76.1099986  81.3379335 130.1963291  75.4063326
  80.5821768 131.2637387  76.1687938  77.5090632 130.2683972  76.0461510
  77.1709143 130.1525036  75.1582045  78.3780400 129.8675137  76.0262516
  77.9910415 131.4218823  82.0047716  77.9799055 131.0271622  81.1328219
  78.1531054 130.6884896  82.5981487  75.2098911 129.0372219  65.3778450
  75.4624432 128.5153740  64.6161913  74.2723470 128.8738364  65.4805134
  80.2542194 128.0407997  73.1853194  81.0405283 127.6227421  72.8343611
  80.5180898 128.9454090  73.3534842  85.6550621 127.9783231  74.0886172
  86.3875793 127.4082447  74.3224002  84.8989977 127.5904831  74.5292678
  77.2726741 130.4010472  71.2849515  76.9084948 129.8741093  71.9962436
  78.1293857 130.0108941  71.1116000  83.1776041 121.6904805  78.5480781
  82.8459366 122.5600216  78.3241996  82.5821655 121.3741089  79.2274811
  76.9132228 125.4300372  66.2810863  77.0806630 126.2980608  66.6481334
  76.7229397 125.5927653  65.3572152  83.0704705 126.4099891  75.6274131
  82.1621582 126.3415299  75.3332892  83.0192300 126.8871836  76.4555956
  76.8921448 127.8858029  67.2657530  76.7721074 128.3315080  68.1043010
  76.1974037 128.2343347  66.7071068  77.1445570 127.8289536  83.5709028
  76.3678904 128.3883457  83.5611893  77.7836133 128.3146319  84.0923898
  84.9366351 124.6116329  77.4052005  84.2940731 124.9048862  76.7591799
  84.4321279 124.4969250  78.2105201  82.5906515 128.3579502  68.0937864
  83.5024371 128.5906889  67.9185562  82.0816162 128.9416547  67.5312943
  80.8747282 132.7804130  81.7299157  81.2830638 132.3386541  80.9853789
  80.1524544 132.2056758  81.9833349  77.2278352 127.7176737  79.1032713
  78.0739548 128.1416151  79.2467362  77.1676990 127.0610361  79.7971277
  80.3777798 125.3781105  80.7613887  80.1338730 126.1323166  80.2248163
  80.6537728 125.7566453  81.5961134  82.3316260 131.9219718  79.4391153
  82.5433156 132.5651478  78.7625534  82.2846009 131.0882034  78.9713083
  79.9342489 124.5337538  76.3427725  79.0726968 124.8318792  76.6344462
  79.9604924 124.7507937  75.4108757  75.6872945 129.2002881  69.5591096
  76.3896988 129.6523925  70.0265022  75.3553573 128.5586700  70.1870989
  74.1353306 127.7914638  83.9342305  73.5051967 128.4730919  84.1677702
  74.0289394 127.6797720  82.9895443  69.4298279 127.4586434  74.8608229
  68.6397333 127.7143963  74.3848340  69.9209526 128.2734772  74.9660270
  71.3813024 127.8231013  71.8191706  70.5844187 127.9349708  72.3375202
  71.1538616 128.1617665  70.9532596  73.4134049 122.0935404  86.2967556
  73.0200995 121.5401602  86.9715200  74.2300189 122.4045982  86.6874074
  76.3302010 123.5093283  83.8887813  77.0711723 124.1100436  83.8092275
  76.5619933 122.7670921  83.3305855  71.4743348 128.6949650  82.1666042
  71.3596863 127.7934907  82.4673141  70.6187866 128.9413347  81.8150859
  80.2759173 119.5374386  78.1652094  79.9323442 120.4276028  78.0891205
  80.6438136 119.3476044  77.3021679  80.2409456 129.5282997  66.6724529
  79.7256079 130.2987602  66.9112917  79.9686764 128.8548133  67.2957591
  77.8256567 124.3732698  71.7309768  76.9698163 123.9839548  71.5515407
  78.2383519 124.4524659  70.8709553  79.3555713 121.9079041  76.1301328
  78.8520509 121.8709176  75.3169133  79.6486320 122.8171784  76.1897984
  75.5998599 121.9917771  75.1367509  76.4651596 121.7960579  74.7773399
  75.6676108 121.7628123  76.0636866  80.0295759 127.4010089  68.4984311
  79.7245895 127.7156238  69.3494454  80.9826201 127.4791509  68.5411644
  73.2060918 124.2219979  72.5083876  73.7804670 123.9995160  71.7757069
  73.7931901 124.2908673  73.2612477  82.2640496 130.1093706  73.3148253
  82.7772377 130.7423697  73.8169962  82.9141720 129.5094901  72.9491613
  73.5330506 126.2524440  66.5279761  72.6967818 126.5899126  66.8489036
  73.3935275 126.1173419  65.5906898  75.5083586 121.0961228  71.2358946
  74.8547998 120.7810245  70.6115560  75.4664060 120.4736968  71.9618769
  76.6194791 131.3780523  63.1512238  75.7121853 131.1469776  63.3503387
  77.1165823 130.5818142  63.3386219  78.7421326 127.5843161  75.5606593
  77.8243888 127.8058108  75.4028281  79.1581470 127.6589472  74.7018301
  79.5256374 128.9834577  70.6909273  80.2728193 129.4955974  70.3816396
  79.7947964 128.6618630  71.5513667  77.7983024 131.4793118  67.6736228
  76.8894244 131.1952150  67.7708697  77.8278108 131.8992196  66.8139535
  81.9735211 126.0191693  72.6728063  81.2357968 125.5069079  73.0038305
  82.2261985 125.5792075  71.8611340  82.0746839 118.7967945  73.2669832
  82.3805716 117.9365308  72.9795747  82.7999444 119.3885565  73.0668826
  76.3467918 129.0921738  73.7746023  76.4016528 128.1395575  73.6988500
  75.5359120 129.2481177  74.2587322  74.2860278 127.7098798  71.5336402
  73.4728144 128.0092968  71.9401594  74.7819273 127.3154487  72.2510884
  79.8834490 128.1740622  80.3651296  80.2383878 128.4012095  81.2245762
  80.5306621 128.5058999  79.7428551  73.7774353 125.2817153  77.1497637
  74.4173732 125.1405912  76.4520600  72.9451884 124.9951667  76.7736239
  70.8617421 128.7262666  69.3392382  69.9315009 128.6647121  69.5562344
  70.9574892 128.2038618  68.5429023  70.7802970 125.2517478  71.9270624
  71.0409787 126.1662812  71.8179784  71.6020142 124.7841921  72.0767237
  72.2527895 126.6655236  79.0969448  72.9250948 126.4572598  78.4482097
  71.4257681 126.4677322  78.6574681  78.1553467 123.2917176  81.1135109
  77.5081382 123.9907126  81.0199586  78.9254482 123.7253320  81.4811357
  78.3317601 131.1297941  79.1731929  79.2609661 131.2809101  79.0000896
  77.9108631 131.2181962  78.3180575  72.6555392 129.9397839  79.8571885
  72.5175190 129.2078077  80.4583424  73.5660316 129.8506739  79.5756073
  81.6170340 131.8786243  64.6056364  80.9999510 131.1533071  64.5089417
  81.1486828 132.6395603  64.2623438  75.2837693 129.6517798  79.3455565
  75.9937311 129.0110990  79.3042183  75.2407001 129.9030693  80.2681746
  73.9966627 126.6383016  81.1651205  73.4603984 126.1873754  81.8172801
  73.4083335 126.7728925  80.4221669  73.4068886 126.0971667  63.7277668
  72.5298352 125.9760468  63.3639915  73.8826639 125.3057745  63.4756557
  69.7305748 125.7739023  78.2504199  69.6463937 125.1664693  77.5154609
  68.9088454 126.2648042  78.2513695  79.9029462 124.2592587  73.6174394
  80.3998161 123.5062549  73.2975464  79.1316443 124.2956904  73.0517603
  76.4864431 126.4009970  73.3446079  76.1162218 125.8481010  74.0326984
  76.9823523 125.7968103  72.7921079  84.3731794 128.8581593  71.7262852
  84.8392246 129.6909585  71.6523154  84.8239294 128.3926575  72.4308110
  82.3448457 121.2262180  75.7653753  81.4311536 121.4566407  75.9335960
  82.7741558 121.3100625  76.6167785  82.1154915 129.4152072  78.2653647
  81.4626365 129.6627980  77.6106100  82.4935295 128.6016211  77.9316124
  78.1642488 130.1571883  84.7519684  77.4883125 130.0566013  85.4222059
  78.9870122 130.0011097  85.2155681  71.8829764 123.8113961  79.5899185
  71.9471091 124.6728792  79.1776582  71.8196885 123.1987962  78.8571543
  71.3582037 125.8837093  83.2372219  71.9854076 125.5014171  83.8509743
  70.5009956 125.6651295  83.6027912  68.1347580 127.6913522  69.1690574
  68.4301021 126.7824201  69.1157628  67.2335615 127.6701262  68.8471576
  71.6641827 125.7669519  75.1518122  70.9428412 126.3805487  75.0125596
  72.4535082 126.3027284  75.0734768  74.4668140 123.1023945  81.4258774
  74.9902542 123.3486242  82.1885084  74.2480473 123.9343980  81.0061912
  69.8635421 125.3727620  69.2929899  69.5348127 124.4924999  69.1105005
  70.2174792 125.3175289  70.1806288  72.9777244 125.6600590  69.6605377
  73.3173317 126.1886511  68.9383985  73.4249365 125.9980996  70.4363943
  75.6720685 124.0437641  79.1108445  75.3317506 123.2445454  79.5129125
  74.9659691 124.3439351  78.5385278  76.3237157 121.1286953  77.5635768
  77.1463226 120.6547431  77.4414658  76.5675221 121.9077437  78.0634454
  74.9645391 124.1575211  67.8598669  75.6853754 124.5356464  67.3562386
  74.3410696 124.8764088  67.9633647  79.1076514 124.8620360  68.7957002
  79.3240129 125.7444998  68.4945830  78.6270581 124.4706574  68.0662644
  73.8475736 127.8206074  75.3727746  73.7020316 128.1346377  76.2652028
  73.3700939 128.4390974  74.8198645  75.7072119 124.8108622  75.4208636
  75.6933687 123.9149715  75.0840934  76.4244547 124.8179285  76.0546922
  77.5598249 125.2445962  77.4661763  77.3016027 126.1663032  77.4646094
  77.0283290 124.8476396  78.1562227  75.1109015 123.6923002  70.6896206
  75.2324926 122.7639648  70.8887094  74.8211057 123.7061688  69.7774521
  77.9800205 121.3777912  73.8262926  78.0021902 121.4417245  72.8714905
  78.3968264 120.5382421  74.0203432  74.5950094 125.2054999  84.8986139
  74.6438250 126.0817122  84.5163908  75.1372608 124.6632392  84.3257782
  82.4906577 128.5819517  82.8079311  83.3916440 128.4425982  82.5163309
  82.5654552 128.7473972  83.7477488  76.8249383 125.9586372  81.6532497
  75.9552692 126.2519938  81.3815086  77.0608863 126.5426817  82.3739761
  84.9508200 130.1418145  80.2042084  85.4262321 130.3345791  79.3960935
  84.0273765 130.1977331  79.9585467  79.5288416 122.1765989  79.1697918
  80.0470360 122.9127016  78.8444406  79.1743549 122.4829982  80.0044677
  71.1087354 127.0370670  67.2859324  70.4156599 127.1115025  66.6299360
  70.8639106 126.2731013  67.8080840  79.7801011 118.5966271  74.6898814
  80.0602764 117.9289460  75.3159241  80.5651617 118.7895367  74.1773478
  83.6509869 127.0183905  78.4370389  84.6027292 127.1182003  78.4582613
  83.4813319 126.2262174  78.9468474  81.6724248 124.1039488  78.6229790
  81.0774180 124.3844501  77.9276279  81.3873945 124.5933389  79.3946531
  77.9681278 129.1086078  63.5939893  78.9140382 128.9792286  63.6628311
  77.5895522 128.3700740  64.0709321  86.2792435 127.0301068  77.5970972
  85.7631484 126.2459525  77.4100901  87.1632384 126.7019785  77.7617492
  83.9403162 120.7742084  73.5566785  83.7427983 120.4657172  74.4410117
  84.5502868 121.5003723  73.6864715  76.1524195 127.0336054  63.5294778
  75.2455650 126.7369167  63.6057492  76.4300176 126.7365872  62.6629065
  77.7686260 121.5772944  69.6839020  76.9586989 121.2320029  70.0594266
  78.4570677 121.2680488  70.2726631  79.6976809 120.6550991  71.3063316
  80.2507847 121.0746444  71.9653339  79.9346895 119.7286739  71.3486272
  75.7209908 126.6438064  87.0866080  75.6206635 127.5932421  87.0178171
  75.5031450 126.3156303  86.2142150  74.9222979 123.8922989  63.6706758
  75.7842143 124.2177888  63.9302575  75.1073323 123.1054485  63.1579823
  83.0755616 122.7651516  70.8141981  82.4954285 123.4236320  70.4320033
  82.8091548 121.9428860  70.4029398  81.5259182 122.1656574  73.0163301
  82.0258961 122.2773108  72.2077620  82.1694790 121.8617626  73.6564109
  75.5841178 130.0735203  85.9031142  75.1008260 130.8735563  86.1095031
  75.6702117 130.0843148  84.9498586  81.8580494 124.9251606  69.8698329
  80.9706349 125.2101257  69.6518524  82.2734483 124.7645370  69.0225606
  85.2095030 124.9498127  73.5852668  85.9855420 125.4394580  73.8577285
  84.4843164 125.3756181  74.0424538  87.6467589 125.6625746  74.6426609
  88.2412079 125.4221482  73.9319917  87.7194172 124.9432877  75.2700145
  81.8321518 130.4406142  70.0848619  81.7756719 130.8974694  69.2456251
  82.3849860 129.6796827  69.9071462  85.6426323 126.2295874  70.9098738
  85.3863258 125.8292510  71.7406946  85.0179191 126.9439668  70.7848878
  82.5656297 131.6310923  67.3801148  82.5105101 131.4655195  66.4389592
  81.9402352 132.3386956  67.5363338  67.3548812 126.8678988  81.2062570
  68.0007675 126.3577942  81.6949796  67.1465963 127.6047669  81.7805996
  75.8752422 121.1319032  66.9586467  75.8631092 122.0760872  67.1154737
  76.7675844 120.9489178  66.6645928  79.6904542 117.7261809  71.2132403
  78.9236938 117.1720296  71.3589086  80.1015247 117.7983678  72.0746555
  71.6946303 124.0146605  85.3037585  72.5577764 123.6583410  85.5140909
  71.1211713 123.6760500  85.9912989  15.6638400  15.3467160  62.8345292
  16.3016810  15.2273907  62.1308632  15.5459242  16.2948004  62.8933244
  12.4728106  15.2994588  62.7706817  12.1346617  15.1835653  61.8827352
  13.3417874  14.8985753  62.7507823   8.3314922  17.1530065  58.7603708
   7.7679787  17.0620002  57.9919996   8.2167317  16.3329969  59.2406200
  12.9547889  16.4529440  68.7293022  12.9436530  16.0582238  67.8573526
  13.1168528  15.7195513  69.3226794   5.8779354  18.6481256  61.5987928
   6.6700645  18.3072081  61.1834228   6.1176004  18.7576231  62.5190082
  13.9114480  20.8201032  54.0718173  13.2602460  21.4055113  53.6852187
  14.7058843  21.3507227  54.1313210   7.8370107  17.9090169  54.4705307
   8.6100983  17.3619157  54.3318183   8.1895506  18.7734419  54.6819768
   9.6755150  19.2366552  67.6772206   9.3845016  20.1412183  67.5618873
  10.3112134  19.2783079  68.3916276  10.6011357  16.6143400  64.2673566
  11.1974929  16.3899423  63.5530529  10.6586328  15.8728146  64.8699014
  10.1736385  14.0682836  52.1023757  10.4261906  13.5464357  51.3407220
   9.2360944  13.9048981  52.2050441  15.2179668  13.0718614  59.9098500
  16.0042757  12.6538037  59.5588917  15.4818372  13.9764706  60.0780149
  15.3889745  18.5091464  54.6087157  14.7535578  18.5826091  55.3208062
  15.0587152  19.0985063  53.9306236  20.6188095  13.0093847  60.8131479
  21.3513267  12.4393064  61.0469308  19.8627451  12.6215448  61.2537984
   9.8932674  15.9710942  54.3048132   9.7768932  15.2955845  54.9729216
  10.0034934  15.4843315  53.4880285  12.2364215  15.4321089  58.0094821
  11.8722422  14.9051710  58.7207743  13.0931331  15.0419558  57.8361307
  18.1413516   6.7215421  65.2726087  17.8096840   7.5910832  65.0487302
  17.5459129   6.4051705  65.9520118  11.8769702  10.4610988  53.0056170
  12.0444104  11.3291225  53.3726641  11.6866871  10.6238270  52.0817459
  14.6345035  18.9227967  64.6722000  14.3345758  19.8253006  64.5637807
  14.2896095  18.6560150  65.5243153   8.0857517  15.3741764  60.7058705
   7.1608013  15.2417978  60.9136396   8.3341930  16.1535983  61.2028647
  18.0342179  11.4410507  62.3519437  17.1259056  11.3725916  62.0578198
  17.9829775  11.9182452  63.1801263  11.8558923  12.9168646  53.9902837
  11.7358548  13.3625697  54.8288317  11.1611511  13.2653963  53.4316375
   5.4466328  15.0175038  61.5402494   5.5758709  15.2709517  62.4541905
   4.7663779  15.6102746  61.2207149   9.6165815  25.6872288  57.6392968
   9.5389845  26.6380113  57.7181448   9.0127458  25.3418160  58.2967894
  12.1083045  12.8600153  70.2954335  11.3316379  13.4194073  70.2857199
  12.7473608  13.3456936  70.8169205  19.9003825   9.6426946  64.1297311
  19.2578206   9.9359479  63.4837106  19.3958754   9.5279866  64.9350508
  17.5543989  13.3890119  54.8183171  18.4661845  13.6217506  54.6430868
  17.0453636  13.9727163  54.2558249  10.3629417  15.6685606  69.8572302
  11.1044101  16.2070650  69.5807125   9.6566402  16.2951895  70.0143853
  15.8384757  17.8114747  68.4544463  16.2468113  17.3697157  67.7099096
  15.1162018  17.2367374  68.7078656  12.1915827  12.7487354  65.8278020
  13.0377022  13.1726767  65.9712669  12.1314464  12.0920978  66.5216583
  16.1613571  18.3715937  62.2096752  15.5322434  18.5361652  61.5072820
  15.7739233  18.7857547  62.9807716  20.0402803  19.3070375  59.5641116
  19.3553841  19.6869277  59.0138149  20.1246652  19.9165702  60.2973064
  15.3415272  10.4091722  67.4859194  15.0976204  11.1633782  66.9493469
  15.6175202  10.7877070  68.3206441  17.2953735  16.9530334  66.1636459
  17.5070630  17.5962094  65.4870840  17.2483483  16.1192651  65.6958389
  14.8979964   9.5648155  63.0673031  14.0364443   9.8629409  63.3589769
  14.9242398   9.7818554  62.1354064  11.7141533  18.1090346  59.4746837
  12.1779879  18.3878049  58.6851460  11.4498331  17.2073790  59.2919928
   8.6065614  17.6561827  62.4126600   9.1766971  18.0849095  61.7744085
   9.1973726  17.3744412  63.1110786  10.6510419  14.2313498  56.2836402
  11.3534463  14.6834542  56.7510329  10.3191048  13.5897317  56.9116295
   9.0990781  12.8225255  70.6587612   8.4689441  13.5041535  70.8923009
   8.9926869  12.7108336  69.7140750  18.4099563  19.8302290  64.3358817
  19.2317006  19.4282477  64.0541498  18.4061966  19.7270524  65.2874932
  12.1756166  19.3786333  66.4919527  12.2400599  19.8406740  67.3277699
  11.4667090  18.7483698  66.6201837  26.5005556  16.1741038  60.6843788
  25.7469264  15.6048436  60.5287793  26.6353097  16.1403703  61.6314423
  11.8904184  21.0454441  56.3598508  11.7549859  21.8905976  56.7883355
  12.4313996  21.2473718  55.5964441   5.3433581  18.5629879  56.9326433
   5.8558102  19.3573129  57.0831997   5.9956294  17.8656169  56.8660034
   7.1528466  21.6795635  59.0149186   7.3295094  22.6013600  58.8270170
   7.9485299  21.3654054  59.4443566  13.5172660  21.6678007  70.4898850
  13.0736514  20.8814386  70.1719754  14.1789874  21.8557158  69.8242740
   8.2759781  23.1973809  65.0159528   8.8267206  23.0690872  64.2436522
   7.4371257  23.4968698  64.6654421  15.6153898  21.9480807  68.5180251
  15.5972374  22.7689688  68.0260520  16.5373818  21.8234882  68.7430392
  12.0726952  19.4624936  69.3603759  12.6055289  18.7013225  69.1303067
  11.5441034  19.1698588  70.1027914  15.2046930  14.5593614  53.3969836
  14.6893554  15.3298218  53.6358224  14.9324239  13.8858750  54.0202898
  20.1781204  17.3125968  55.3323010  19.4010647  16.9737128  54.8878172
  20.8572685  17.3178591  54.6577975  14.9933233  12.4320706  55.2229617
  14.6883369  12.7466855  56.0739760  15.9463675  12.5102126  55.2656950
  13.4379665  18.5910929  56.8722571  12.9101027  17.8563689  56.5595809
  12.9367168  19.3685605  56.6262540  18.4172511  16.7859949  61.9889618
  17.7596186  17.4759211  62.0769746  19.2212910  17.1756381  62.3323604
  17.2277970  15.1404322  60.0393559  17.7409852  15.7734314  60.5415269
  17.8779194  14.5405518  59.6736919  11.5832265  16.4091139  49.8757544
  10.6759327  16.1780393  50.0748693  12.0803297  15.6128758  50.0631526
  14.4900344  25.1188646  52.7954230  13.8162043  25.4220343  53.4039188
  14.8766166  25.9217727  52.4459688  13.7058801  12.6153778  62.2851900
  12.7881362  12.8368725  62.1273588  14.1218944  12.6900088  61.4263607
  14.4893849  14.0145193  57.4154580  15.2365668  14.5266591  57.1061702
  14.7585438  13.6929246  58.2758974  12.7620499  16.5103734  54.3981534
  11.8531718  16.2262767  54.4954004  12.7915583  16.9302813  53.5384841
  17.9939766  20.1210324  58.1672702  17.5402093  19.2801233  58.2237892
  17.3633733  20.7571722  58.5047482  16.9372686  11.0502310  59.3973369
  16.1995443  10.5379696  59.7283612  17.1899459  10.6102691  58.5856646
  16.4372705  21.9586820  59.1022520  16.7295680  22.5191877  58.3834886
  16.9471326  22.2515381  59.8575679  11.3105393  14.1232355  60.4991330
  11.3654003  13.1706191  60.4233806  10.4996595  14.2791794  60.9832628
  12.4596587  18.0512478  51.7369613  12.0216016  17.3348337  51.2775250
  13.2007027  18.2788593  51.1754704   9.2497753  12.7409414  58.2581709
   8.4365618  13.0403585  58.6646901   9.7456747  12.3465103  58.9756191
  11.4006331  22.7367171  60.1915973  11.3582509  22.9628018  59.2624505
  12.3169029  22.5030546  60.3401774  14.8471964  13.2051239  67.0896602
  15.2021352  13.4322712  67.9491068  15.4944096  13.5369616  66.4673858
  20.5769701  16.3269675  57.7945932  20.4387600  16.5171271  56.8667121
  20.2205920  17.0889058  58.2513983  20.6039081  18.3946202  62.8057203
  21.0375588  18.3021491  63.6540257  21.3170662  18.3703702  62.1677219
   9.5172131  19.6130200  59.9877936  10.3112730  19.1180520  59.7860511
   8.8063824  19.0848063  59.6245642  14.3366976  21.9948296  64.3390304
  14.3903998  22.5639232  65.1068020  13.4681757  22.1650181  63.9744341
  21.4654630  18.4369902  65.3390088  21.6590521  19.3415713  65.5849363
  21.3655249  17.9777322  66.1728673  16.5269739  18.5876645  70.9130969
  16.3755246  18.3587197  69.9961053  16.5174419  19.5447247  70.9262314
  13.2955076  16.1608558  65.8977235  14.2247136  16.3119718  65.7246203
  12.8746106  16.2492579  65.0425882  12.0943407  20.1859222  63.6675773
  11.9554493  19.8178007  64.5401711  11.3058004  20.7006862  63.4959731
  12.6891559  25.2868319  55.0101310  12.8643315  24.8156362  55.8246932
  12.0024347  25.9134085  55.2382570  13.6448623  19.5640825  61.0564611
  13.3098455  19.5241595  61.9522261  13.1452568  18.8985541  60.5835021
   7.6192866  14.9708455  66.5817192   7.4812664  14.2388694  67.1828731
   8.5297790  14.8817355  66.3001380  16.5807814  16.9096859  51.3301671
  15.9636985  16.1843688  51.2334723  16.1124303  17.6706220  50.9868745
  10.2475167  14.6828414  66.0700872  10.9574786  14.0421607  66.0287490
  10.2044475  14.9341309  66.9927052  18.2361946  21.6195768  68.9907451
  18.1774492  20.9354988  68.3238034  18.6381464  22.3614758  68.5388077
   7.2552645  28.4357682  61.7841170   7.4949243  29.0676206  62.4620188
   6.4121841  28.0845722  62.0706529  18.2379353  19.5835352  67.2221431
  17.3506132  19.2461273  67.3447829  18.8077904  18.8518383  67.4590196
  11.7680506  24.2436804  64.1882674  11.6950678  25.0491776  64.7001978
  11.3257900  24.4428770  63.3630695  11.5570286  23.4808574  57.6985495
  10.7737808  24.0230254  57.7923720  12.2563031  23.9982554  58.0979737
  14.8666936   9.2903204  60.3419701  15.3635636   8.5373166  60.0220771
  14.0953918   9.3267520  59.7762910  22.7196694  14.9943569  61.9837992
  22.7086570  15.8768284  61.6131925  21.8514073  14.6415120  61.7892529
  14.2279190  24.1423638  66.3440832  14.9407162  24.7771103  66.2716734
  13.7369219  24.2387504  65.5280834  15.9496717  18.0474891  57.9158124
  15.0152996  18.1676353  57.7462828  16.1273385  17.1447357  57.6518134
  11.4501905  11.4320586  60.0691385  11.0799692  10.8791627  60.7572291
  11.9460997  10.8278720  59.5166385  19.3369268  13.8892210  58.4508158
  19.8029720  14.7220202  58.3768461  19.7876769  13.4237192  59.1553417
   9.2791104  21.8918082  67.1646403   9.9800563  22.5254564  67.3175797
   8.8086219  22.2332813  66.4042043  17.4045499  20.2336031  55.4494310
  17.6805343  20.1192626  56.3588184  16.5349998  19.8353516  55.4106483
  17.0792389  14.4462689  64.9898954  16.4263840  14.6938596  64.3351406
  17.4572769  13.6326827  64.6561431  14.0399563  24.4822382  59.0927124
  14.2221958  23.6644038  59.5554876  14.8632549  24.6990074  58.6552014
  14.3741729  23.4090567  56.3542172  14.9029495  22.8983022  55.7412335
  14.6369948  23.0933097  57.2187705  13.1279963  15.1882500  71.4764991
  12.4520600  15.0876629  72.1467366  13.9507596  15.0321714  71.9400988
   4.8758822  21.4254437  64.0977506   5.4612258  20.6798124  64.2305410
   4.6783660  21.7358393  64.9814170   7.7297477  24.4605684  59.1139948
   7.0607852  24.9451812  58.6303988   7.5910347  24.7074904  60.0283327
  11.8702745  26.4949427  65.7122607  12.4221053  26.6581049  66.4771692
  12.2108939  27.0853865  65.0402632  16.7213620  21.3210685  71.5671261
  17.2653524  21.9340643  71.0726216  16.1400465  21.8790263  72.0838274
  15.0071133  24.4431403  62.6986289  14.8822272  23.6421143  62.1897234
  15.6650224  24.9377596  62.2100259  17.0706041  22.2440423  64.3265839
  16.1236377  22.1245774  64.2544166  17.4188814  21.3562921  64.4092100
  14.0752474  22.0393139  60.5270191  13.9277437  21.1109847  60.7077761
  14.9005968  22.0613230  60.0427266  17.6786596  22.8621698  61.6135064
  18.6033144  22.6564559  61.4759515  17.5101900  22.6138099  62.5224405
  14.0713989   9.8930977  55.5202308  14.2877603  10.7755615  55.2191137
  13.5908056   9.5017190  54.7907950   8.8113210  12.8516690  62.0973053
   8.6657791  13.1656993  62.9897335   8.3338414  13.4701590  61.5443952
  17.4681912  23.3807365  56.9697155  17.6418790  22.8153788  56.2171008
  17.9610804  24.1808260  56.7876645  23.3221304  16.1443788  58.5887455
  23.7652450  15.3951114  58.1906578  22.4447814  16.1353925  58.2061187
  18.4557085  22.6974130  54.0694054  19.1507990  23.3180823  54.2881368
  18.7980235  21.8469481  54.3446432  20.3548508  20.1473835  55.5981384
  20.8799832  20.4861108  54.8730704  20.2670861  19.2120851  55.4144519
  12.0168557  24.0607909  67.7271261  12.3255683  23.8157056  68.5993961
  12.8144039  24.2654548  67.2390131  12.0389169  26.2145819  59.9576638
  11.5994159  25.7222197  60.6509494  12.7897286  25.6718786  59.7168713
   4.5181508  22.4057360  59.9601266   5.3439528  22.1061131  59.5799909
   4.1675560  21.6364982  60.4091054   9.4863041  21.7583828  62.0298939
   8.8643050  21.0954533  61.7301167  10.1567908  21.7844960  61.3472587
   2.7190113  20.3243686  60.9190199   1.8822021  19.8965860  60.7374201
   2.6913758  20.5176129  61.8560990  20.0442414  20.7806739  70.9032582
  19.2537958  20.7630878  70.3637082  19.8075769  21.3195033  71.6581619
  20.1640289  17.6299205  68.2165311  20.2138294  17.4649213  69.1580834
  20.0554212  16.7626464  67.8263192   9.0476548  20.3087751  55.5057400
   9.1964668  20.9923216  54.8524073   9.8542991  20.2892841  56.0206856
  17.4544052  13.6130133  69.5324618  18.3553914  13.4736598  69.2408615
  17.5292026  13.7784588  70.4722795  11.7886857  10.9896988  68.3777804
  10.9190166  11.2830554  68.1060392  12.0246337  11.5737433  69.0985068
  21.6658486  20.0496147  68.4607332  21.3743294  20.4126127  69.2970793
  21.0530617  19.3363155  68.2820665  22.8654168  17.6149027  60.9809903
  23.7001060  18.0538831  61.1447463  23.0013297  17.1387680  60.1618148
  19.9145674  15.1728762  66.9287390  20.3899796  15.3656408  66.1206242
  18.9911240  15.2287947  66.6830774   6.8029181  16.3352929  56.5118469
   6.5575223  15.4315259  56.7098679   6.9725095  16.3370079  55.5697947
  12.5471953  22.8035882  52.9769147  11.9745920  23.4226069  52.5239619
  13.1204747  23.3535243  53.5109069  18.6147343  12.0494522  65.1615696
  19.5664766  12.1492619  65.1827920  18.4450794  11.2572790  65.6713780
  16.6361723   9.1350105  65.3475097  16.0411655   9.4155118  64.6521586
  16.3511419   9.6244006  66.1191838  15.7669213  23.0873032  54.1077730
  16.6999886  23.0218593  54.3110605  15.6792426  23.9229299  53.6492262
  18.3957230  22.4038902  51.0681677  18.3170861  22.0698766  51.9617435
  19.2166897  22.8960670  51.0673149  21.0935421  15.2700641  64.2757996
  21.0611741  14.3316642  64.4617680  21.7036045  15.3484678  63.5423821
  12.9318752  14.1396694  50.3185200  13.8777857  14.0102902  50.3873618
  12.5532997  13.4011356  50.7954628  21.2429909  12.0611685  64.3216279
  20.7268958  11.2770141  64.1346208  22.1269858  11.7330401  64.4862798
  18.9040636   5.8052700  60.2812092  18.7065458   5.4967789  61.1655424
  19.5140342   6.5314339  60.4110021  26.9111971  16.3316648  63.4164032
  27.6415359  16.0701936  63.9771736  26.3018916  15.5945370  63.4566100
  24.9927268  14.4724511  64.0138484  24.2660432  14.3380476  63.4054975
  24.5774555  14.7801339  64.8195202  12.8157444  18.1914440  71.7785857
  13.7360454  18.3693039  71.9725903  12.7807027  17.2470486  71.6265556
  11.1161669  12.0646671  50.2540085  10.2093124  11.7679783  50.3302799
  11.3937650  11.7676489  49.3874371   5.8119517  16.1015475  64.4208638
   6.0305527  17.0332583  64.4396672   6.2245291  15.7423450  65.2063442
  10.6847382  11.6748681  73.8111387  10.5844109  12.6243038  73.7423478
  10.4668924  11.3466920  72.9387457  18.0393090   7.7962132  57.5387287
  17.4591759   8.4546936  57.1565340  17.7729023   6.9739477  57.1274705
  16.4896656   7.1967190  59.7408607  16.9896435   7.3083725  58.9322926
  17.1332264   6.8928243  60.3809416  10.5478652  15.1045820  72.6276448
  10.0645734  15.9046180  72.8340337  10.6339591  15.1153765  71.6743892
   3.8164612  16.9374199  60.5498268   3.7935300  17.0361887  59.5980151
   4.1265248  17.7839350  60.8715434   6.4751990  18.9950354  64.6644882
   7.4295243  18.9634297  64.5974814   6.2764513  18.5340978  65.4795108
   7.0651372  17.5651470  67.2315680   7.8844261  18.0595549  67.2550517
   7.3388180  16.6483439  67.2033247  16.8217968   9.9562223  56.5943635
  15.9343823  10.2411873  56.3763830  17.2371957   9.7955986  55.7470912
  20.1732504   9.9808744  60.3097975  20.9492894  10.4705196  60.5822591
  19.4480638  10.4066798  60.7669844  22.6105063  10.6936363  61.3671915
  23.2049554  10.4532099  60.6565224  22.6831647   9.9743494  61.9945452
   4.8302219  24.5369974  61.6815080   4.6956687  23.7770375  61.1153078
   4.4134281  25.2610874  61.2143869  15.9661182  19.7206897  50.6891655
  16.6697032  19.9256900  51.3049311  15.2423830  20.2883659  50.9540739
  16.7958992  15.4716759  56.8093926  16.7394193  15.9285310  55.9701558
  17.3487334  14.7107443  56.6316768  20.6063798  11.2606491  57.6344045
  20.3500732  10.8603126  58.4652253  19.9816666  11.9750285  57.5094184
  24.9176136  14.0002564  60.1415336  24.3575694  14.0695753  60.9146899
  24.3119639  13.8243548  59.4214833   7.9871344  25.4339291  61.8933523
   7.8703729  26.3784723  61.7912213   7.1663791  25.1312852  62.2819322
  17.8747879  20.1589427  52.7390115  18.7093483  19.7270625  52.5567590
  17.7132222  19.9871440  53.6667010  17.5293771  16.6621540  54.1046455
  17.4742575  16.4965811  53.1634899  16.9039826  17.3697573  54.2608644
  14.8439678  18.9670452  73.4300018  15.7130838  19.1411104  73.0686652
  14.3646430  19.7864869  73.3075747   9.0125859  26.0867553  65.1089451
   9.9153105  26.1191163  65.4255946   8.7863229  25.1568004  65.1235787
  10.7679461  24.8398539  61.7699530   9.8175092  24.8400401  61.6563902
  11.0711947  24.0931274  61.2535564  26.5032154  30.6759078  62.8345292
  27.1410564  30.5565825  62.1308632  26.3852997  31.6239922  62.8933244
  23.3121860  30.6286506  62.7706817  22.9740372  30.5127571  61.8827352
  24.1811629  30.2277671  62.7507823  19.1708676  32.4821982  58.7603708
  18.6073541  32.3911919  57.9919996  19.0561071  31.6621887  59.2406200
  23.7941643  31.7821358  68.7293022  23.7830284  31.3874156  67.8573526
  23.9562283  31.0487430  69.3226794  16.7173108  33.9773174  61.5987928
  17.5094400  33.6363999  61.1834228  16.9569758  34.0868149  62.5190082
  24.7508235  36.1492950  54.0718173  24.0996215  36.7347030  53.6852187
  25.5452598  36.6799145  54.1313210  18.6763862  33.2382087  54.4705307
  19.4494738  32.6911074  54.3318183  19.0289261  34.1026336  54.6819768
  20.5148905  34.5658469  67.6772206  20.2238770  35.4704100  67.5618873
  21.1505889  34.6074997  68.3916276  21.4405111  31.9435318  64.2673566
  22.0368684  31.7191340  63.5530529  21.4980083  31.2020063  64.8699014
  21.0130140  29.3974753  52.1023757  21.2655660  28.8756275  51.3407220
  20.0754699  29.2340899  52.2050441  26.0573423  28.4010532  59.9098500
  26.8436512  27.9829955  59.5588917  26.3212127  29.3056624  60.0780149
  26.2283500  33.8383382  54.6087157  25.5929333  33.9118008  55.3208062
  25.8980906  34.4276981  53.9306236  31.4581850  28.3385765  60.8131479
  32.1907022  27.7684982  61.0469308  30.7021205  27.9507365  61.2537984
  20.7326428  31.3002859  54.3048132  20.6162687  30.6247763  54.9729216
  20.8428688  30.8135233  53.4880285  23.0757969  30.7613006  58.0094821
  22.7116177  30.2343627  58.7207743  23.9325085  30.3711475  57.8361307
  28.9807270  22.0507339  65.2726087  28.6490595  22.9202750  65.0487302
  28.3852883  21.7343623  65.9520118  22.7163456  25.7902906  53.0056170
  22.8837859  26.6583142  53.3726641  22.5260625  25.9530188  52.0817459
  25.4738790  34.2519885  64.6722000  25.1739513  35.1544924  64.5637807
  25.1289849  33.9852068  65.5243153  18.9251271  30.7033682  60.7058705
  18.0001768  30.5709896  60.9136396  19.1735684  31.4827901  61.2028647
  28.8735933  26.7702425  62.3519437  27.9652811  26.7017834  62.0578198
  28.8223529  27.2474370  63.1801263  22.6952677  28.2460563  53.9902837
  22.5752302  28.6917614  54.8288317  22.0005266  28.5945881  53.4316375
  16.2860082  30.3466955  61.5402494  16.4152463  30.6001434  62.4541905
  15.6057533  30.9394663  61.2207149  20.4559569  41.0164205  57.6392968
  20.3783599  41.9672030  57.7181448  19.8521213  40.6710078  58.2967894
  22.9476799  28.1892071  70.2954335  22.1710133  28.7485991  70.2857199
  23.5867362  28.6748854  70.8169205  30.7397580  24.9718863  64.1297311
  30.0971960  25.2651397  63.4837106  30.2352508  24.8571784  64.9350508
  28.3937743  28.7182037  54.8183171  29.3055600  28.9509423  54.6430868
  27.8847391  29.3019081  54.2558249  21.2023171  30.9977524  69.8572302
  21.9437856  31.5362568  69.5807125  20.4960157  31.6243813  70.0143853
  26.6778511  33.1406665  68.4544463  27.0861867  32.6989075  67.7099096
  25.9555773  32.5659292  68.7078656  23.0309581  28.0779271  65.8278020
  23.8770776  28.5018685  65.9712669  22.9708219  27.4212896  66.5216583
  27.0007326  33.7007855  62.2096752  26.3716188  33.8653569  61.5072820
  26.6132988  34.1149465  62.9807716  30.8796558  34.6362293  59.5641116
  30.1947596  35.0161194  59.0138149  30.9640407  35.2457620  60.2973064
  26.1809026  25.7383640  67.4859194  25.9369958  26.4925700  66.9493469
  26.4568957  26.1168987  68.3206441  28.1347489  32.2822252  66.1636459
  28.3464384  32.9254012  65.4870840  28.0877238  31.4484569  65.6958389
  25.7373718  24.8940073  63.0673031  24.8758197  25.1921326  63.3589769
  25.7636153  25.1110472  62.1354064  22.5535288  33.4382263  59.4746837
  23.0173633  33.7169966  58.6851460  22.2892086  32.5365708  59.2919928
  19.4459369  32.9853745  62.4126600  20.0160726  33.4141013  61.7744085
  20.0367481  32.7036329  63.1110786  21.4904174  29.5605416  56.2836402
  22.1928217  30.0126459  56.7510329  21.1584802  28.9189234  56.9116295
  19.9384535  28.1517172  70.6587612  19.3083196  28.8333453  70.8923009
  19.8320623  28.0400254  69.7140750  15.2329508  27.8188968  61.5853536
  14.4428562  28.0746497  61.1093646  15.7240755  28.6337306  61.6905576
  29.2493317  35.1594207  64.3358817  30.0710761  34.7574395  64.0541498
  29.2455720  35.0562442  65.2874932  17.1844253  28.1833547  58.5437013
  16.3875416  28.2952242  59.0620508  16.9569845  28.5220200  57.6777903
  23.0149921  34.7078251  66.4919527  23.0794353  35.1698658  67.3277699
  22.3060845  34.0775616  66.6201837  13.5167211  28.0719459  64.0168527
  13.7675249  28.9566469  64.2826103  14.0526759  27.8924060  63.2443618
  37.3399310  31.5032956  60.6843788  36.5863019  30.9340354  60.5287793
  37.4746851  31.4695620  61.6314423  22.7297938  36.3746358  56.3598508
  22.5943613  37.2197894  56.7883355  23.2707751  36.5765636  55.5964441
  19.2165278  22.4537938  73.0212863  18.8232224  21.9004137  73.6960507
  20.0331418  22.7648517  73.4119380  16.1827336  33.8921796  56.9326433
  16.6951856  34.6865046  57.0831997  16.8350049  33.1948087  56.8660034
  17.9922220  37.0087553  59.0149186  18.1688849  37.9305517  58.8270170
  18.7879054  36.6945972  59.4443566  22.1333239  23.8695817  70.6133119
  22.8742952  24.4702970  70.5337582  22.3651162  23.1273455  70.0551162
  17.2774577  29.0552184  68.8911349  17.1628092  28.1537442  69.1918448
  16.4219095  29.3015881  68.5396166  24.3566415  36.9969925  70.4898850
  23.9130269  36.2106303  70.1719754  25.0183628  37.1849075  69.8242740
  19.1153536  38.5265726  65.0159528  19.6660961  38.3982790  64.2436522
  18.2765012  38.8260615  64.6654421  26.4547653  37.2772725  68.5180251
  26.4366128  38.0981606  68.0260520  27.3767573  37.1526800  68.7430392
  22.9120707  34.7916854  69.3603759  23.4449044  34.0305142  69.1303067
  22.3834788  34.4990506  70.1027914  26.0790402  19.8976920  64.8897401
  25.7354671  20.7878562  64.8136512  26.4469364  19.7078578  64.0266986
  14.1476252  32.2210451  57.7086003  14.9851474  32.6307459  57.4919711
  14.3254520  31.2809893  57.6786197  26.0440685  29.8885531  53.3969836
  25.5287308  30.6590136  53.6358224  25.7717993  29.2150667  54.0202898
  23.6287796  24.7335232  58.4555074  22.7729392  24.3442082  58.2760713
  24.0414747  24.8127193  57.5954860  25.1586942  22.2681575  62.8546634
  24.6551738  22.2311710  62.0414440  25.4517549  23.1774318  62.9143291
  21.4029828  22.3520305  61.8612816  22.2682825  22.1563114  61.5018705
  21.4707337  22.1230657  62.7882173  31.0174959  32.6417886  55.3323010
  30.2404401  32.3029045  54.8878172  31.6966440  32.6470509  54.6577975
  25.8326988  27.7612623  55.2229617  25.5277123  28.0758772  56.0739760
  26.7857430  27.8394043  55.2656950  24.2773420  33.9202847  56.8722571
  23.7494781  33.1855606  56.5595809  23.7760922  34.6977523  56.6262540
  29.2566266  32.1151867  61.9889618  28.5989940  32.8051128  62.0769746
  30.0606665  32.5048299  62.3323604  19.0092147  24.5822513  59.2329183
  19.5835899  24.3597694  58.5002376  19.5963130  24.6511207  59.9857784
  28.0671724  30.4696240  60.0393559  28.5803606  31.1026232  60.5415269
  28.7172948  29.8697435  59.6736919  19.3361734  26.6126974  53.2525068
  18.4999047  26.9501660  53.5734343  19.1966504  26.4775954  52.3152205
  21.3114815  21.4563762  57.9604252  20.6579227  21.1412779  57.3360867
  21.2695289  20.8339502  58.6864075  22.4226020  31.7383057  49.8757544
  21.5153082  31.5072310  50.0748693  22.9197052  30.9420676  50.0631526
  25.3294099  40.4480564  52.7954230  24.6555797  40.7512261  53.4039188
  25.7159921  41.2509644  52.4459688  24.5452555  27.9445695  62.2851900
  23.6275117  28.1660642  62.1273588  24.9612699  28.0192006  61.4263607
  25.3287603  29.3437111  57.4154580  26.0759422  29.8558508  57.1061702
  25.5979193  29.0221164  58.2758974  23.6014253  31.8395652  54.3981534
  22.6925472  31.5554685  54.4954004  23.6309337  32.2594730  53.5384841
  28.8333521  35.4502241  58.1672702  28.3795848  34.6093151  58.2237892
  28.2027487  36.0863640  58.5047482  27.7766440  26.3794227  59.3973369
  27.0389197  25.8671613  59.7283612  28.0293214  25.9394609  58.5856646
  27.2766460  37.2878738  59.1022520  27.5689434  37.8483795  58.3834886
  27.7865080  37.5807299  59.8575679  27.8778068  19.1570479  59.9915139
  28.1836944  18.2967843  59.7041054  28.6030672  19.7488099  59.7914133
  14.1702424  29.5601166  58.3796737  13.9726823  28.9670527  57.6547803
  13.6149088  29.2553376  59.0972675  22.1499147  29.4524272  60.4991330
  22.2047757  28.4998109  60.4233806  21.3390349  29.6083711  60.9832628
  23.2990341  33.3804395  51.7369613  22.8609771  32.6640254  51.2775250
  24.0400782  33.6080510  51.1754704  20.0891507  28.0701332  58.2581709
  19.2759373  28.3695503  58.6646901  20.5850501  27.6757021  58.9756191
  22.2400085  38.0659089  60.1915973  22.1976264  38.2919935  59.2624505
  23.1562784  37.8322464  60.3401774  25.6865719  28.5343157  67.0896602
  26.0415107  28.7614630  67.9491068  26.3337850  28.8661533  66.4673858
  31.4163456  31.6561592  57.7945932  31.2781354  31.8463188  56.8667121
  31.0599675  32.4180975  58.2513983  19.5805582  25.6419688  63.8742944
  20.2204961  25.5008447  63.1765907  18.7483112  25.3554201  63.4981546
  31.4432835  33.7238119  62.8057203  31.8769342  33.6313409  63.6540257
  32.1564416  33.6995620  62.1677219  20.3565886  34.9422118  59.9877936
  21.1506484  34.4472438  59.7860511  19.6457578  34.4139981  59.6245642
  25.1760730  37.3240214  64.3390304  25.2297753  37.8931150  65.1068020
  24.3075512  37.4942099  63.9744341  16.6648649  29.0865200  56.0637689
  15.7346237  29.0249655  56.2807651  16.7606121  28.5641153  55.2674330
  16.5834198  25.6120013  58.6515930  16.8441016  26.5265346  58.5425091
  17.4051371  25.1444455  58.8012543  18.0559124  27.0257770  65.8214755
  18.7282177  26.8175132  65.1727404  17.2288910  26.8279856  65.3819987
  32.3048385  33.7661820  65.3390088  32.4984275  34.6707631  65.5849363
  32.2049003  33.3069239  66.1728673  23.9584696  23.6519711  67.8380416
  23.3112611  24.3509660  67.7444892  24.7285711  24.0855855  68.2056664
  27.3663494  33.9168563  70.9130969  27.2149000  33.6879115  69.9961053
  27.3568173  34.8739164  70.9262314  24.1348830  31.4900476  65.8977235
  25.0640890  31.6411635  65.7246203  23.7139860  31.5784496  65.0425882
  22.9337162  35.5151140  63.6675773  22.7948248  35.1469924  64.5401711
  22.1451758  36.0298779  63.4959731  23.5285314  40.6160236  55.0101310
  23.7037070  40.1448280  55.8246932  22.8418102  41.2426003  55.2382570
  24.4842377  34.8932743  61.0564611  24.1492210  34.8533513  61.9522261
  23.9846323  34.2277459  60.5835021  18.4586621  30.3000373  66.5817192
  18.3206419  29.5680612  67.1828731  19.3691544  30.2109273  66.3001380
  27.4201569  32.2388777  51.3301671  26.8030739  31.5135605  51.2334723
  26.9518057  32.9998137  50.9868745  21.0868922  30.0120332  66.0700872
  21.7968540  29.3713524  66.0287490  21.0438230  30.2633227  66.9927052
  29.0755700  36.9487685  68.9907451  29.0168246  36.2646906  68.3238034
  29.4775219  37.6906675  68.5388077  19.7997856  26.9985550  67.8896511
  19.2635213  26.5476288  68.5418108  19.2114564  27.1331459  67.1466976
  18.0946399  43.7649599  61.7841170  18.3342997  44.3968123  62.4620188
  17.2515596  43.4137639  62.0706529  19.2100115  26.4574201  50.4522975
  18.3329581  26.3363002  50.0885221  19.6857868  25.6660280  50.2001863
  29.0773108  34.9127269  67.2221431  28.1899886  34.5753191  67.3447829
  29.6471659  34.1810301  67.4590196  10.7302255  31.2451361  60.5464482
  11.4173295  30.9313091  59.9585497  10.5750383  32.1492726  60.2731733
  15.5336977  26.1341558  64.9749506  15.4495166  25.5267227  64.2399916
  14.7119683  26.6250576  64.9759002  22.6074261  39.5728722  64.1882674
  22.5344432  40.3783693  64.7001978  22.1651654  39.7720688  63.3630695
  22.3964041  38.8100492  57.6985495  21.6131562  39.3522172  57.7923720
  23.0956786  39.3274471  58.0979737  25.7060691  24.6195121  60.3419701
  26.2029390  23.8665084  60.0220771  24.9347672  24.6559438  59.7762910
  33.5590448  30.3235487  61.9837992  33.5480324  31.2060202  61.6131925
  32.6907828  29.9707038  61.7892529  25.0672944  39.4715556  66.3440832
  25.7800917  40.1063021  66.2716734  24.5762973  39.5679422  65.5280834
  26.7890471  33.3766808  57.9158124  25.8546750  33.4968271  57.7462828
  26.9667140  32.4739275  57.6518134  22.2895659  26.7612504  60.0691385
  21.9193447  26.2083545  60.7572291  22.7854752  26.1570638  59.5166385
  30.1763023  29.2184128  58.4508158  30.6423475  30.0512119  58.3768461
  30.6270523  28.7529109  59.1553417  20.1184858  37.2209999  67.1646403
  20.8194318  37.8546482  67.3175797  19.6479973  37.5624731  66.4042043
  28.2439254  35.5627949  55.4494310  28.5199098  35.4484544  56.3588184
  27.3743753  35.1645434  55.4106483  28.1479685  21.5864715  62.4899060
  27.2342765  21.8168942  62.6581267  28.5772787  21.6703159  63.3413092
  27.9186144  29.7754607  64.9898954  27.2657594  30.0230514  64.3351406
  28.2966524  28.9618745  64.6561431  24.8793318  39.8114300  59.0927124
  25.0615712  38.9935956  59.5554876  25.7026304  40.0281992  58.6552014
  25.2135483  38.7382485  56.3542172  25.7423250  38.2274940  55.7412335
  25.4763703  38.4225015  57.2187705  23.9673717  30.5174418  71.4764991
  23.2914354  30.4168547  72.1467366  24.7901351  30.3613631  71.9400988
  15.7152576  36.7546354  64.0977506  16.3006013  36.0090042  64.2305410
  15.5177415  37.0650311  64.9814170  18.5691231  39.7897602  59.1139948
  17.9001607  40.2743729  58.6303988  18.4304101  40.0366822  60.0283327
  10.3070231  29.3251954  62.8181949  10.3454330  28.7915545  63.6119067
   9.8010524  28.7987160  62.1992926  22.7096500  41.8241345  65.7122607
  23.2614808  41.9872967  66.4771692  23.0502693  42.4145783  65.0402632
  17.6860993  24.1716495  66.3144491  17.7502320  25.0331326  65.9021889
  17.6228113  23.5590497  65.5816850  17.1613266  26.2439627  69.9617526
  17.7885304  25.8616705  70.5755050  16.3041185  26.0253829  70.3273218
  27.5607374  36.6502603  71.5671261  28.1047278  37.2632561  71.0726216
  26.9794219  37.2082181  72.0838274  13.9378808  28.0516057  55.8935880
  14.2332249  27.1426735  55.8402934  13.0366844  28.0303796  55.5716883
  25.8464887  39.7723321  62.6986289  25.7216027  38.9713061  62.1897234
  26.5043978  40.2669514  62.2100259  17.4673055  26.1272053  61.8763429
  16.7459641  26.7408021  61.7370902  18.2566311  26.6629818  61.7980075
  27.9099796  37.5732341  64.3265839  26.9630131  37.4537692  64.2544166
  28.2582569  36.6854839  64.4092100  20.2699369  23.4626480  68.1504081
  20.7933771  23.7088776  68.9130390  20.0511702  24.2946514  67.7307218
  15.6666650  25.7330154  56.0175206  15.3379356  24.8527533  55.8350312
  16.0206021  25.6777823  56.9051595  24.9146229  37.3685057  60.5270191
  24.7671191  36.4401764  60.7077761  25.7399722  37.3905148  60.0427266
  18.7808473  26.0203124  56.3850683  19.1204546  26.5489045  55.6629292
  19.2280594  26.3583530  57.1609250  28.5180351  38.1913616  61.6135064
  29.4426898  37.9856477  61.4759515  28.3495654  37.9430017  62.5224405
  21.4751914  24.4040175  65.8353751  21.1348734  23.6047988  66.2374431
  20.7690920  24.7041886  65.2630585  22.1268386  21.4889487  64.2881074
  22.9494455  21.0149965  64.1659965  22.3706449  22.2679971  64.7879761
  20.7676620  24.5177746  54.5843976  21.4884983  24.8958998  54.0807693
  20.1441924  25.2366622  54.6878954  24.9107743  25.2222895  55.5202308
  25.1271358  26.1047532  55.2191137  24.4301810  24.8309108  54.7907950
  19.6506965  28.1808608  62.0973053  19.5051545  28.4948911  62.9897335
  19.1732168  28.7993508  61.5443952  21.5103347  25.1711156  62.1453943
  21.4964916  24.2752249  61.8086241  22.2275776  25.1781820  62.7792229
  23.3629478  25.6048496  64.1907070  23.1047256  26.5265567  64.1891400
  22.8314519  25.2078931  64.8807534  28.3075667  38.7099283  56.9697155
  28.4812544  38.1445706  56.2171008  28.8004558  39.5100178  56.7876645
  14.1252627  30.7213952  65.0360714  13.5806095  31.4973760  65.1680989
  15.0031977  31.0684757  64.8779836  20.9140243  24.0525536  57.4141513
  21.0356155  23.1242182  57.6132400  20.6242286  24.0664222  56.5019828
  23.7831434  21.7380447  60.5508233  23.8053131  21.8019780  59.5960212
  24.1999493  20.8984955  60.7448739  34.1615058  31.4735706  58.5887455
  34.6046204  30.7243031  58.1906578  33.2841568  31.4645842  58.2061187
  29.2950839  38.0266048  54.0694054  29.9901744  38.6472740  54.2881368
  29.6373990  37.1761399  54.3446432  14.9118649  29.8483849  67.9290871
  14.1700385  29.9966484  68.5155501  14.5911393  30.1092114  67.0657620
  31.1942263  35.4765753  55.5981384  31.7193587  35.8153026  54.8730704
  31.1064615  34.5412768  55.4144519  22.8562311  39.3899827  67.7271261
  23.1649438  39.1448974  68.5993961  23.6537793  39.5946465  67.2390131
  22.8782923  41.5437736  59.9576638  22.4387914  41.0514115  60.6509494
  23.6291040  41.0010704  59.7168713  15.3575262  37.7349277  59.9601266
  16.1833282  37.4353049  59.5799909  15.0069314  36.9656900  60.4091054
  20.3256795  37.0875745  62.0298939  19.7036805  36.4246450  61.7301167
  20.9961662  37.1136877  61.3472587  13.5583867  35.6535604  60.9190199
  12.7215776  35.2257778  60.7374201  13.5307513  35.8468047  61.8560990
  20.3981323  25.5657533  71.6231445  20.4469478  26.4419656  71.2409215
  20.9403837  25.0234927  71.0503089  30.8836169  36.1098657  70.9032582
  30.0931712  36.0922796  70.3637082  30.6469523  36.6486950  71.6581619
  31.0034044  32.9591123  68.2165311  31.0532049  32.7941131  69.1580834
  30.8947967  32.0918382  67.8263192  19.8870302  35.6379669  55.5057400
  20.0358423  36.3215133  54.8524073  20.6936746  35.6184759  56.0206856
  28.2937806  28.9422051  69.5324618  29.1947669  28.8028516  69.2408615
  28.3685781  29.1076506  70.4722795  22.6280611  26.3188906  68.3777804
  21.7583921  26.6122472  68.1060392  22.8640092  26.9029351  69.0985068
  32.5052240  35.3788065  68.4607332  32.2137049  35.7418045  69.2970793
  31.8924372  34.6655073  68.2820665  33.7047923  32.9440944  60.9809903
  34.5394814  33.3830748  61.1447463  33.8407052  32.4679598  60.1618148
  30.7539429  30.5020679  66.9287390  31.2293550  30.6948326  66.1206242
  29.8304994  30.5579865  66.6830774  17.6422935  31.6644846  56.5118469
  17.3968977  30.7607176  56.7098679  17.8118850  31.6661997  55.5697947
  25.3319645  22.5368523  65.8943224  25.8501589  23.2729550  65.5689713
  24.9774778  22.8432516  66.7289983  16.9118583  27.3973204  54.0104630
  16.2187828  27.4717559  53.3544666  16.6670335  26.6333548  54.5326147
  25.5832239  18.9568805  61.4144121  25.8633993  18.2891994  62.0404547
  26.3682846  19.1497901  60.9018785  23.3865708  38.1327799  52.9769147
  22.8139675  38.7517986  52.5239619  23.9598502  38.6827161  53.5109069
  29.4541098  27.3786439  65.1615696  30.4058521  27.4784537  65.1827920
  29.2844548  26.5864708  65.6713780  27.4755477  24.4642023  65.3475097
  26.8805409  24.7447035  64.6521586  27.1905174  24.9535923  66.1191838
  26.6062968  38.4164949  54.1077730  27.5393641  38.3510511  54.3110605
  26.5186180  39.2521216  53.6492262  29.2350984  37.7330820  51.0681677
  29.1564616  37.3990683  51.9617435  30.0560651  38.2252588  51.0673149
  31.9329175  30.5992559  64.2757996  31.9005496  29.6608560  64.4617680
  32.5429799  30.6776596  63.5423821  23.7712506  29.4688612  50.3185200
  24.7171611  29.3394820  50.3873618  23.3926751  28.7303274  50.7954628
  32.0823664  27.3903602  64.3216279  31.5662713  26.6062059  64.1346208
  32.9663612  27.0622319  64.4862798  29.7434391  21.1344618  60.2812092
  29.5459212  20.8259706  61.1655424  30.3534096  21.8606257  60.4110021
  37.7505725  31.6608566  63.4164032  38.4809114  31.3993854  63.9771736
  37.1412671  30.9237288  63.4566100  35.8321022  29.8016428  64.0138484
  35.1054186  29.6672393  63.4054975  35.4168309  30.1093257  64.8195202
  23.6551199  33.5206358  71.7785857  24.5754208  33.6984957  71.9725903
  23.6200782  32.5762403  71.6265556  21.9555423  27.3938588  50.2540085
  21.0486879  27.0971701  50.3302799  22.2331405  27.0968406  49.3874371
  12.8733364  28.7144952  60.7039131  12.5536148  27.8610260  60.4113505
  12.3266792  28.9293530  61.4597099  16.6513271  31.4307393  64.4208638
  16.8699281  32.3624501  64.4396672  17.0639045  31.0715367  65.2063442
  23.5717489  21.9375478  56.4084326  22.7618218  21.5922563  56.7839572
  24.2601906  21.6283022  56.9971938  25.5008038  21.0153525  58.0308623
  26.0539076  21.4348978  58.6898646  25.7378124  20.0889273  58.0731579
  21.5241137  27.0040599  73.8111387  21.4237864  27.9534956  73.7423478
  21.3062679  26.6758837  72.9387457  20.7254208  24.2525524  50.3952064
  21.5873372  24.5780422  50.6547882  20.9104552  23.4657020  49.8825130
  12.7421624  32.3347863  62.6732253  12.0485095  31.9201816  62.1602207
  13.4894615  32.3768400  62.0765672  28.8786845  23.1254050  57.5387287
  28.2985514  23.7838854  57.1565340  28.6122777  22.3031395  57.1274705
  27.3290411  22.5259108  59.7408607  27.8290189  22.6375642  58.9322926
  27.9726019  22.2220161  60.3809416  21.3872407  30.4337737  72.6276448
  20.9039489  31.2338098  72.8340337  21.4733346  30.4445682  71.6743892
  14.6558366  32.2666117  60.5498268  14.6329055  32.3653804  59.5980151
  14.9659003  33.1131268  60.8715434  17.3145744  34.3242272  64.6644882
  18.2688998  34.2926214  64.5974814  17.1158268  33.8632896  65.4795108
  17.9045126  32.8943388  67.2315680  18.7238015  33.3887467  67.2550517
  18.1781934  31.9775356  67.2033247  27.6611723  25.2854140  56.5943635
  26.7737578  25.5703791  56.3763830  28.0765712  25.1247904  55.7470912
  31.0126259  25.3100661  60.3097975  31.7886649  25.7997114  60.5822591
  30.2874393  25.7358716  60.7669844  33.4498817  26.0228281  61.3671915
  34.0443308  25.7824017  60.6565224  33.5225401  25.3035411  61.9945452
  15.6695973  39.8661892  61.6815080  15.5350441  39.1062292  61.1153078
  15.2528035  40.5902791  61.2143869  26.8054936  35.0498815  50.6891655
  27.5090786  35.2548818  51.3049311  26.0817585  35.6175577  50.9540739
  27.6352746  30.8008676  56.8093926  27.5787948  31.2577228  55.9701558
  28.1881089  30.0399361  56.6316768  31.4457552  26.5898408  57.6344045
  31.1894487  26.1895044  58.4652253  30.8210420  27.3042202  57.5094184
  35.7569890  29.3294481  60.1415336  35.1969448  29.3987671  60.9146899
  35.1513393  29.1535466  59.4214833  18.8265099  40.7631209  61.8933523
  18.7097483  41.7076641  61.7912213  18.0057545  40.4604770  62.2819322
  28.7141633  35.4881344  52.7390115  29.5487237  35.0562543  52.5567590
  28.5525976  35.3163358  53.6667010  28.3687526  31.9913458  54.1046455
  28.3136329  31.8257729  53.1634899  27.7433581  32.6989491  54.2608644
  13.1580041  27.2281522  67.9307877  13.8038904  26.7180476  68.4195102
  12.9497192  27.9650204  68.5051302  25.6833433  34.2962369  73.4300018
  26.5524592  34.4703022  73.0686652  25.2040184  35.1156786  73.3075747
  21.6783651  21.4921567  53.6831773  21.6662321  22.4363407  53.8400044
  22.5707073  21.3091712  53.3891234  19.8519613  41.4159470  65.1089451
  20.7546860  41.4483081  65.4255946  19.6256983  40.4859921  65.1235787
  21.6073215  40.1690457  61.7699530  20.6568846  40.1692319  61.6563902
  21.9105701  39.4223192  61.2535564  25.4935771  18.0864343  57.9377710
  24.7268166  17.5322830  58.0834392  25.9046476  18.1586212  58.7991862
  17.4977532  24.3749139  72.0282891  18.3608993  24.0185944  72.2386216
  16.9242942  24.0363034  72.7158295  37.3425909  46.0050995  62.8345292
  37.9804319  45.8857743  62.1308632  37.2246751  46.9531839  62.8933244
  34.1515615  45.9578424  62.7706817  33.8134126  45.8419488  61.8827352
  35.0205383  45.5569589  62.7507823  30.0102431  47.8113900  58.7603708
  29.4467296  47.7203837  57.9919996  29.8954826  46.9913804  59.2406200
  34.6335398  47.1113275  68.7293022  34.6224039  46.7166074  67.8573526
  34.7956037  46.3779348  69.3226794  27.5566862  49.3065092  61.5987928
  28.3488154  48.9655916  61.1834228  27.7963513  49.4160067  62.5190082
  35.5901989  51.4784868  54.0718173  34.9389969  52.0638948  53.6852187
  36.3846352  52.0091063  54.1313210  29.5157616  48.5674005  54.4705307
  30.2888492  48.0202992  54.3318183  29.8683015  49.4318254  54.6819768
  31.3542659  49.8950387  67.6772206  31.0632525  50.7996018  67.5618873
  31.9899643  49.9366915  68.3916276  32.2798866  47.2727236  64.2673566
  32.8762438  47.0483258  63.5530529  32.3373837  46.5311981  64.8699014
  31.8523894  44.7266671  52.1023757  32.1049415  44.2048192  51.3407220
  30.9148453  44.5632816  52.2050441  36.8967177  43.7302449  59.9098500
  37.6830266  43.3121872  59.5588917  37.1605881  44.6348541  60.0780149
  37.0677254  49.1675300  54.6087157  36.4323087  49.2409926  55.3208062
  36.7374661  49.7568898  53.9306236  42.2975604  43.6677682  60.8131479
  43.0300776  43.0976899  61.0469308  41.5414960  43.2799283  61.2537984
  31.5720183  46.6294777  54.3048132  31.4556441  45.9539680  54.9729216
  31.6822443  46.1427151  53.4880285  33.9151724  46.0904924  58.0094821
  33.5509931  45.5635545  58.7207743  34.7718840  45.7003393  57.8361307
  39.8201025  37.3799257  65.2726087  39.4884349  38.2494668  65.0487302
  39.2246638  37.0635541  65.9520118  33.5557211  41.1194824  53.0056170
  33.7231613  41.9875060  53.3726641  33.3654380  41.2822105  52.0817459
  36.3132544  49.5811803  64.6722000  36.0133267  50.4836841  64.5637807
  35.9683604  49.3143986  65.5243153  29.7645026  46.0325599  60.7058705
  28.8395522  45.9001814  60.9136396  30.0129439  46.8119819  61.2028647
  39.7129688  42.0994343  62.3519437  38.8046565  42.0309751  62.0578198
  39.6617284  42.5766288  63.1801263  33.5346432  43.5752481  53.9902837
  33.4146057  44.0209532  54.8288317  32.8399020  43.9237799  53.4316375
  27.1253837  45.6758873  61.5402494  27.2546218  45.9293352  62.4541905
  26.4451288  46.2686581  61.2207149  31.2953324  56.3456123  57.6392968
  31.2177354  57.2963948  57.7181448  30.6914967  56.0001995  58.2967894
  33.7870554  43.5183988  70.2954335  33.0103888  44.0777908  70.2857199
  34.4261117  44.0040771  70.8169205  41.5791334  40.3010781  64.1297311
  40.9365715  40.5943314  63.4837106  41.0746263  40.1863701  64.9350508
  39.2331498  44.0473954  54.8183171  40.1449354  44.2801341  54.6430868
  38.7241145  44.6310999  54.2558249  32.0416926  46.3269442  69.8572302
  32.7831610  46.8654486  69.5807125  31.3353911  46.9535730  70.0143853
  37.5172266  48.4698582  68.4544463  37.9255622  48.0280993  67.7099096
  36.7949527  47.8951210  68.7078656  33.8703336  43.4071189  65.8278020
  34.7164531  43.8310603  65.9712669  33.8101973  42.7504813  66.5216583
  37.8401080  49.0299773  62.2096752  37.2109943  49.1945487  61.5072820
  37.4526742  49.4441382  62.9807716  41.7190312  49.9654211  59.5641116
  41.0341350  50.3453112  59.0138149  41.8034161  50.5749537  60.2973064
  38.9741244  47.6114170  66.1636459  39.1858139  48.2545930  65.4870840
  38.9270992  46.7776486  65.6958389  36.5767473  40.2231990  63.0673031
  35.7151952  40.5213244  63.3589769  36.6029907  40.4402389  62.1354064
  33.3929042  48.7674181  59.4746837  33.8567388  49.0461884  58.6851460
  33.1285840  47.8657625  59.2919928  30.2853123  48.3145662  62.4126600
  30.8554480  48.7432931  61.7744085  30.8761235  48.0328247  63.1110786
  32.3297928  44.8897333  56.2836402  33.0321972  45.3418377  56.7510329
  31.9978557  44.2481152  56.9116295  30.7778290  43.4809090  70.6587612
  30.1476950  44.1625371  70.8923009  30.6714378  43.3692171  69.7140750
  26.0723262  43.1480886  61.5853536  25.2822316  43.4038414  61.1093646
  26.5634510  43.9629224  61.6905576  40.0887072  50.4886125  64.3358817
  40.9104515  50.0866312  64.0541498  40.0849475  50.3854359  65.2874932
  28.0238008  43.5125465  58.5437013  27.2269171  43.6244159  59.0620508
  27.7963600  43.8512117  57.6777903  33.8543675  50.0370168  66.4919527
  33.9188108  50.4990576  67.3277699  33.1454599  49.4067533  66.6201837
  24.3560965  43.4011376  64.0168527  24.6069004  44.2858386  64.2826103
  24.8920514  43.2215978  63.2443618  33.5691693  51.7038276  56.3598508
  33.4337368  52.5489812  56.7883355  34.1101505  51.9057554  55.5964441
  30.0559032  37.7829856  73.0212863  29.6625978  37.2296054  73.6960507
  30.8725173  38.0940434  73.4119380  27.0221090  49.2213714  56.9326433
  27.5345611  50.0156964  57.0831997  27.6743803  48.5240004  56.8660034
  28.8315975  52.3379470  59.0149186  29.0082603  53.2597435  58.8270170
  29.6272808  52.0237889  59.4443566  32.9726993  39.1987735  70.6133119
  33.7136707  39.7994888  70.5337582  33.2044916  38.4565373  70.0551162
  28.1168331  44.3844102  68.8911349  28.0021847  43.4829359  69.1918448
  27.2612849  44.6307799  68.5396166  35.1960169  52.3261842  70.4898850
  34.7524023  51.5398221  70.1719754  35.8577383  52.5140993  69.8242740
  29.9547290  53.8557644  65.0159528  30.5054715  53.7274707  64.2436522
  29.1158766  54.1552533  64.6654421  37.2941407  52.6064642  68.5180251
  37.2759883  53.4273523  68.0260520  38.2161327  52.4818718  68.7430392
  33.7514461  50.1208772  69.3603759  34.2842798  49.3597060  69.1303067
  33.2228542  49.8282424  70.1027914  36.9184156  35.2268838  64.8897401
  36.5748426  36.1170479  64.8136512  37.2863119  35.0370495  64.0266986
  24.9870007  47.5502368  57.7086003  25.8245229  47.9599377  57.4919711
  25.1648275  46.6101810  57.6786197  36.8834439  45.2177449  53.3969836
  36.3681063  45.9882054  53.6358224  36.6111748  44.5442585  54.0202898
  34.4681550  40.0627150  58.4555074  33.6123146  39.6734000  58.2760713
  34.8808502  40.1419110  57.5954860  35.9980697  37.5973493  62.8546634
  35.4945492  37.5603628  62.0414440  36.2911304  38.5066236  62.9143291
  32.2423583  37.6812223  61.8612816  33.1076579  37.4855031  61.5018705
  32.3101092  37.4522574  62.7882173  41.8568713  47.9709804  55.3323010
  41.0798156  47.6320963  54.8878172  42.5360194  47.9762427  54.6577975
  36.6720742  43.0904541  55.2229617  36.3670878  43.4050690  56.0739760
  37.6251184  43.1685961  55.2656950  35.1167174  49.2494764  56.8722571
  34.5888536  48.5147524  56.5595809  34.6154677  50.0269441  56.6262540
  40.0960020  47.4443785  61.9889618  39.4383695  48.1343046  62.0769746
  40.9000419  47.8340217  62.3323604  29.8485902  39.9114431  59.2329183
  30.4229654  39.6889612  58.5002376  30.4356884  39.9803125  59.9857784
  38.9065479  45.7988157  60.0393559  39.4197361  46.4318149  60.5415269
  39.5566703  45.1989353  59.6736919  30.1755489  41.9418892  53.2525068
  29.3392801  42.2793578  53.5734343  30.0360258  41.8067871  52.3152205
  32.1508569  36.7855679  57.9604252  31.4972982  36.4704697  57.3360867
  32.1089044  36.1631420  58.6864075  33.2619774  47.0674975  49.8757544
  32.3546836  46.8364228  50.0748693  33.7590806  46.2712594  50.0631526
  36.1687853  55.7772482  52.7954230  35.4949552  56.0804178  53.4039188
  36.5553675  56.5801562  52.4459688  35.3846310  43.2737613  62.2851900
  34.4668871  43.4952560  62.1273588  35.8006453  43.3483923  61.4263607
  36.1681358  44.6729029  57.4154580  36.9153176  45.1850426  57.1061702
  36.4372947  44.3513081  58.2758974  34.4408008  47.1687569  54.3981534
  33.5319227  46.8846602  54.4954004  34.4703092  47.5886648  53.5384841
  39.6727275  50.7794159  58.1672702  39.2189602  49.9385069  58.2237892
  39.0421242  51.4155557  58.5047482  38.6160195  41.7086145  59.3973369
  37.8782951  41.1963531  59.7283612  38.8686968  41.2686527  58.5856646
  38.1160214  52.6170656  59.1022520  38.4083189  53.1775713  58.3834886
  38.6258835  52.9099217  59.8575679  38.7171822  34.4862397  59.9915139
  39.0230699  33.6259760  59.7041054  39.4424427  35.0780017  59.7914133
  25.0096178  44.8893084  58.3796737  24.8120578  44.2962444  57.6547803
  24.4542842  44.5845294  59.0972675  32.9892902  44.7816190  60.4991330
  33.0441512  43.8290026  60.4233806  32.1784104  44.9375629  60.9832628
  34.1384096  48.7096313  51.7369613  33.7003525  47.9932172  51.2775250
  34.8794536  48.9372428  51.1754704  30.9285262  43.3993250  58.2581709
  30.1153127  43.6987420  58.6646901  31.4244256  43.0048939  58.9756191
  33.0793840  53.3951007  60.1915973  33.0370018  53.6211853  59.2624505
  33.9956538  53.1614381  60.3401774  36.5259473  43.8635074  67.0896602
  36.8808861  44.0906547  67.9491068  37.1731605  44.1953451  66.4673858
  42.2557210  46.9853510  57.7945932  42.1175109  47.1755106  56.8667121
  41.8993429  47.7472893  58.2513983  30.4199336  40.9711605  63.8742944
  31.0598716  40.8300364  63.1765907  29.5876867  40.6846119  63.4981546
  31.1959640  50.2714036  59.9877936  31.9900239  49.7764356  59.7860511
  30.4851333  49.7431899  59.6245642  36.0154485  52.6532131  64.3390304
  36.0691507  53.2223068  65.1068020  35.1469266  52.8234016  63.9744341
  27.5042404  44.4157117  56.0637689  26.5739992  44.3541573  56.2807651
  27.5999876  43.8933070  55.2674330  27.4227953  40.9411930  58.6515930
  27.6834770  41.8557264  58.5425091  28.2445125  40.4736373  58.8012543
  28.8952878  42.3549687  65.8214755  29.5675932  42.1467050  65.1727404
  28.0682665  42.1571773  65.3819987  34.7978450  38.9811628  67.8380416
  34.1506365  39.6801578  67.7444892  35.5679466  39.4147772  68.2056664
  34.9742585  46.8192393  65.8977235  35.9034645  46.9703553  65.7246203
  34.5533615  46.9076414  65.0425882  33.7730916  50.8443058  63.6675773
  33.6342002  50.4761842  64.5401711  32.9845513  51.3590697  63.4959731
  34.3679068  55.9452154  55.0101310  34.5430824  55.4740197  55.8246932
  33.6811856  56.5717920  55.2382570  35.3236131  50.2224660  61.0564611
  34.9885964  50.1825430  61.9522261  34.8240077  49.5569376  60.5835021
  29.2980375  45.6292290  66.5817192  29.1600173  44.8972529  67.1828731
  30.2085299  45.5401191  66.3001380  38.2595323  47.5680695  51.3301671
  37.6424494  46.8427523  51.2334723  37.7911812  48.3290055  50.9868745
  31.9262676  45.3412250  66.0700872  32.6362295  44.7005442  66.0287490
  31.8831984  45.5925145  66.9927052  30.6391610  42.3277468  67.8896511
  30.1028967  41.8768206  68.5418108  30.0508319  42.4623376  67.1466976
  28.9340154  59.0941517  61.7841170  29.1736752  59.7260041  62.4620188
  28.0909350  58.7429557  62.0706529  30.0493869  41.7866119  50.4522975
  29.1723335  41.6654920  50.0885221  30.5251622  40.9952197  50.2001863
  39.9166862  50.2419187  67.2221431  39.0293641  49.9045109  67.3447829
  40.4865413  49.5102218  67.4590196  21.5696009  46.5743279  60.5464482
  22.2567049  46.2605009  59.9585497  21.4144138  47.4784643  60.2731733
  26.3730731  41.4633475  64.9749506  26.2888920  40.8559145  64.2399916
  25.5513438  41.9542494  64.9759002  33.4468015  54.9020639  64.1882674
  33.3738187  55.7075611  64.7001978  33.0045409  55.1012605  63.3630695
  33.2357795  54.1392409  57.6985495  32.4525317  54.6814090  57.7923720
  33.9350540  54.6566389  58.0979737  36.5454445  39.9487039  60.3419701
  37.0423145  39.1957001  60.0220771  35.7741427  39.9851356  59.7762910
  35.9066699  54.8007473  66.3440832  36.6194671  55.4354938  66.2716734
  35.4156728  54.8971339  65.5280834  37.6284226  48.7058726  57.9158124
  36.6940505  48.8260189  57.7462828  37.8060894  47.8031193  57.6518134
  33.1289414  42.0904422  60.0691385  32.7587201  41.5375462  60.7572291
  33.6248506  41.4862555  59.5166385  41.0156777  44.5476045  58.4508158
  41.4817229  45.3804037  58.3768461  41.4664278  44.0821027  59.1553417
  30.9578613  52.5501917  67.1646403  31.6588072  53.1838400  67.3175797
  30.4873728  52.8916648  66.4042043  39.0833008  50.8919867  55.4494310
  39.3592852  50.7776461  56.3588184  38.2137507  50.4937352  55.4106483
  38.9873440  36.9156632  62.4899060  38.0736520  37.1460859  62.6581267
  39.4166541  36.9995076  63.3413092  38.7579898  45.1046524  64.9898954
  38.1051349  45.3522432  64.3351406  39.1360278  44.2910663  64.6561431
  35.7187072  55.1406217  59.0927124  35.9009467  54.3227873  59.5554876
  36.5420058  55.3573910  58.6552014  36.0529238  54.0674403  56.3542172
  36.5817004  53.5566857  55.7412335  36.3157457  53.7516933  57.2187705
  34.8067471  45.8466335  71.4764991  34.1308109  45.7460465  72.1467366
  35.6295105  45.6905549  71.9400988  26.5546331  52.0838272  64.0977506
  27.1399767  51.3381960  64.2305410  26.3571169  52.3942229  64.9814170
  29.4084986  55.1189519  59.1139948  28.7395361  55.6035647  58.6303988
  29.2697855  55.3658740  60.0283327  21.1463985  44.6543872  62.8181949
  21.1848085  44.1207463  63.6119067  20.6404278  44.1279078  62.1992926
  33.5490254  57.1533263  65.7122607  34.1008562  57.3164884  66.4771692
  33.8896448  57.7437701  65.0402632  28.5254748  39.5008413  66.3144491
  28.5896074  40.3623244  65.9021889  28.4621868  38.8882414  65.5816850
  28.0007020  41.5731545  69.9617526  28.6279059  41.1908622  70.5755050
  27.1434939  41.3545747  70.3273218  24.7772563  43.3807974  55.8935880
  25.0726004  42.4718653  55.8402934  23.8760599  43.3595714  55.5716883
  36.6858642  55.1015238  62.6986289  36.5609781  54.3004978  62.1897234
  37.3437733  55.5961432  62.2100259  28.3066810  41.4563971  61.8763429
  27.5853396  42.0699939  61.7370902  29.0960066  41.9921736  61.7980075
  31.1093123  38.7918397  68.1504081  31.6327525  39.0380694  68.9130390
  30.8905457  39.6238432  67.7307218  26.5060404  41.0622072  56.0175206
  26.1773111  40.1819451  55.8350312  26.8599775  41.0069741  56.9051595
  35.7539983  52.6976975  60.5270191  35.6064946  51.7693682  60.7077761
  36.5793477  52.7197065  60.0427266  29.6202228  41.3495042  56.3850683
  29.9598300  41.8780963  55.6629292  30.0674348  41.6875448  57.1609250
  39.3574105  53.5205533  61.6135064  40.2820653  53.3148395  61.4759515
  39.1889409  53.2721935  62.5224405  32.3145668  39.7332092  65.8353751
  31.9742489  38.9339906  66.2374431  31.6084675  40.0333803  65.2630585
  32.9662140  36.8181405  64.2881074  33.7888210  36.3441883  64.1659965
  33.2100204  37.5971889  64.7879761  31.6070375  39.8469663  54.5843976
  32.3278737  40.2250916  54.0807693  30.9835679  40.5658540  54.6878954
  35.7501498  40.5514812  55.5202308  35.9665112  41.4339450  55.2191137
  35.2695565  40.1601026  54.7907950  30.4900719  43.5100526  62.0973053
  30.3445300  43.8240829  62.9897335  30.0125923  44.1285426  61.5443952
  32.3497102  40.5003074  62.1453943  32.3358671  39.6044167  61.8086241
  33.0669530  40.5073737  62.7792229  34.2023233  40.9340414  64.1907070
  33.9441010  41.8557484  64.1891400  33.6708273  40.5370848  64.8807534
  39.1469421  54.0391201  56.9697155  39.3206299  53.4737623  56.2171008
  39.6398313  54.8392096  56.7876645  24.9646381  46.0505870  65.0360714
  24.4199849  46.8265678  65.1680989  25.8425731  46.3976674  64.8779836
  31.7533998  39.3817454  57.4141513  31.8749909  38.4534100  57.6132400
  31.4636040  39.3956140  56.5019828  34.6225188  37.0672364  60.5508233
  34.6446885  37.1311697  59.5960212  35.0393247  36.2276873  60.7448739
  45.0008813  46.8027624  58.5887455  45.4439959  46.0534949  58.1906578
  44.1235323  46.7937760  58.2061187  40.1344594  53.3557965  54.0694054
  40.8295499  53.9764658  54.2881368  40.4767744  52.5053316  54.3446432
  25.7512403  45.1775766  67.9290871  25.0094139  45.3258402  68.5155501
  25.4305147  45.4384032  67.0657620  42.0336017  50.8057671  55.5981384
  42.5587341  51.1444944  54.8730704  41.9458370  49.8704686  55.4144519
  33.6956066  54.7191744  67.7271261  34.0043192  54.4740891  68.5993961
  34.4931548  54.9238383  67.2390131  33.7176678  56.8729654  59.9576638
  33.2781668  56.3806033  60.6509494  34.4684795  56.3302622  59.7168713
  26.1969017  53.0641195  59.9601266  27.0227037  52.7644967  59.5799909
  25.8463069  52.2948817  60.4091054  31.1650550  52.4167663  62.0298939
  30.5430559  51.7538368  61.7301167  31.8355417  52.4428795  61.3472587
  24.3977622  50.9827521  60.9190199  23.5609530  50.5549696  60.7374201
  24.3701267  51.1759965  61.8560990  31.2375077  40.8949451  71.6231445
  31.2863233  41.7711574  71.2409215  31.7797592  40.3526844  71.0503089
  30.7264057  50.9671586  55.5057400  30.8752177  51.6507051  54.8524073
  31.5330500  50.9476677  56.0206856  33.4674366  41.6480824  68.3777804
  32.5977675  41.9414390  68.1060392  33.7033846  42.2321269  69.0985068
  28.4816690  46.9936764  56.5118469  28.2362732  46.0899094  56.7098679
  28.6512604  46.9953915  55.5697947  36.1713400  37.8660440  65.8943224
  36.6895344  38.6021467  65.5689713  35.8168532  38.1724434  66.7289983
  27.7512337  42.7265122  54.0104630  27.0581582  42.8009477  53.3544666
  27.5064089  41.9625465  54.5326147  36.4225994  34.2860723  61.4144121
  36.7027748  33.6183912  62.0404547  37.2076601  34.4789819  60.9018785
  34.2259462  53.4619717  52.9769147  33.6533429  54.0809904  52.5239619
  34.7992256  54.0119079  53.5109069  40.2934852  42.7078357  65.1615696
  41.2452275  42.8076455  65.1827920  40.1238303  41.9156626  65.6713780
  38.3149232  39.7933940  65.3475097  37.7199164  40.0738953  64.6521586
  38.0298928  40.2827841  66.1191838  37.4456722  53.7456867  54.1077730
  38.3787395  53.6802429  54.3110605  37.3579935  54.5813134  53.6492262
  40.0744739  53.0622737  51.0681677  39.9958370  52.7282601  51.9617435
  40.8954406  53.5544505  51.0673149  34.6106261  44.7980530  50.3185200
  35.5565366  44.6686738  50.3873618  34.2320506  44.0595192  50.7954628
  40.5828145  36.4636536  60.2812092  40.3852967  36.1551624  61.1655424
  41.1927851  37.1898175  60.4110021  34.4944953  48.8498276  71.7785857
  35.4147963  49.0276875  71.9725903  34.4594536  47.9054321  71.6265556
  32.7949178  42.7230506  50.2540085  31.8880633  42.4263619  50.3302799
  33.0725159  42.4260324  49.3874371  23.7127118  44.0436869  60.7039131
  23.3929903  43.1902178  60.4113505  23.1660547  44.2585448  61.4597099
  27.4907026  46.7599310  64.4208638  27.7093036  47.6916418  64.4396672
  27.9032800  46.4007285  65.2063442  34.4111244  37.2667396  56.4084326
  33.6011972  36.9214481  56.7839572  35.0995661  36.9574940  56.9971938
  36.3401792  36.3445443  58.0308623  36.8932831  36.7640896  58.6898646
  36.5771878  35.4181191  58.0731579  32.3634891  42.3332516  73.8111387
  32.2631618  43.2826873  73.7423478  32.1456433  42.0050755  72.9387457
  31.5647963  39.5817441  50.3952064  32.4267127  39.9072340  50.6547882
  31.7498307  38.7948937  49.8825130  23.5815378  47.6639781  62.6732253
  22.8878850  47.2493734  62.1602207  24.3288369  47.7060317  62.0765672
  39.7180599  38.4545968  57.5387287  39.1379268  39.1130772  57.1565340
  39.4516532  37.6323312  57.1274705  38.1684165  37.8551025  59.7408607
  38.6683944  37.9667560  58.9322926  38.8119773  37.5512078  60.3809416
  32.2266161  45.7629655  72.6276448  31.7433243  46.5630015  72.8340337
  32.3127100  45.7737600  71.6743892  25.4952121  47.5958035  60.5498268
  25.4722809  47.6945722  59.5980151  25.8052757  48.4423186  60.8715434
  28.1539499  49.6534190  64.6644882  29.1082752  49.6218132  64.5974814
  27.9552022  49.1924814  65.4795108  28.7438881  48.2235306  67.2315680
  29.5631770  48.7179384  67.2550517  29.0175689  47.3067274  67.2033247
  38.5005477  40.6146058  56.5943635  37.6131332  40.8995709  56.3763830
  38.9159466  40.4539821  55.7470912  41.8520013  40.6392579  60.3097975
  42.6280403  41.1289032  60.5822591  41.1268147  41.0650633  60.7669844
  44.2892572  41.3520198  61.3671915  44.8837063  41.1115934  60.6565224
  44.3619156  40.6327329  61.9945452  26.5089728  55.1953809  61.6815080
  26.3744195  54.4354210  61.1153078  26.0921790  55.9194709  61.2143869
  37.6448691  50.3790733  50.6891655  38.3484541  50.5840735  51.3049311
  36.9211339  50.9467495  50.9540739  38.4746501  46.1300594  56.8093926
  38.4181702  46.5869145  55.9701558  39.0274843  45.3691279  56.6316768
  42.2851307  41.9190326  57.6344045  42.0288241  41.5186962  58.4652253
  41.6604175  42.6334120  57.5094184  46.5963645  44.6586399  60.1415336
  46.0363203  44.7279588  60.9146899  45.9907148  44.4827384  59.4214833
  29.6658853  56.0923126  61.8933523  29.5491238  57.0368559  61.7912213
  28.8451300  55.7896688  62.2819322  39.5535388  50.8173262  52.7390115
  40.3880992  50.3854460  52.5567590  39.3919731  50.6455276  53.6667010
  39.2081280  47.3205375  54.1046455  39.1530084  47.1549647  53.1634899
  38.5827335  48.0281408  54.2608644  23.9973795  42.5573440  67.9307877
  24.6432659  42.0472394  68.4195102  23.7890946  43.2942121  68.5051302
  32.5177406  36.8213484  53.6831773  32.5056075  37.7655324  53.8400044
  33.4100827  36.6383630  53.3891234  30.6913368  56.7451388  65.1089451
  31.5940614  56.7774998  65.4255946  30.4650738  55.8151839  65.1235787
  32.4466970  55.4982375  61.7699530  31.4962601  55.4984236  61.6563902
  32.7499456  54.7515109  61.2535564  36.3329525  33.4156261  57.9377710
  35.5661921  32.8614748  58.0834392  36.7440230  33.4878130  58.7991862
  28.3371286  39.7041057  72.0282891  29.2002748  39.3477862  72.2386216
  27.7636697  39.3654952  72.7158295  40.8496185  63.1405818  58.7603708
  40.2861050  63.0495755  57.9919996  40.7348580  62.3205722  59.2406200
  38.3960617  64.6357009  61.5987928  39.1881909  64.2947834  61.1834228
  38.6357267  64.7451984  62.5190082  46.4295744  66.8076785  54.0718173
  45.7783724  67.3930866  53.6852187  47.2240107  67.3382980  54.1313210
  40.3551371  63.8965922  54.4705307  41.1282247  63.3494910  54.3318183
  40.7076770  64.7610172  54.6819768  42.6917649  60.0558589  52.1023757
  42.9443169  59.5340110  51.3407220  41.7542208  59.8924734  52.2050441
  47.9071009  64.4967217  54.6087157  47.2716842  64.5701844  55.3208062
  47.5768415  65.0860816  53.9306236  42.4113937  61.9586695  54.3048132
  42.2950196  61.2831598  54.9729216  42.5216197  61.4719068  53.4880285
  44.3950965  56.4486741  53.0056170  44.5625368  57.3166978  53.3726641
  44.2048134  56.6114023  52.0817459  44.3740186  58.9044399  53.9902837
  44.2539811  59.3501450  54.8288317  43.6792775  59.2529717  53.4316375
  42.1347078  71.6748041  57.6392968  42.0571108  72.6255866  57.7181448
  41.5308722  71.3293913  58.2967894  50.0725252  59.3765872  54.8183171
  50.9843109  59.6093259  54.6430868  49.5634899  59.9602916  54.2558249
  43.1691683  60.2189251  56.2836402  43.8715726  60.6710295  56.7510329
  42.8372311  59.5773070  56.9116295  36.9117017  58.4772804  61.5853536
  36.1216071  58.7330332  61.1093646  37.4028264  59.2921141  61.6905576
  38.8631762  58.8417383  58.5437013  38.0662925  58.9536077  59.0620508
  38.6357354  59.1804035  57.6777903  35.1954720  58.7303294  64.0168527
  35.4462758  59.6150304  64.2826103  35.7314268  58.5507896  63.2443618
  44.4085447  67.0330194  56.3598508  44.2731122  67.8781729  56.7883355
  44.9495260  67.2349471  55.5964441  37.8614845  64.5505632  56.9326433
  38.3739365  65.3448882  57.0831997  38.5137557  63.8531922  56.8660034
  39.6709729  67.6671388  59.0149186  39.8476358  68.5889353  58.8270170
  40.4666563  67.3529807  59.4443566  35.8263761  62.8794286  57.7086003
  36.6638983  63.2891294  57.4919711  36.0042029  61.9393728  57.6786197
  47.7228194  60.5469367  53.3969836  47.2074817  61.3173971  53.6358224
  47.4505502  59.8734503  54.0202898  45.3075305  55.3919067  58.4555074
  44.4516901  55.0025918  58.2760713  45.7202256  55.4711028  57.5954860
  52.6962468  63.3001721  55.3323010  51.9191910  62.9612881  54.8878172
  53.3753949  63.3054344  54.6577975  47.5114497  58.4196459  55.2229617
  47.2064632  58.7342608  56.0739760  48.4644939  58.4977879  55.2656950
  45.9560929  64.5786682  56.8722571  45.4282290  63.8439442  56.5595809
  45.4548431  65.3561358  56.6262540  40.6879656  55.2406348  59.2329183
  41.2623408  55.0181530  58.5002376  41.2750639  55.3095043  59.9857784
  41.0149243  57.2710809  53.2525068  40.1786556  57.6085496  53.5734343
  40.8754013  57.1359789  52.3152205  42.9902324  52.1147597  57.9604252
  42.3366736  51.7996614  57.3360867  42.9482798  51.4923338  58.6864075
  44.1013529  62.3966892  49.8757544  43.1940591  62.1656146  50.0748693
  44.5984561  61.6004511  50.0631526  47.0081608  71.1064399  52.7954230
  46.3343306  71.4096096  53.4039188  47.3947430  71.9093480  52.4459688
  45.2801762  62.4979487  54.3981534  44.3712981  62.2138520  54.4954004
  45.3096846  62.9178566  53.5384841  50.5121030  66.1086077  58.1672702
  50.0583357  65.2676986  58.2237892  49.8814996  66.7447475  58.5047482
  49.4553949  57.0378063  59.3973369  48.7176706  56.5255449  59.7283612
  49.7080723  56.5978444  58.5856646  35.8489933  60.2185001  58.3796737
  35.6514332  59.6254362  57.6547803  35.2936597  59.9137211  59.0972675
  44.9777850  64.0388231  51.7369613  44.5397280  63.3224090  51.2775250
  45.7188291  64.2664346  51.1754704  41.7679016  58.7285167  58.2581709
  40.9546882  59.0279338  58.6646901  42.2638010  58.3340856  58.9756191
  53.0950965  62.3145428  57.7945932  52.9568863  62.5047024  56.8667121
  52.7387184  63.0764811  58.2513983  42.0353395  65.6005953  59.9877936
  42.8293993  65.1056274  59.7860511  41.3245087  65.0723817  59.6245642
  38.3436158  59.7449035  56.0637689  37.4133746  59.6833491  56.2807651
  38.4393630  59.2224988  55.2674330  38.2621707  56.2703848  58.6515930
  38.5228525  57.1849181  58.5425091  39.0838880  55.8028291  58.8012543
  45.2072823  71.2744072  55.0101310  45.3824578  70.8032115  55.8246932
  44.5205611  71.9009838  55.2382570  49.0989078  62.8972612  51.3301671
  48.4818248  62.1719441  51.2334723  48.6305566  63.6581973  50.9868745
  40.8887624  57.1158037  50.4522975  40.0117090  56.9946837  50.0885221
  41.3645377  56.3244115  50.2001863  32.4089764  61.9035196  60.5464482
  33.0960804  61.5896926  59.9585497  32.2537892  62.8076561  60.2731733
  44.0751550  69.4684327  57.6985495  43.2919071  70.0106007  57.7923720
  44.7744295  69.9858307  58.0979737  51.8550532  59.8767963  58.4508158
  52.3210984  60.7095955  58.3768461  52.3058032  59.4112945  59.1553417
  49.9226763  66.2211784  55.4494310  50.1986607  66.1068379  56.3588184
  49.0531262  65.8229269  55.4106483  46.5580827  70.4698135  59.0927124
  46.7403221  69.6519791  59.5554876  47.3813813  70.6865827  58.6552014
  46.8922992  69.3966320  56.3542172  47.4210759  68.8858775  55.7412335
  47.1551212  69.0808851  57.2187705  37.3940085  67.4130190  64.0977506
  37.9793522  66.6673877  64.2305410  37.1964924  67.7234146  64.9814170
  40.2478740  70.4481437  59.1139948  39.5789116  70.9327565  58.6303988
  40.1091610  70.6950657  60.0283327  31.9857740  59.9835790  62.8181949
  32.0241839  59.4499380  63.6119067  31.4798033  59.4570995  62.1992926
  35.6166317  58.7099892  55.8935880  35.9119758  57.8010570  55.8402934
  34.7154353  58.6887631  55.5716883  37.3454159  56.3913990  56.0175206
  37.0166865  55.5111369  55.8350312  37.6993530  56.3361658  56.9051595
  40.4595982  56.6786959  56.3850683  40.7992055  57.2072881  55.6629292
  40.9068103  57.0167366  57.1609250  42.4464129  55.1761581  54.5843976
  43.1672492  55.5542834  54.0807693  41.8229433  55.8950458  54.6878954
  46.5895252  55.8806730  55.5202308  46.8058867  56.7631368  55.2191137
  46.1089319  55.4892943  54.7907950  49.9863176  69.3683119  56.9697155
  50.1600053  68.8029541  56.2171008  50.4792067  70.1684013  56.7876645
  35.8040136  61.3797788  65.0360714  35.2593604  62.1557596  65.1680989
  36.6819486  61.7268592  64.8779836  42.5927752  54.7109371  57.4141513
  42.7143664  53.7826018  57.6132400  42.3029795  54.7248057  56.5019828
  55.8402567  62.1319541  58.5887455  56.2833713  61.3826867  58.1906578
  54.9629077  62.1229678  58.2061187  50.9738348  68.6849883  54.0694054
  51.6689253  69.3056576  54.2881368  51.3161499  67.8345234  54.3446432
  52.8729771  66.1349588  55.5981384  53.3981096  66.4736861  54.8730704
  52.7852124  65.1996604  55.4144519  44.5570432  72.2021572  59.9576638
  44.1175423  71.7097950  60.6509494  45.3078549  71.6594539  59.7168713
  37.0362771  68.3933113  59.9601266  37.8620791  68.0936884  59.5799909
  36.6856823  67.6240735  60.4091054  41.5657811  66.2963504  55.5057400
  41.7145932  66.9798969  54.8524073  42.3724255  66.2768594  56.0206856
  39.3210444  62.3228682  56.5118469  39.0756486  61.4191012  56.7098679
  39.4906359  62.3245832  55.5697947  38.5906092  58.0557039  54.0104630
  37.8975337  58.1301394  53.3544666  38.3457844  57.2917383  54.5326147
  45.0653217  68.7911635  52.9769147  44.4927184  69.4101822  52.5239619
  45.6386010  69.3410996  53.5109069  48.2850477  69.0748785  54.1077730
  49.2181150  69.0094346  54.3110605  48.1973689  69.9105052  53.6492262
  50.9138493  68.3914655  51.0681677  50.8352125  68.0574519  51.9617435
  51.7348160  68.8836423  51.0673149  45.4500015  60.1272447  50.3185200
  46.3959120  59.9978655  50.3873618  45.0714260  59.3887109  50.7954628
  43.6342932  58.0522424  50.2540085  42.7274388  57.7555536  50.3302799
  43.9118913  57.7552242  49.3874371  34.5520873  59.3728787  60.7039131
  34.2323657  58.5194095  60.4113505  34.0054301  59.5877365  61.4597099
  45.2504998  52.5959313  56.4084326  44.4405727  52.2506398  56.7839572
  45.9389415  52.2866857  56.9971938  47.1795546  51.6737360  58.0308623
  47.7326585  52.0932814  58.6898646  47.4165633  50.7473108  58.0731579
  42.4041717  54.9109359  50.3952064  43.2660881  55.2364257  50.6547882
  42.5892061  54.1240855  49.8825130  34.4209133  62.9931699  62.6732253
  33.7272604  62.5785651  62.1602207  35.1682124  63.0352235  62.0765672
  36.3345875  62.9249952  60.5498268  36.3116563  63.0237640  59.5980151
  36.6446512  63.7715103  60.8715434  49.3399232  55.9437976  56.5943635
  48.4525087  56.2287626  56.3763830  49.7553221  55.7831739  55.7470912
  37.3483482  70.5245727  61.6815080  37.2137950  69.7646128  61.1153078
  36.9315544  71.2486627  61.2143869  48.4842445  65.7082650  50.6891655
  49.1878295  65.9132653  51.3049311  47.7605094  66.2759412  50.9540739
  49.3140255  61.4592512  56.8093926  49.2575457  61.9161063  55.9701558
  49.8668598  60.6983196  56.6316768  40.5052608  71.4215044  61.8933523
  40.3884992  72.3660476  61.7912213  39.6845054  71.1188606  62.2819322
  50.3929142  66.1465180  52.7390115  51.2274746  65.7146378  52.5567590
  50.2313485  65.9747193  53.6667010  50.0475035  62.6497293  54.1046455
  49.9923838  62.4841564  53.1634899  49.4221090  63.3573326  54.2608644
  34.8367550  57.8865357  67.9307877  35.4826413  57.3764311  68.4195102
  34.6284701  58.6234039  68.5051302  43.3571160  52.1505402  53.6831773
  43.3449830  53.0947242  53.8400044  44.2494582  51.9675547  53.3891234
  47.1723280  48.7448179  57.9377710  46.4055675  48.1906665  58.0834392
  47.5833985  48.8170047  58.7991862  51.6889940  78.4697735  58.7603708
  51.1254805  78.3787672  57.9919996  51.5742335  77.6497640  59.2406200
  49.2354371  79.9648927  61.5987928  50.0275663  79.6239752  61.1834228
  49.4751022  80.0743902  62.5190082  57.2689498  82.1368703  54.0718173
  56.6177478  82.7222783  53.6852187  58.0633861  82.6674898  54.1313210
  51.1945125  79.2257840  54.4705307  51.9676001  78.6786827  54.3318183
  51.5470524  80.0902089  54.6819768  53.0330168  80.5534222  67.6772206
  52.7420034  81.4579853  67.5618873  53.6687152  80.5950750  68.3916276
  53.9586375  77.9311071  64.2673566  54.5549947  77.7067093  63.5530529
  54.0161346  77.1895816  64.8699014  53.5311403  75.3850506  52.1023757
  53.7836924  74.8632028  51.3407220  52.5935962  75.2216652  52.2050441
  58.5754686  74.3886285  59.9098500  59.3617775  73.9705708  59.5588917
  58.8393390  75.2932377  60.0780149  58.7464763  79.8259135  54.6087157
  58.1110596  79.8993761  55.3208062  58.4162170  80.4152734  53.9306236
  53.2507692  77.2878612  54.3048132  53.1343950  76.6123516  54.9729216
  53.3609952  76.8010986  53.4880285  55.5939233  76.7488759  58.0094821
  55.2297440  76.2219380  58.7207743  56.4506349  76.3587228  57.8361307
  55.2344720  71.7778659  53.0056170  55.4019122  72.6458895  53.3726641
  55.0441889  71.9405941  52.0817459  57.9920053  80.2395638  64.6722000
  57.6920776  81.1420677  64.5637807  57.6471113  79.9727821  65.5243153
  51.4432535  76.6909435  60.7058705  50.5183031  76.5585649  60.9136396
  51.6916948  77.4703654  61.2028647  55.2133941  74.2336317  53.9902837
  55.0933566  74.6793367  54.8288317  54.5186529  74.5821634  53.4316375
  52.9740833  87.0039958  57.6392968  52.8964863  87.9547783  57.7181448
  52.3702476  86.6585831  58.2967894  59.5188589  79.6883608  62.2096752
  58.8897452  79.8529322  61.5072820  59.1314251  80.1025218  62.9807716
  63.3977821  80.6238046  59.5641116  62.7128859  81.0036947  59.0138149
  63.4821670  81.2333373  60.2973064  60.6528753  78.2698005  66.1636459
  60.8645648  78.9129765  65.4870840  60.6058501  77.4360322  65.6958389
  58.2554982  70.8815826  63.0673031  57.3939461  71.1797079  63.3589769
  58.2817416  71.0986225  62.1354064  55.0716551  79.4258016  59.4746837
  55.5354897  79.7045719  58.6851460  54.8073349  78.5241461  59.2919928
  51.9640632  78.9729498  62.4126600  52.5341989  79.4016766  61.7744085
  52.5548744  78.6912082  63.1110786  54.0085437  75.5481169  56.2836402
  54.7109480  76.0002212  56.7510329  53.6766066  74.9064987  56.9116295
  61.7674581  81.1469960  64.3358817  62.5892024  80.7450148  64.0541498
  61.7636984  81.0438195  65.2874932  49.7025516  74.1709301  58.5437013
  48.9056680  74.2827995  59.0620508  49.4751109  74.5095953  57.6777903
  55.5331184  80.6954004  66.4919527  55.5975617  81.1574411  67.3277699
  54.8242108  80.0651369  66.6201837  69.8580574  77.4908709  60.6843788
  69.1044282  76.9216107  60.5287793  69.9928115  77.4571373  61.6314423
  55.2479202  82.3622111  56.3598508  55.1124877  83.2073647  56.7883355
  55.7889014  82.5641389  55.5964441  48.7008599  79.8797549  56.9326433
  49.2133120  80.6740800  57.0831997  49.3531312  79.1823840  56.8660034
  50.5103484  82.9963306  59.0149186  50.6870112  83.9181270  58.8270170
  51.3060317  82.6821725  59.4443566  56.8747678  82.9845678  70.4898850
  56.4311532  82.1982056  70.1719754  57.5364892  83.1724828  69.8242740
  51.6334799  84.5141479  65.0159528  52.1842224  84.3858543  64.2436522
  50.7946275  84.8136368  64.6654421  58.9728916  83.2648478  68.5180251
  58.9547392  84.0857359  68.0260520  59.8948836  83.1402553  68.7430392
  55.4301970  80.7792607  69.3603759  55.9630307  80.0180895  69.1303067
  54.9016051  80.4866259  70.1027914  46.6657516  78.2086204  57.7086003
  47.5032738  78.6183212  57.4919711  46.8435784  77.2685646  57.6786197
  58.5621948  75.8761284  53.3969836  58.0468571  76.6465889  53.6358224
  58.2899257  75.2026420  54.0202898  56.1469059  70.7210985  58.4555074
  55.2910655  70.3317835  58.2760713  56.5596011  70.8002946  57.5954860
  63.5356222  78.6293639  55.3323010  62.7585665  78.2904798  54.8878172
  64.2147703  78.6346262  54.6577975  58.3508251  73.7488376  55.2229617
  58.0458387  74.0634526  56.0739760  59.3038693  73.8269796  55.2656950
  56.7954683  79.9078600  56.8722571  56.2676045  79.1731359  56.5595809
  56.2942186  80.6853276  56.6262540  61.7747529  78.1027620  61.9889618
  61.1171204  78.7926882  62.0769746  62.5787928  78.4924052  62.3323604
  51.5273411  70.5698266  59.2329183  52.1017163  70.3473447  58.5002376
  52.1144393  70.6386960  59.9857784  60.5852988  76.4571993  60.0393559
  61.0984870  77.0901985  60.5415269  61.2354212  75.8573188  59.6736919
  51.8542998  72.6002727  53.2525068  51.0180310  72.9377413  53.5734343
  51.7147767  72.4651707  52.3152205  53.8296078  67.4439515  57.9604252
  53.1760491  67.1288532  57.3360867  53.7876553  66.8215255  58.6864075
  54.9407283  77.7258810  49.8757544  54.0334345  77.4948063  50.0748693
  55.4378315  76.9296429  50.0631526  57.8475362  86.4356317  52.7954230
  57.1737061  86.7388014  53.4039188  58.2341184  87.2385397  52.4459688
  57.8468867  75.3312864  57.4154580  58.5940685  75.8434261  57.1061702
  58.1160456  75.0096917  58.2758974  56.1195517  77.8271405  54.3981534
  55.2106736  77.5430438  54.4954004  56.1490600  78.2470483  53.5384841
  61.3514784  81.4377994  58.1672702  60.8977111  80.5968904  58.2237892
  60.7208751  82.0739393  58.5047482  59.7947723  83.2754491  59.1022520
  60.0870698  83.8359548  58.3834886  60.3046344  83.5683052  59.8575679
  46.6883687  75.5476919  58.3796737  46.4908087  74.9546280  57.6547803
  46.1330351  75.2429129  59.0972675  54.6680411  75.4400025  60.4991330
  54.7229021  74.4873862  60.4233806  53.8571613  75.5959464  60.9832628
  55.8171604  79.3680148  51.7369613  55.3791034  78.6516007  51.2775250
  56.5582045  79.5956263  51.1754704  52.6072771  74.0577085  58.2581709
  51.7940636  74.3571256  58.6646901  53.1031765  73.6632774  58.9756191
  54.7581349  84.0534842  60.1915973  54.7157527  84.2795688  59.2624505
  55.6744047  83.8198217  60.3401774  63.9344719  77.6437345  57.7945932
  63.7962618  77.8338941  56.8667121  63.5780938  78.4056728  58.2513983
  52.8747149  80.9297871  59.9877936  53.6687748  80.4348191  59.7860511
  52.1638842  80.4015734  59.6245642  57.6941994  83.3115967  64.3390304
  57.7479016  83.8806903  65.1068020  56.8256775  83.4817852  63.9744341
  49.1829913  75.0740953  56.0637689  48.2527501  75.0125408  56.2807651
  49.2787385  74.5516906  55.2674330  49.1015462  71.5995766  58.6515930
  49.3622279  72.5141099  58.5425091  49.9232634  71.1320208  58.8012543
  64.8229648  79.7537573  65.3390088  65.0165539  80.6583384  65.5849363
  64.7230267  79.2944992  66.1728673  55.4518425  81.5026893  63.6675773
  55.3129511  81.1345677  64.5401711  54.6633022  82.0174532  63.4959731
  56.0466577  86.6035990  55.0101310  56.2218333  86.1324033  55.8246932
  55.3599365  87.2301756  55.2382570  57.0023640  80.8808496  61.0564611
  56.6673473  80.8409266  61.9522261  56.5027586  80.2153212  60.5835021
  59.9382832  78.2264530  51.3301671  59.3212003  77.5011358  51.2334723
  59.4699321  78.9873890  50.9868745  61.5936964  82.9363438  68.9907451
  61.5349510  82.2522659  68.3238034  61.9956482  83.6782428  68.5388077
  50.6127663  89.7525352  61.7841170  50.8524261  90.3843876  62.4620188
  49.7696859  89.4013392  62.0706529  51.7281378  72.4449954  50.4522975
  50.8510844  72.3238755  50.0885221  52.2039131  71.6536033  50.2001863
  61.5954371  80.9003022  67.2221431  60.7081150  80.5628944  67.3447829
  62.1652922  80.1686054  67.4590196  43.2483518  77.2327114  60.5464482
  43.9354558  76.9188844  59.9585497  43.0931647  78.1368479  60.2731733
  55.1255524  85.5604475  64.1882674  55.0525696  86.3659446  64.7001978
  54.6832918  85.7596441  63.3630695  54.9145304  84.7976245  57.6985495
  54.1312826  85.3397925  57.7923720  55.6138049  85.3150224  58.0979737
  58.2241954  70.6070874  60.3419701  58.7210654  69.8540837  60.0220771
  57.4528936  70.6435191  59.7762910  57.5854208  85.4591309  66.3440832
  58.2982180  86.0938774  66.2716734  57.0944237  85.5555175  65.5280834
  59.3071735  79.3642561  57.9158124  58.3728014  79.4844024  57.7462828
  59.4848403  78.4615028  57.6518134  52.6366121  83.2085752  67.1646403
  53.3375581  83.8422235  67.3175797  52.1661236  83.5500484  66.4042043
  60.7620517  81.5503702  55.4494310  61.0380361  81.4360297  56.3588184
  59.8925016  81.1521187  55.4106483  57.3974581  85.7990053  59.0927124
  57.5796976  84.9811709  59.5554876  58.2207567  86.0157745  58.6552014
  57.7316747  84.7258238  56.3542172  58.2604513  84.2150693  55.7412335
  57.9944966  84.4100768  57.2187705  48.2333840  82.7422107  64.0977506
  48.8187276  81.9965795  64.2305410  48.0358678  83.0526064  64.9814170
  51.0872495  85.7773355  59.1139948  50.4182870  86.2619482  58.6303988
  50.9485364  86.0242575  60.0283327  55.2277763  87.8117098  65.7122607
  55.7796071  87.9748720  66.4771692  55.5683957  88.4021536  65.0402632
  60.0788638  82.6378356  71.5671261  60.6228542  83.2508314  71.0726216
  59.4975483  83.1957934  72.0838274  46.4560072  74.0391810  55.8935880
  46.7513513  73.1302488  55.8402934  45.5548108  74.0179549  55.5716883
  58.3646151  85.7599074  62.6986289  58.2397290  84.9588814  62.1897234
  59.0225242  86.2545267  62.2100259  60.4281059  83.5608094  64.3265839
  59.4811395  83.4413445  64.2544166  60.7763832  82.6730592  64.4092100
  48.1847913  71.7205907  56.0175206  47.8560620  70.8403286  55.8350312
  48.5387284  71.6653576  56.9051595  57.4327492  83.3560810  60.5270191
  57.2852455  82.4277517  60.7077761  58.2580986  83.3780901  60.0427266
  51.2989737  72.0078877  56.3850683  51.6385809  72.5364798  55.6629292
  51.7461857  72.3459283  57.1609250  61.0361614  84.1789369  61.6135064
  61.9608162  83.9732230  61.4759515  60.8676918  83.9305770  62.5224405
  53.2857884  70.5053499  54.5843976  54.0066246  70.8834751  54.0807693
  52.6623188  71.2242375  54.6878954  60.8256930  84.6975036  56.9697155
  60.9993808  84.1321459  56.2171008  61.3185822  85.4975931  56.7876645
  53.4321507  70.0401289  57.4141513  53.5537418  69.1117935  57.6132400
  53.1423549  70.0539975  56.5019828  61.8132103  84.0141801  54.0694054
  62.5083007  84.6348493  54.2881368  62.1555253  83.1637152  54.3446432
  63.7123526  81.4641506  55.5981384  64.2374850  81.8028779  54.8730704
  63.6245879  80.5288521  55.4144519  55.3743575  85.3775580  67.7271261
  55.6830701  85.1324727  68.5993961  56.1719057  85.5822218  67.2390131
  55.3964187  87.5313489  59.9576638  54.9569177  87.0389868  60.6509494
  56.1472304  86.9886457  59.7168713  47.8756526  83.7225030  59.9601266
  48.7014546  83.4228802  59.5799909  47.5250578  82.9532653  60.4091054
  52.8438059  83.0751498  62.0298939  52.2218068  82.4122204  61.7301167
  53.5142926  83.1012630  61.3472587  46.0765131  81.6411357  60.9190199
  45.2397039  81.2133531  60.7374201  46.0488776  81.8343800  61.8560990
  63.4017432  82.0974410  70.9032582  62.6112976  82.0798549  70.3637082
  63.1650787  82.6362703  71.6581619  52.4051566  81.6255422  55.5057400
  52.5539686  82.3090886  54.8524073  53.2118009  81.6060512  56.0206856
  65.0233504  81.3663818  68.4607332  64.7318312  81.7293798  69.2970793
  64.4105635  80.6530826  68.2820665  63.2720692  76.4896432  66.9287390
  63.7474814  76.6824079  66.1206242  62.3486258  76.5455618  66.6830774
  50.1604199  77.6520599  56.5118469  49.9150241  76.7482929  56.7098679
  50.3300113  77.6537750  55.5697947  49.4299846  73.3848957  54.0104630
  48.7369091  73.4593312  53.3544666  49.1851598  72.6209301  54.5326147
  55.9046971  84.1203552  52.9769147  55.3320938  84.7393739  52.5239619
  56.4779765  84.6702914  53.5109069  61.9722361  73.3662192  65.1615696
  62.9239784  73.4660290  65.1827920  61.8025812  72.5740461  65.6713780
  59.9936741  70.4517776  65.3475097  59.3986673  70.7322788  64.6521586
  59.7086437  70.9411677  66.1191838  59.1244231  84.4040702  54.1077730
  60.0574904  84.3386264  54.3110605  59.0367444  85.2396969  53.6492262
  61.7532248  83.7206573  51.0681677  61.6745879  83.3866436  51.9617435
  62.5741915  84.2128341  51.0673149  56.2893770  75.4564365  50.3185200
  57.2352875  75.3270573  50.3873618  55.9108015  74.7179027  50.7954628
  70.2686989  77.6484319  63.4164032  70.9990377  77.3869607  63.9771736
  69.6593934  76.9113041  63.4566100  54.4736687  73.3814341  50.2540085
  53.5668142  73.0847454  50.3302799  54.7512668  73.0844159  49.3874371
  56.0898753  67.9251231  56.4084326  55.2799481  67.5798316  56.7839572
  56.7783170  67.6158775  56.9971938  53.2435472  70.2401277  50.3952064
  54.1054636  70.5656175  50.6547882  53.4285816  69.4532773  49.8825130
  47.1739630  78.2541870  60.5498268  47.1510318  78.3529557  59.5980151
  47.4840266  79.1007021  60.8715434  48.1877237  85.8537645  61.6815080
  48.0531704  85.0938045  61.1153078  47.7709299  86.5778544  61.2143869
  59.3236200  81.0374568  50.6891655  60.0272050  81.2424571  51.3049311
  58.5998848  81.6051330  50.9540739  60.1534010  76.7884429  56.8093926
  60.0969211  77.2452981  55.9701558  60.7062352  76.0275114  56.6316768
  51.3446362  86.7506962  61.8933523  51.2278747  87.6952394  61.7912213
  50.5238809  86.4480523  62.2819322  61.2322897  81.4757097  52.7390115
  62.0668501  81.0438296  52.5567590  61.0707240  81.3039111  53.6667010
  60.8868789  77.9789211  54.1046455  60.8317593  77.8133482  53.1634899
  60.2614844  78.6865244  54.2608644  54.1964915  67.4797320  53.6831773
  54.1843584  68.4239160  53.8400044  55.0888336  67.2967465  53.3891234
  52.3700877  87.4035224  65.1089451  53.2728123  87.4358834  65.4255946
  52.1438247  86.4735674  65.1235787  54.1254479  86.1566210  61.7699530
  53.1750110  86.1568072  61.6563902  54.4286965  85.4098945  61.2535564
  69.8607172  91.9926748  62.8345292  70.4985582  91.8733496  62.1308632
  69.7428015  92.9407592  62.8933244  66.6696878  91.9454177  62.7706817
  66.3315390  91.8295241  61.8827352  67.5386647  91.5445342  62.7507823
  62.5283694  93.7989653  58.7603708  61.9648559  93.7079590  57.9919996
  62.4136089  92.9789557  59.2406200  67.1516661  93.0989028  68.7293022
  67.1405302  92.7041827  67.8573526  67.3137301  92.3655101  69.3226794
  60.0748126  95.2940845  61.5987928  60.8669418  94.9531669  61.1834228
  60.3144776  95.4035820  62.5190082  68.1083253  97.4660621  54.0718173
  67.4571232  98.0514701  53.6852187  68.9027616  97.9966816  54.1313210
  62.0338880  94.5549758  54.4705307  62.8069756  94.0078745  54.3318183
  62.3864279  95.4194007  54.6819768  63.8723922  95.8826140  67.6772206
  63.5813788  96.7871771  67.5618873  64.5080907  95.9242668  68.3916276
  64.7980129  93.2602989  64.2673566  65.3943702  93.0359011  63.5530529
  64.8555101  92.5187734  64.8699014  64.3705158  90.7142424  52.1023757
  64.6230678  90.1923945  51.3407220  63.4329717  90.5508569  52.2050441
  69.4148441  89.7178202  59.9098500  70.2011530  89.2997625  59.5588917
  69.6787145  90.6224294  60.0780149  69.5858518  95.1551053  54.6087157
  68.9504351  95.2285679  55.3208062  69.2555924  95.7444651  53.9306236
  74.8156868  89.6553436  60.8131479  75.5482040  89.0852652  61.0469308
  74.0596223  89.2675036  61.2537984  64.0901446  92.6170530  54.3048132
  63.9737705  91.9415433  54.9729216  64.2003706  92.1302904  53.4880285
  66.4332987  92.0780677  58.0094821  66.0691195  91.5511298  58.7207743
  67.2900103  91.6879146  57.8361307  72.3382288  83.3675010  65.2726087
  72.0065613  84.2370421  65.0487302  71.7427901  83.0511294  65.9520118
  66.0738474  87.1070577  53.0056170  66.2412877  87.9750813  53.3726641
  65.8835643  87.2697858  52.0817459  68.8313808  95.5687556  64.6722000
  68.5314531  96.4712594  64.5637807  68.4864867  95.3019739  65.5243153
  62.2826289  92.0201352  60.7058705  61.3576785  91.8877567  60.9136396
  62.5310702  92.7995572  61.2028647  72.2310951  88.0870096  62.3519437
  71.3227829  88.0185504  62.0578198  72.1798547  88.5642041  63.1801263
  66.0527695  89.5628234  53.9902837  65.9327320  90.0085285  54.8288317
  65.3580284  89.9113552  53.4316375  59.6435100  91.6634626  61.5402494
  59.7727481  91.9169105  62.4541905  58.9632551  92.2562334  61.2207149
  63.8134587 102.3331876  57.6392968  63.7358617 103.2839701  57.7181448
  63.2096231 101.9877748  58.2967894  66.3051817  89.5059741  70.2954335
  65.5285151  90.0653662  70.2857199  66.9442380  89.9916524  70.8169205
  74.0972598  86.2886534  64.1297311  73.4546978  86.5819067  63.4837106
  73.5927526  86.1739455  64.9350508  71.7512761  90.0349707  54.8183171
  72.6630618  90.2677094  54.6430868  71.2422408  90.6186752  54.2558249
  64.5598189  92.3145195  69.8572302  65.3012874  92.8530239  69.5807125
  63.8535175  92.9411483  70.0143853  70.0353529  94.4574335  68.4544463
  70.4436885  94.0156746  67.7099096  69.3130791  93.8826963  68.7078656
  66.3884599  89.3946942  65.8278020  67.2345794  89.8186356  65.9712669
  66.3283237  88.7380566  66.5216583  70.3582344  95.0175526  62.2096752
  69.7291206  95.1821240  61.5072820  69.9708006  95.4317135  62.9807716
  74.2371576  95.9529964  59.5641116  73.5522614  96.3328865  59.0138149
  74.3215425  96.5625290  60.2973064  69.5384044  87.0551310  67.4859194
  69.2944976  87.8093371  66.9493469  69.8143975  87.4336658  68.3206441
  71.4922507  93.5989923  66.1636459  71.7039402  94.2421683  65.4870840
  71.4452255  92.7652239  65.6958389  69.0948736  86.2107743  63.0673031
  68.2333215  86.5088997  63.3589769  69.1211171  86.4278142  62.1354064
  65.9110306  94.7549934  59.4746837  66.3748651  95.0337637  58.6851460
  65.6467104  93.8533378  59.2919928  62.8034387  94.3021415  62.4126600
  63.3735744  94.7308684  61.7744085  63.3942498  94.0204000  63.1110786
  64.8479192  90.8773086  56.2836402  65.5503235  91.3294130  56.7510329
  64.5159820  90.2356905  56.9116295  63.2959553  89.4684843  70.6587612
  62.6658214  90.1501124  70.8923009  63.1895641  89.3567925  69.7140750
  58.5904526  89.1356639  61.5853536  57.8003580  89.3914167  61.1093646
  59.0815773  89.9504977  61.6905576  72.6068335  96.4761878  64.3358817
  73.4285779  96.0742065  64.0541498  72.6030738  96.3730112  65.2874932
  60.5419271  89.5001218  58.5437013  59.7450434  89.6119912  59.0620508
  60.3144863  89.8387870  57.6777903  66.3724939  96.0245921  66.4919527
  66.4369371  96.4866329  67.3277699  65.6635862  95.3943286  66.6201837
  56.8742229  89.3887129  64.0168527  57.1250267  90.2734139  64.2826103
  57.4101777  89.2091731  63.2443618  80.6974328  92.8200627  60.6843788
  79.9438037  92.2508025  60.5287793  80.8321869  92.7863291  61.6314423
  66.0872956  97.6914029  56.3598508  65.9518631  98.5365565  56.7883355
  66.6282769  97.8933307  55.5964441  62.5740296  83.7705609  73.0212863
  62.1807241  83.2171807  73.6960507  63.3906436  84.0816187  73.4119380
  59.5402354  95.2089467  56.9326433  60.0526874  96.0032717  57.0831997
  60.1925066  94.5115757  56.8660034  61.3497238  98.3255223  59.0149186
  61.5263867  99.2473188  58.8270170  62.1454072  98.0113642  59.4443566
  65.4908257  85.1863488  70.6133119  66.2317970  85.7870641  70.5337582
  65.7226180  84.4441126  70.0551162  60.6349595  90.3719855  68.8911349
  60.5203110  89.4705112  69.1918448  59.7794113  90.6183552  68.5396166
  67.7141433  98.3137595  70.4898850  67.2705287  97.5273974  70.1719754
  68.3758646  98.5016746  69.8242740  62.4728554  99.8433397  65.0159528
  63.0235979  99.7150460  64.2436522  61.6340030 100.1428286  64.6654421
  69.8122671  98.5940395  68.5180251  69.7941146  99.4149276  68.0260520
  70.7342591  98.4694471  68.7430392  66.2695725  96.1084525  69.3603759
  66.8024062  95.3472813  69.1303067  65.7409806  95.8158177  70.1027914
  69.4365420  81.2144591  64.8897401  69.0929689  82.1046232  64.8136512
  69.8044382  81.0246248  64.0266986  57.5051270  93.5378121  57.7086003
  58.3426492  93.9475130  57.4919711  57.6829538  92.5977563  57.6786197
  69.4015703  91.2053202  53.3969836  68.8862326  91.9757807  53.6358224
  69.1293011  90.5318338  54.0202898  66.9862814  86.0502903  58.4555074
  66.1304410  85.6609753  58.2760713  67.3989765  86.1294863  57.5954860
  68.5161960  83.5849246  62.8546634  68.0126756  83.5479381  62.0414440
  68.8092567  84.4941989  62.9143291  64.7604846  83.6687976  61.8612816
  65.6257843  83.4730784  61.5018705  64.8282355  83.4398327  62.7882173
  74.3749977  93.9585557  55.3323010  73.5979419  93.6196716  54.8878172
  75.0541458  93.9638180  54.6577975  69.1902006  89.0780294  55.2229617
  68.8852141  89.3926443  56.0739760  70.1432448  89.1561714  55.2656950
  67.6348438  95.2370517  56.8722571  67.1069799  94.5023277  56.5595809
  67.1335940  96.0145194  56.6262540  72.6141284  93.4319538  61.9889618
  71.9564958  94.1218799  62.0769746  73.4181683  93.8215970  62.3323604
  62.3667165  85.8990184  59.2329183  62.9410917  85.6765365  58.5002376
  62.9538148  85.9678878  59.9857784  71.4246742  91.7863910  60.0393559
  71.9378624  92.4193902  60.5415269  72.0747966  91.1865106  59.6736919
  62.6936752  87.9294645  53.2525068  61.8574065  88.2669331  53.5734343
  62.5541522  87.7943624  52.3152205  64.6689833  82.7731432  57.9604252
  64.0154245  82.4580450  57.3360867  64.6270307  82.1507173  58.6864075
  65.7801038  93.0550728  49.8757544  64.8728099  92.8239981  50.0748693
  66.2772070  92.2588347  50.0631526  68.6869117 101.7648235  52.7954230
  68.0130815 102.0679932  53.4039188  69.0734939 102.5677315  52.4459688
  67.9027573  89.2613366  62.2851900  66.9850135  89.4828313  62.1273588
  68.3187717  89.3359677  61.4263607  68.6862621  90.6604782  57.4154580
  69.4334440  91.1726179  57.1061702  68.9554211  90.3388834  58.2758974
  66.9589271  93.1563322  54.3981534  66.0500490  92.8722355  54.4954004
  66.9884355  93.5762401  53.5384841  72.1908539  96.7669912  58.1672702
  71.7370866  95.9260822  58.2237892  71.5602505  97.4031310  58.5047482
  71.1341458  87.6961898  59.3973369  70.3964215  87.1839284  59.7283612
  71.3868232  87.2562280  58.5856646  70.6341478  98.6046409  59.1022520
  70.9264452  99.1651466  58.3834886  71.1440098  98.8974970  59.8575679
  71.2353085  80.4738150  59.9915139  71.5411962  79.6135513  59.7041054
  71.9605690  81.0655770  59.7914133  57.5277442  90.8768837  58.3796737
  57.3301841  90.2838197  57.6547803  56.9724106  90.5721047  59.0972675
  65.5074165  90.7691943  60.4991330  65.5622775  89.8165779  60.4233806
  64.6965367  90.9251382  60.9832628  66.6565359  94.6972066  51.7369613
  66.2184789  93.9807925  51.2775250  67.3975800  94.9248181  51.1754704
  63.4466525  89.3869003  58.2581709  62.6334391  89.6863173  58.6646901
  63.9425519  88.9924692  58.9756191  65.5975103  99.3826760  60.1915973
  65.5551282  99.6087606  59.2624505  66.5137802  99.1490134  60.3401774
  69.0440737  89.8510827  67.0896602  69.3990125  90.0782300  67.9491068
  69.6912868  90.1829204  66.4673858  74.7738474  92.9729263  57.7945932
  74.6356372  93.1630859  56.8667121  74.4174693  93.7348646  58.2513983
  62.9380600  86.9587358  63.8742944  63.5779979  86.8176117  63.1765907
  62.1058130  86.6721872  63.4981546  74.8007853  95.0405790  62.8057203
  75.2344360  94.9481079  63.6540257  75.5139434  95.0163291  62.1677219
  63.7140904  96.2589789  59.9877936  64.5081502  95.7640109  59.7860511
  63.0032596  95.7307652  59.6245642  68.5335748  98.6407884  64.3390304
  68.5872771  99.2098821  65.1068020  67.6650530  98.8109769  63.9744341
  60.0223667  90.4032870  56.0637689  59.0921255  90.3417326  56.2807651
  60.1181139  89.8808823  55.2674330  59.9409216  86.9287683  58.6515930
  60.2016034  87.8433017  58.5425091  60.7626389  86.4612126  58.8012543
  61.4134142  88.3425440  65.8214755  62.0857195  88.1342803  65.1727404
  60.5863928  88.1447526  65.3819987  75.6623403  95.0829491  65.3390088
  75.8559293  95.9875301  65.5849363  75.5624021  94.6236910  66.1728673
  67.3159714  84.9687381  67.8380416  66.6687629  85.6677331  67.7444892
  68.0860729  85.4023525  68.2056664  70.7238512  95.2336234  70.9130969
  70.5724018  95.0046785  69.9961053  70.7143191  96.1906835  70.9262314
  67.4923848  92.8068146  65.8977235  68.4215908  92.9579306  65.7246203
  67.0714878  92.8952167  65.0425882  66.2912180  96.8318811  63.6675773
  66.1523265  96.4637595  64.5401711  65.5026776  97.3466450  63.4959731
  66.8860332 101.9327907  55.0101310  67.0612087 101.4615950  55.8246932
  66.1993120 102.5593673  55.2382570  67.8417395  96.2100413  61.0564611
  67.5067228  96.1701183  61.9522261  67.3421341  95.5445129  60.5835021
  61.8161639  91.6168043  66.5817192  61.6781437  90.8848282  67.1828731
  62.7266562  91.5276944  66.3001380  70.7776587  93.5556448  51.3301671
  70.1605757  92.8303276  51.2334723  70.3093075  94.3165808  50.9868745
  64.4443940  91.3288003  66.0700872  65.1543558  90.6881195  66.0287490
  64.4013248  91.5800898  66.9927052  72.4330718  98.2655356  68.9907451
  72.3743264  97.5814576  68.3238034  72.8350237  99.0074346  68.5388077
  63.1572874  88.3153221  67.8896511  62.6210231  87.8643959  68.5418108
  62.5689582  88.4499129  67.1466976  61.4521417 105.0817270  61.7841170
  61.6918015 105.7135794  62.4620188  60.6090614 104.7305310  62.0706529
  62.5675133  87.7741872  50.4522975  61.6904599  87.6530673  50.0885221
  63.0432886  86.9827950  50.2001863  72.4348126  96.2294940  67.2221431
  71.5474904  95.8920862  67.3447829  73.0046677  95.4977971  67.4590196
  54.0877273  92.5619032  60.5464482  54.7748312  92.2480762  59.9585497
  53.9325401  93.4660396  60.2731733  58.8911995  87.4509228  64.9749506
  58.8070184  86.8434898  64.2399916  58.0694701  87.9418247  64.9759002
  65.9649279 100.8896392  64.1882674  65.8919450 101.6951364  64.7001978
  65.5226672 101.0888358  63.3630695  65.7539059 100.1268162  57.6985495
  64.9706580 100.6689843  57.7923720  66.4531804 100.6442142  58.0979737
  69.0635709  85.9362792  60.3419701  69.5604408  85.1832754  60.0220771
  68.2922690  85.9727109  59.7762910  76.9165466  91.6403157  61.9837992
  76.9055342  92.5227873  61.6131925  76.0482845  91.2874708  61.7892529
  68.4247962 100.7883226  66.3440832  69.1375935 101.4230691  66.2716734
  67.9337991 100.8847092  65.5280834  70.1465489  94.6934479  57.9158124
  69.2121768  94.8135942  57.7462828  70.3242158  93.7906946  57.6518134
  65.6470677  88.0780175  60.0691385  65.2768465  87.5251215  60.7572291
  66.1429770  87.4738308  59.5166385  73.5338041  90.5351798  58.4508158
  73.9998493  91.3679790  58.3768461  73.9845541  90.0696780  59.1553417
  63.4759876  98.5377670  67.1646403  64.1769335  99.1714153  67.3175797
  63.0054991  98.8792401  66.4042043  71.6014272  96.8795620  55.4494310
  71.8774116  96.7652214  56.3588184  70.7318771  96.4813105  55.4106483
  71.5054703  82.9032385  62.4899060  70.5917783  83.1336612  62.6581267
  71.9347805  82.9870829  63.3413092  71.2761162  91.0922277  64.9898954
  70.6232612  91.3398185  64.3351406  71.6541542  90.2786416  64.6561431
  68.2368336 101.1281971  59.0927124  68.4190730 100.3103626  59.5554876
  69.0601322 101.3449663  58.6552014  68.5710501 100.0550156  56.3542172
  69.0998268  99.5442610  55.7412335  68.8338721  99.7392686  57.2187705
  67.3248735  91.8342088  71.4764991  66.6489372  91.7336218  72.1467366
  68.1476369  91.6781302  71.9400988  59.0727594  98.0714025  64.0977506
  59.6581031  97.3257713  64.2305410  58.8752432  98.3817982  64.9814170
  61.9266249 101.1065272  59.1139948  61.2576625 101.5911400  58.6303988
  61.7879119 101.3534493  60.0283327  53.6645249  90.6419625  62.8181949
  53.7029348  90.1083216  63.6119067  53.1585542  90.1154831  62.1992926
  66.0671518 103.1409016  65.7122607  66.6189826 103.3040637  66.4771692
  66.4077711 103.7313454  65.0402632  61.0436011  85.4884166  66.3144491
  61.1077338  86.3498997  65.9021889  60.9803131  84.8758167  65.5816850
  60.5188284  87.5607298  69.9617526  61.1460322  87.1784376  70.5755050
  59.6616202  87.3421500  70.3273218  70.9182392  97.9670273  71.5671261
  71.4622296  98.5800232  71.0726216  70.3369237  98.5249852  72.0838274
  57.2953826  89.3683727  55.8935880  57.5907267  88.4594406  55.8402934
  56.3941862  89.3471467  55.5716883  69.2039905 101.0890991  62.6986289
  69.0791045 100.2880731  62.1897234  69.8618996 101.5837185  62.2100259
  60.8248073  87.4439724  61.8763429  60.1034659  88.0575692  61.7370902
  61.6141329  87.9797489  61.7980075  71.2674814  98.8900011  64.3265839
  70.3205149  98.7705363  64.2544166  71.6157587  98.0022510  64.4092100
  63.6274387  84.7794150  68.1504081  64.1508789  85.0256447  68.9130390
  63.4086720  85.6114185  67.7307218  59.0241668  87.0497825  56.0175206
  58.6954374  86.1695204  55.8350312  59.3781039  86.9945494  56.9051595
  68.2721247  98.6852728  60.5270191  68.1246209  97.7569435  60.7077761
  69.0974740  98.7072818  60.0427266  62.1383491  87.3370795  56.3850683
  62.4779564  87.8656716  55.6629292  62.5855612  87.6751201  57.1609250
  71.8755369  99.5081286  61.6135064  72.8001916  99.3024148  61.4759515
  71.7070672  99.2597688  62.5224405  64.8326932  85.7207845  65.8353751
  64.4923752  84.9215659  66.2374431  64.1265938  86.0209556  65.2630585
  65.4843404  82.8057158  64.2881074  66.3069473  82.3317636  64.1659965
  65.7281467  83.5847642  64.7879761  64.1251638  85.8345416  54.5843976
  64.8460001  86.2126669  54.0807693  63.5016942  86.5534293  54.6878954
  68.2682761  86.5390565  55.5202308  68.4846376  87.4215203  55.2191137
  67.7876828  86.1476779  54.7907950  63.0081983  89.4976279  62.0973053
  62.8626563  89.8116582  62.9897335  62.5307186  90.1161179  61.5443952
  64.8678365  86.4878827  62.1453943  64.8539934  85.5919920  61.8086241
  65.5850793  86.4949490  62.7792229  66.7204496  86.9216167  64.1907070
  66.4622274  87.8433237  64.1891400  66.1889536  86.5246601  64.8807534
  71.6650685 100.0266954  56.9697155  71.8387562  99.4613376  56.2171008
  72.1579576 100.8267849  56.7876645  57.4827645  92.0381623  65.0360714
  56.9381113  92.8141431  65.1680989  58.3606995  92.3852427  64.8779836
  64.2715261  85.3693207  57.4141513  64.3931173  84.4409853  57.6132400
  63.9817304  85.3831893  56.5019828  67.1406452  83.0548117  60.5508233
  67.1628149  83.1187450  59.5960212  67.5574511  82.2152626  60.7448739
  77.5190076  92.7903377  58.5887455  77.9621222  92.0410702  58.1906578
  76.6416586  92.7813513  58.2061187  72.6525857  99.3433718  54.0694054
  73.3476762  99.9640411  54.2881368  72.9949007  98.4929069  54.3446432
  58.2693667  91.1651519  67.9290871  57.5275403  91.3134155  68.5155501
  57.9486411  91.4259785  67.0657620  74.5517280  96.7933424  55.5981384
  75.0768605  97.1320697  54.8730704  74.4639633  95.8580439  55.4144519
  66.2137329 100.7067497  67.7271261  66.5224456 100.4616644  68.5993961
  67.0112811 100.9114136  67.2390131  66.2357941 102.8605407  59.9576638
  65.7962932 102.3681786  60.6509494  66.9866058 102.3178375  59.7168713
  58.7150280  99.0516948  59.9601266  59.5408300  98.7520720  59.5799909
  58.3644332  98.2824570  60.4091054  63.6831813  98.4043416  62.0298939
  63.0611823  97.7414121  61.7301167  64.3536680  98.4304548  61.3472587
  56.9158885  96.9703274  60.9190199  56.0790794  96.5425449  60.7374201
  56.8882531  97.1635718  61.8560990  63.7556341  86.8825204  71.6231445
  63.8044496  87.7587327  71.2409215  64.2978855  86.3402597  71.0503089
  74.2411187  97.4266327  70.9032582  73.4506730  97.4090466  70.3637082
  74.0044541  97.9654621  71.6581619  74.3609062  94.2758794  68.2165311
  74.4107067  94.1108801  69.1580834  74.2522985  93.4086053  67.8263192
  63.2445320  96.9547340  55.5057400  63.3933441  97.6382804  54.8524073
  64.0511764  96.9352430  56.0206856  71.6512824  90.2589722  69.5324618
  72.5522687  90.1196187  69.2408615  71.7260798  90.4244177  70.4722795
  65.9855629  87.6356577  68.3777804  65.1158939  87.9290143  68.1060392
  66.2215110  88.2197022  69.0985068  75.8627258  96.6955735  68.4607332
  75.5712067  97.0585716  69.2970793  75.2499390  95.9822744  68.2820665
  77.0622941  94.2608615  60.9809903  77.8969832  94.6998419  61.1447463
  77.1982070  93.7847268  60.1618148  74.1114447  91.8188350  66.9287390
  74.5868568  92.0115996  66.1206242  73.1880012  91.8747536  66.6830774
  60.9997953  92.9812517  56.5118469  60.7543995  92.0774847  56.7098679
  61.1693868  92.9829668  55.5697947  68.6894663  83.8536194  65.8943224
  69.2076607  84.5897220  65.5689713  68.3349796  84.1600187  66.7289983
  60.2693601  88.7140875  54.0104630  59.5762846  88.7885230  53.3544666
  60.0245353  87.9501218  54.5326147  68.9407257  80.2736476  61.4144121
  69.2209011  79.6059665  62.0404547  69.7257864  80.4665572  60.9018785
  66.7440726  99.4495470  52.9769147  66.1714693 100.0685657  52.5239619
  67.3173519  99.9994832  53.5109069  72.8116116  88.6954110  65.1615696
  73.7633539  88.7952208  65.1827920  72.6419566  87.9032379  65.6713780
  70.8330495  85.7809693  65.3475097  70.2380427  86.0614706  64.6521586
  70.5480192  86.2703594  66.1191838  69.9637986  99.7332620  54.1077730
  70.8968659  99.6678182  54.3110605  69.8761198 100.5688887  53.6492262
  72.5926002  99.0498490  51.0681677  72.5139634  98.7158354  51.9617435
  73.4135669  99.5420258  51.0673149  75.2904193  91.9160230  64.2757996
  75.2580514  90.9776230  64.4617680  75.9004817  91.9944266  63.5423821
  67.1287524  90.7856283  50.3185200  68.0746629  90.6562491  50.3873618
  66.7501769  90.0470945  50.7954628  75.4398682  88.7071273  64.3216279
  74.9237731  87.9229730  64.1346208  76.3238630  88.3789990  64.4862798
  73.1009409  82.4512289  60.2812092  72.9034230  82.1427377  61.1655424
  73.7109114  83.1773928  60.4110021  81.1080743  92.9776237  63.4164032
  81.8384132  92.7161525  63.9771736  80.4987689  92.2404959  63.4566100
  79.1896040  91.1184099  64.0138484  78.4629204  90.9840064  63.4054975
  78.7743327  91.4260928  64.8195202  67.0126217  94.8374029  71.7785857
  67.9329226  95.0152628  71.9725903  66.9775800  93.8930074  71.6265556
  65.3130441  88.7106259  50.2540085  64.4061897  88.4139372  50.3302799
  65.5906422  88.4136077  49.3874371  56.2308382  90.0312623  60.7039131
  55.9111166  89.1777931  60.4113505  55.6841810  90.2461201  61.4597099
  60.0088289  92.7475064  64.4208638  60.2274299  93.6792171  64.4396672
  60.4214063  92.3883038  65.2063442  66.9292507  83.2543149  56.4084326
  66.1193235  82.9090234  56.7839572  67.6176924  82.9450693  56.9971938
  68.8583055  82.3321196  58.0308623  69.4114094  82.7516649  58.6898646
  69.0953142  81.4056944  58.0731579  64.8816155  88.3208269  73.8111387
  64.7812882  89.2702626  73.7423478  64.6637697  87.9926508  72.9387457
  64.0829226  85.5693194  50.3952064  64.9448390  85.8948093  50.6547882
  64.2679570  84.7824690  49.8825130  56.0996642  93.6515534  62.6732253
  55.4060113  93.2369487  62.1602207  56.8469633  93.6936071  62.0765672
  72.2361863  84.4421721  57.5387287  71.6560532  85.1006525  57.1565340
  71.9697795  83.6199065  57.1274705  70.6865429  83.8426778  59.7408607
  71.1865207  83.9543313  58.9322926  71.3301037  83.5387831  60.3809416
  64.7447425  91.7505408  72.6276448  64.2614506  92.5505768  72.8340337
  64.8308364  91.7613353  71.6743892  58.0133384  93.5833788  60.5498268
  57.9904072  93.6821475  59.5980151  58.3234021  94.4298939  60.8715434
  60.6720762  95.6409943  64.6644882  61.6264016  95.6093885  64.5974814
  60.4733286  95.1800567  65.4795108  61.2620144  94.2111059  67.2315680
  62.0813033  94.7055138  67.2550517  61.5356952  93.2943027  67.2033247
  71.0186741  86.6021811  56.5943635  70.1312596  86.8871462  56.3763830
  71.4340730  86.4415575  55.7470912  74.3701277  86.6268332  60.3097975
  75.1461667  87.1164785  60.5822591  73.6449411  87.0526386  60.7669844
  76.8073835  87.3395951  61.3671915  77.4018326  87.0991687  60.6565224
  76.8800419  86.6203082  61.9945452  59.0270991 101.1829562  61.6815080
  58.8925459 100.4229963  61.1153078  58.6103053 101.9070462  61.2143869
  70.1629954  96.3666486  50.6891655  70.8665804  96.5716488  51.3049311
  69.4392603  96.9343248  50.9540739  70.9927764  92.1176347  56.8093926
  70.9362966  92.5744899  55.9701558  71.5456107  91.3567032  56.6316768
  74.8032570  87.9066079  57.6344045  74.5469504  87.5062715  58.4652253
  74.1785438  88.6209873  57.5094184  79.1144908  90.6462152  60.1415336
  78.5544466  90.7155342  60.9146899  78.5088411  90.4703137  59.4214833
  62.1840117 102.0798879  61.8933523  62.0672501 103.0244312  61.7912213
  61.3632563 101.7772441  62.2819322  72.0716651  96.8049015  52.7390115
  72.9062255  96.3730214  52.5567590  71.9100994  96.6331029  53.6667010
  71.7262544  93.3081128  54.1046455  71.6711347  93.1425400  53.1634899
  71.1008599  94.0157161  54.2608644  56.5155059  88.5449193  67.9307877
  57.1613922  88.0348147  68.4195102  56.3072210  89.2817874  68.5051302
  69.0408451  95.6130040  73.4300018  69.9099610  95.7870692  73.0686652
  68.5615202  96.4324457  73.3075747  65.0358669  82.8089237  53.6831773
  65.0237339  83.7531077  53.8400044  65.9282091  82.6259383  53.3891234
  63.2094631 102.7327141  65.1089451  64.1121878 102.7650751  65.4255946
  62.9832001 101.8027592  65.1235787  64.9648233 101.4858128  61.7699530
  64.0143864 101.4859989  61.6563902  65.2680719 100.7390862  61.2535564
  68.8510789  79.4032014  57.9377710  68.0843184  78.8490501  58.0834392
  69.2621494  79.4753883  58.7991862  60.8552550  85.6916810  72.0282891
  61.7184011  85.3353615  72.2386216  60.2817960  85.3530705  72.7158295
  80.7000927 107.3218666  62.8345292  81.3379336 107.2025413  62.1308632
  80.5821769 108.2699510  62.8933244  77.5090633 107.2746094  62.7706817
  77.1709144 107.1587159  61.8827352  78.3780401 106.8737259  62.7507823
  73.3677449 109.1281571  58.7603708  72.8042314 109.0371508  57.9919996
  73.2529844 108.3081475  59.2406200  77.9910416 108.4280946  68.7293022
  77.9799057 108.0333744  67.8573526  78.1531055 107.6947019  69.3226794
  70.9141880 110.6232762  61.5987928  71.7063172 110.2823587  61.1834228
  71.1538531 110.7327737  62.5190082  78.9477007 112.7952538  54.0718173
  78.2964987 113.3806619  53.6852187  79.7421370 113.3258733  54.1313210
  72.8732634 109.8841676  54.4705307  73.6463510 109.3370663  54.3318183
  73.2258033 110.7485925  54.6819768  74.7117677 111.2118058  67.6772206
  74.4207543 112.1163689  67.5618873  75.3474661 111.2534585  68.3916276
  75.6373884 108.5894906  64.2673566  76.2337456 108.3650929  63.5530529
  75.6948855 107.8479652  64.8699014  75.2098912 106.0434342  52.1023757
  75.4624433 105.5215863  51.3407220  74.2723471 105.8800487  52.2050441
  80.2542195 105.0470120  59.9098500  81.0405284 104.6289543  59.5588917
  80.5180899 105.9516212  60.0780149  80.4252272 110.4842970  54.6087157
  79.7898105 110.5577597  55.3208062  80.0949679 111.0736569  53.9306236
  85.6550622 104.9845353  60.8131479  86.3875794 104.4144570  61.0469308
  84.8989978 104.5966954  61.2537984  74.9295201 107.9462448  54.3048132
  74.8131459 107.2707351  54.9729216  75.0397461 107.4594822  53.4880285
  77.2726742 107.4072595  58.0094821  76.9084949 106.8803216  58.7207743
  78.1293858 107.0171064  57.8361307  83.1776042  98.6966927  65.2726087
  82.8459367  99.5662338  65.0487302  82.5821656  98.3803211  65.9520118
  76.9132229 102.4362494  53.0056170  77.0806631 103.3042731  53.3726641
  76.7229398 102.5989776  52.0817459  79.6707562 110.8979473  64.6722000
  79.3708285 111.8004512  64.5637807  79.3258622 110.6311656  65.5243153
  73.1220044 107.3493270  60.7058705  72.1970540 107.2169484  60.9136396
  73.3704457 108.1287489  61.2028647  83.0704706 103.4162013  62.3519437
  82.1621583 103.3477422  62.0578198  83.0192302 103.8933958  63.1801263
  76.8921450 104.8920152  53.9902837  76.7721075 105.3377203  54.8288317
  76.1974038 105.2405470  53.4316375  70.4828855 106.9926544  61.5402494
  70.6121236 107.2461023  62.4541905  69.8026306 107.5854252  61.2207149
  74.6528342 117.6623794  57.6392968  74.5752372 118.6131619  57.7181448
  74.0489985 117.3169666  58.2967894  77.1445572 104.8351659  70.2954335
  76.3678906 105.3945579  70.2857199  77.7836135 105.3208442  70.8169205
  84.9366352 101.6178452  64.1297311  84.2940732 101.9110985  63.4837106
  84.4321281 101.5031372  64.9350508  82.5906516 105.3641625  54.8183171
  83.5024372 105.5969012  54.6430868  82.0816163 105.9478669  54.2558249
  75.3991944 107.6437112  69.8572302  76.1406628 108.1822156  69.5807125
  74.6928929 108.2703401  70.0143853  80.8747284 109.7866253  68.4544463
  81.2830640 109.3448663  67.7099096  80.1524545 109.2118880  68.7078656
  77.2278354 104.7238860  65.8278020  78.0739549 105.1478273  65.9712669
  77.1676991 104.0672484  66.5216583  81.1976098 110.3467444  62.2096752
  80.5684961 110.5113158  61.5072820  80.8101760 110.7609053  62.9807716
  85.0765330 111.2821881  59.5641116  84.3916368 111.6620783  59.0138149
  85.1609179 111.8917208  60.2973064  80.3777799 102.3843228  67.4859194
  80.1338731 103.1385289  66.9493469  80.6537729 102.7628576  68.3206441
  82.3316262 108.9281840  66.1636459  82.5433157 109.5713600  65.4870840
  82.2846010 108.0944157  65.6958389  79.9342491 101.5399661  63.0673031
  79.0726970 101.8380915  63.3589769  79.9604925 101.7570060  62.1354064
  76.7504060 110.0841852  59.4746837  77.2142406 110.3629555  58.6851460
  76.4860858 109.1825296  59.2919928  73.6428141 109.6313333  62.4126600
  74.2129498 110.0600602  61.7744085  74.2336253 109.3495918  63.1110786
  75.6872946 106.2065004  56.2836402  76.3896989 106.6586048  56.7510329
  75.3553575 105.5648823  56.9116295  74.1353308 104.7976761  70.6587612
  73.5051968 105.4793041  70.8923009  74.0289396 104.6859842  69.7140750
  69.4298280 104.4648557  61.5853536  68.6397334 104.7206085  61.1093646
  69.9209527 105.2796894  61.6905576  83.4462090 111.8053796  64.3358817
  84.2679533 111.4033983  64.0541498  83.4424493 111.7022030  65.2874932
  71.3813025 104.8293136  58.5437013  70.5844189 104.9411830  59.0620508
  71.1538618 105.1679788  57.6777903  77.2118693 111.3537839  66.4919527
  77.2763126 111.8158246  67.3277699  76.5029617 110.7235204  66.6201837
  67.7135983 104.7179047  64.0168527  67.9644021 105.6026057  64.2826103
  68.2495531 104.5383649  63.2443618  91.5368083 108.1492544  60.6843788
  90.7831791 107.5799942  60.5287793  91.6715624 108.1155209  61.6314423
  76.9266711 113.0205947  56.3598508  76.7912386 113.8657482  56.7883355
  77.4676523 113.2225224  55.5964441  73.4134050  99.0997526  73.0212863
  73.0200996  98.5463725  73.6960507  74.2300191  99.4108105  73.4119380
  70.3796108 110.5381385  56.9326433  70.8920629 111.3324635  57.0831997
  71.0318821 109.8407675  56.8660034  72.1890993 113.6547141  59.0149186
  72.3657621 114.5765106  58.8270170  72.9847826 113.3405560  59.4443566
  76.3302011 100.5155406  70.6133119  77.0711725 101.1162559  70.5337582
  76.5619934  99.7733043  70.0551162  71.4743349 105.7011773  68.8911349
  71.3596865 104.7997030  69.1918448  70.6187867 105.9475470  68.5396166
  78.5535187 113.6429513  70.4898850  78.1099041 112.8565892  70.1719754
  79.2152401 113.8308664  69.8242740  73.3122308 115.1725315  65.0159528
  73.8629733 115.0442378  64.2436522  72.4733784 115.4720204  64.6654421
  80.6516425 113.9232313  68.5180251  80.6334901 114.7441194  68.0260520
  81.5736345 113.7986388  68.7430392  77.1089479 111.4376443  69.3603759
  77.6417816 110.6764731  69.1303067  76.5803560 111.1450094  70.1027914
  80.2759174  96.5436508  64.8897401  79.9323444  97.4338150  64.8136512
  80.6438137  96.3538166  64.0266986  68.3445025 108.8670039  57.7086003
  69.1820247 109.2767047  57.4919711  68.5223293 107.9269481  57.6786197
  80.2409457 106.5345120  53.3969836  79.7256080 107.3049724  53.6358224
  79.9686765 105.8610256  54.0202898  77.8256568 101.3794820  58.4555074
  76.9698164 100.9901671  58.2760713  78.2383520 101.4586781  57.5954860
  79.3555715  98.9141164  62.8546634  78.8520510  98.8771299  62.0414440
  79.6486322  99.8233906  62.9143291  75.5998601  98.9979893  61.8612816
  76.4651597  98.8022702  61.5018705  75.6676109  98.7690245  62.7882173
  85.2143731 109.2877474  55.3323010  84.4373174 108.9488634  54.8878172
  85.8935212 109.2930097  54.6577975  80.0295760 104.4072212  55.2229617
  79.7245896 104.7218361  56.0739760  80.9826202 104.4853632  55.2656950
  78.4742192 110.5662435  56.8722571  77.9463554 109.8315195  56.5595809
  77.9729695 111.3437111  56.6262540  83.4535038 108.7611455  61.9889618
  82.7958713 109.4510717  62.0769746  84.2575437 109.1507887  62.3323604
  73.2060920 101.2282101  59.2329183  73.7804672 101.0057283  58.5002376
  73.7931902 101.2970796  59.9857784  82.2640497 107.1155828  60.0393559
  82.7772379 107.7485820  60.5415269  82.9141721 106.5157024  59.6736919
  73.5330507 103.2586562  53.2525068  72.6967819 103.5961249  53.5734343
  73.3935276 103.1235542  52.3152205  75.5083587  98.1023350  57.9604252
  74.8548000  97.7872367  57.3360867  75.4664062  97.4799091  58.6864075
  76.6194792 108.3842645  49.8757544  75.7121854 108.1531899  50.0748693
  77.1165824 107.5880265  50.0631526  79.5262871 117.0940152  52.7954230
  78.8524570 117.3971849  53.4039188  79.9128693 117.8969233  52.4459688
  78.7421328 104.5905284  62.2851900  77.8243889 104.8120231  62.1273588
  79.1581471 104.6651594  61.4263607  79.5256375 105.9896699  57.4154580
  80.2728194 106.5018097  57.1061702  79.7947965 105.6680752  58.2758974
  77.7983026 108.4855240  54.3981534  76.8894245 108.2014273  54.4954004
  77.8278109 108.9054319  53.5384841  83.0302293 112.0961830  58.1672702
  82.5764620 111.2552740  58.2237892  82.3996260 112.7323228  58.5047482
  81.9735213 103.0253816  59.3973369  81.2357969 102.5131202  59.7283612
  82.2261986 102.5854197  58.5856646  81.4735232 113.9338326  59.1022520
  81.7658207 114.4943383  58.3834886  81.9833853 114.2266887  59.8575679
  82.0746840  95.8030068  59.9915139  82.3805717  94.9427431  59.7041054
  82.7999445  96.3947688  59.7914133  68.3671196 106.2060754  58.3796737
  68.1695596 105.6130115  57.6547803  67.8117860 105.9012964  59.0972675
  76.3467920 106.0983861  60.4991330  76.4016529 105.1457697  60.4233806
  75.5359122 106.2543300  60.9832628  77.4959113 110.0263984  51.7369613
  77.0578543 109.3099843  51.2775250  78.2369554 110.2540099  51.1754704
  74.2860280 104.7160920  58.2581709  73.4728145 105.0155091  58.6646901
  74.7819274 104.3216609  58.9756191  76.4368858 114.7118677  60.1915973
  76.3945036 114.9379524  59.2624505  77.3531556 114.4782052  60.3401774
  79.8834491 105.1802745  67.0896602  80.2383879 105.4074218  67.9491068
  80.5306623 105.5121122  66.4673858  85.6132228 108.3021181  57.7945932
  85.4750127 108.4922777  56.8667121  85.2568447 109.0640564  58.2513983
  73.7774354 102.2879276  63.8742944  74.4173734 102.1468035  63.1765907
  72.9451885 102.0013789  63.4981546  85.6401608 110.3697708  62.8057203
  86.0738115 110.2772997  63.6540257  86.3533189 110.3455208  62.1677219
  74.5534658 111.5881706  59.9877936  75.3475257 111.0932027  59.7860511
  73.8426351 111.0599570  59.6245642  79.3729503 113.9699802  64.3390304
  79.4266525 114.5390738  65.1068020  78.5044284 114.1401687  63.9744341
  70.8617422 105.7324788  56.0637689  69.9315010 105.6709244  56.2807651
  70.9574894 105.2100741  55.2674330  70.7802971 102.2579601  58.6515930
  71.0409788 103.1724934  58.5425091  71.6020143 101.7904044  58.8012543
  72.2527896 103.6717358  65.8214755  72.9250950 103.4634720  65.1727404
  71.4257683 103.4739444  65.3819987  86.5017157 110.4121408  65.3390088
  86.6953048 111.3167219  65.5849363  86.4017776 109.9528828  66.1728673
  78.1553468 100.2979299  67.8380416  77.5081383 100.9969249  67.7444892
  78.9254484 100.7315443  68.2056664  81.5632266 110.5628151  70.9130969
  81.4117773 110.3338703  69.9961053  81.5536946 111.5198753  70.9262314
  78.3317603 108.1360064  65.8977235  79.2609663 108.2871224  65.7246203
  77.9108633 108.2244085  65.0425882  77.1305934 112.1610728  63.6675773
  76.9917020 111.7929513  64.5401711  76.3420531 112.6758368  63.4959731
  77.7254086 117.2619825  55.0101310  77.9005842 116.7907868  55.8246932
  77.0386874 117.8885591  55.2382570  78.6811149 111.5392331  61.0564611
  78.3460982 111.4993101  61.9522261  78.1815095 110.8737047  60.5835021
  72.6555393 106.9459961  66.5817192  72.5175191 106.2140200  67.1828731
  73.5660317 106.8568861  66.3001380  81.6170341 108.8848365  51.3301671
  80.9999512 108.1595194  51.2334723  81.1486830 109.6457726  50.9868745
  75.2837694 106.6579920  66.0700872  75.9937313 106.0173113  66.0287490
  75.2407002 106.9092815  66.9927052  83.2724473 113.5947274  68.9907451
  83.2137019 112.9106494  68.3238034  83.6743991 114.3366264  68.5388077
  73.9966628 103.6445138  67.8896511  73.4603985 103.1935877  68.5418108
  73.4083336 103.7791047  67.1466976  72.2915172 120.4109188  61.7841170
  72.5311770 121.0427712  62.4620188  71.4484368 120.0597228  62.0706529
  73.4068887 103.1033790  50.4522975  72.5298353 102.9822591  50.0885221
  73.8826640 102.3119868  50.2001863  83.2741880 111.5586858  67.2221431
  82.3868659 111.2212780  67.3447829  83.8440431 110.8269889  67.4590196
  64.9271027 107.8910949  60.5464482  65.6142067 107.5772679  59.9585497
  64.7719156 108.7952314  60.2731733  69.7305749 102.7801146  64.9749506
  69.6463938 102.1726816  64.2399916  68.9088456 103.2710164  64.9759002
  76.8043033 116.2188310  64.1882674  76.7313205 117.0243282  64.7001978
  76.3620427 116.4180276  63.3630695  76.5932813 115.4560080  57.6985495
  75.8100335 115.9981760  57.7923720  77.2925558 115.9734060  58.0979737
  79.9029463 101.2654710  60.3419701  80.3998163 100.5124672  60.0220771
  79.1316445 101.3019026  59.7762910  87.7559221 106.9695075  61.9837992
  87.7449097 107.8519791  61.6131925  86.8876600 106.6166626  61.7892529
  79.2641717 116.1175144  66.3440832  79.9769689 116.7522609  66.2716734
  78.7731746 116.2139010  65.5280834  80.9859244 110.0226397  57.9158124
  80.0515523 110.1427859  57.7462828  81.1635912 109.1198864  57.6518134
  76.4864432 103.4072093  60.0691385  76.1162219 102.8543133  60.7572291
  76.9823524 102.8030226  59.5166385  84.3731795 105.8643716  58.4508158
  84.8392247 106.6971708  58.3768461  84.8239296 105.3988698  59.1553417
  74.3153630 113.8669588  67.1646403  75.0163090 114.5006071  67.3175797
  73.8448745 114.2084319  66.4042043  82.4408026 112.2087537  55.4494310
  82.7167870 112.0944132  56.3588184  81.5712525 111.8105022  55.4106483
  82.3448458  98.2324303  62.4899060  81.4311538  98.4628530  62.6581267
  82.7741559  98.3162747  63.3413092  82.1154916 106.4214195  64.9898954
  81.4626367 106.6690102  64.3351406  82.4935296 105.6078333  64.6561431
  79.0762090 116.4573888  59.0927124  79.2584485 115.6395544  59.5554876
  79.8995076 116.6741580  58.6552014  79.4104256 115.3842073  56.3542172
  79.9392022 114.8734528  55.7412335  79.6732475 115.0684604  57.2187705
  78.1642489 107.1634006  71.4764991  77.4883126 107.0628135  72.1467366
  78.9870123 107.0073220  71.9400988  69.9121349 113.4005943  64.0977506
  70.4974785 112.6549631  64.2305410  69.7146187 113.7109899  64.9814170
  72.7660004 116.4357190  59.1139948  72.0970379 116.9203318  58.6303988
  72.6272873 116.6826410  60.0283327  64.5039003 105.9711543  62.8181949
  64.5423103 105.4375134  63.6119067  63.9979296 105.4446748  62.1992926
  76.9065272 118.4700934  65.7122607  77.4583580 118.6332555  66.4771692
  77.2471466 119.0605371  65.0402632  71.8829766 100.8176083  66.3144491
  71.9471092 101.6790914  65.9021889  71.8196886 100.2050085  65.5816850
  71.3582038 102.8899216  69.9617526  71.9854077 102.5076293  70.5755050
  70.5009957 102.6713418  70.3273218  81.7576147 113.2962191  71.5671261
  82.3016051 113.9092149  71.0726216  81.1762992 113.8541769  72.0838274
  68.1347581 104.6975645  55.8935880  68.4301022 103.7886323  55.8402934
  67.2335617 104.6763384  55.5716883  80.0433660 116.4182909  62.6986289
  79.9184799 115.6172649  62.1897234  80.7012751 116.9129102  62.2100259
  71.6641828 102.7731642  61.8763429  70.9428414 103.3867609  61.7370902
  72.4535084 103.3089406  61.7980075  82.1068568 114.2191929  64.3265839
  81.1598904 114.0997280  64.2544166  82.4551341 113.3314427  64.4092100
  74.4668141 100.1086068  68.1504081  74.9902543 100.3548365  68.9130390
  74.2480475 100.9406103  67.7307218  69.8635422 102.3789743  56.0175206
  69.5348129 101.4987122  55.8350312  70.2174793 102.3237411  56.9051595
  79.1115001 114.0144645  60.5270191  78.9639964 113.0861353  60.7077761
  79.9368495 114.0364736  60.0427266  72.9777246 102.6662712  56.3850683
  73.3173318 103.1948634  55.6629292  73.4249366 103.0043119  57.1609250
  82.7149123 114.8373204  61.6135064  83.6395671 114.6316065  61.4759515
  82.5464427 114.5889605  62.5224405  75.6720686 101.0499763  65.8353751
  75.3317507 100.2507576  66.2374431  74.9659693 101.3501474  65.2630585
  76.3237158  98.1349076  64.2881074  77.1463228  97.6609554  64.1659965
  76.5675222  98.9139559  64.7879761  74.9645393 101.1637334  54.5843976
  75.6853755 101.5418587  54.0807693  74.3410697 101.8826211  54.6878954
  79.1076516 101.8682483  55.5202308  79.3240130 102.7507121  55.2191137
  78.6270583 101.4768696  54.7907950  73.8475737 104.8268196  62.0973053
  73.7020318 105.1408499  62.9897335  73.3700941 105.4453097  61.5443952
  75.7072120 101.8170744  62.1453943  75.6933689 100.9211838  61.8086241
  76.4244548 101.8241408  62.7792229  77.5598251 102.2508084  64.1907070
  77.3016028 103.1725155  64.1891400  77.0283291 101.8538519  64.8807534
  82.5044439 115.3558872  56.9697155  82.6781317 114.7905294  56.2171008
  82.9973331 116.1559766  56.7876645  68.3221399 107.3673541  65.0360714
  67.7774867 108.1433349  65.1680989  69.2000749 107.7144345  64.8779836
  75.1109016 100.6985124  57.4141513  75.2324927  99.7701771  57.6132400
  74.8211058 100.7123810  56.5019828  77.9800206  98.3840035  60.5508233
  78.0021903  98.4479368  59.5960212  78.3968265  97.5444544  60.7448739
  88.3583831 108.1195294  58.5887455  88.8014977 107.3702620  58.1906578
  87.4810341 108.1105431  58.2061187  83.4919612 114.6725636  54.0694054
  84.1870516 115.2932329  54.2881368  83.8342762 113.8220987  54.3446432
  69.1087421 106.4943437  67.9290871  68.3669157 106.6426072  68.5155501
  68.7880165 106.7551703  67.0657620  85.3911035 112.1225341  55.5981384
  85.9162359 112.4612614  54.8730704  85.3033388 111.1872357  55.4144519
  77.0531084 116.0359415  67.7271261  77.3618210 115.7908562  68.5993961
  77.8506566 116.2406054  67.2390131  77.0751696 118.1897325  59.9576638
  76.6356686 117.6973703  60.6509494  77.8259813 117.6470292  59.7168713
  69.5544035 114.3808866  59.9601266  70.3802055 114.0812637  59.5799909
  69.2038087 113.6116488  60.4091054  74.5225568 113.7335334  62.0298939
  73.9005577 113.0706039  61.7301167  75.1930435 113.7596466  61.3472587
  67.7552640 112.2995192  60.9190199  66.9184548 111.8717366  60.7374201
  67.7276285 112.4927635  61.8560990  74.5950095 102.2117122  71.6231445
  74.6438251 103.0879245  71.2409215  75.1372610 101.6694515  71.0503089
  85.0804941 112.7558245  70.9032582  84.2900485 112.7382384  70.3637082
  84.8438296 113.2946539  71.6581619  85.2002816 109.6050711  68.2165311
  85.2500821 109.4400719  69.1580834  85.0916739 108.7377971  67.8263192
  74.0839075 112.2839257  55.5057400  74.2327195 112.9674722  54.8524073
  74.8905518 112.2644347  56.0206856  82.4906578 105.5881640  69.5324618
  83.3916441 105.4488104  69.2408615  82.5654553 105.7536094  70.4722795
  76.8249384 102.9648494  68.3777804  75.9552693 103.2582060  68.1060392
  77.0608864 103.5488939  69.0985068  86.7021013 112.0247653  68.4607332
  86.4105821 112.3877634  69.2970793  86.0893144 111.3114661  68.2820665
  87.9016695 109.5900533  60.9809903  88.7363587 110.0290337  61.1447463
  88.0375824 109.1139186  60.1618148  84.9508201 107.1480268  66.9287390
  85.4262323 107.3407914  66.1206242  84.0273767 107.2039453  66.6830774
  71.8391708 108.3104435  56.5118469  71.5937750 107.4066765  56.7098679
  72.0087622 108.3121585  55.5697947  79.5288418  99.1828111  65.8943224
  80.0470361  99.9189138  65.5689713  79.1743550  99.4892104  66.7289983
  71.1087355 104.0432792  54.0104630  70.4156600 104.1177147  53.3544666
  70.8639107 103.2793136  54.5326147  79.7801012  95.6028394  61.4144121
  80.0602766  94.9351583  62.0404547  80.5651619  95.7957489  60.9018785
  77.5834480 114.7787388  52.9769147  77.0108447 115.3977575  52.5239619
  78.1567274 115.3286749  53.5109069  83.6509870 104.0246028  65.1615696
  84.6027293 104.1244125  65.1827920  83.4813321 103.2324296  65.6713780
  81.6724250 101.1101611  65.3475097  81.0774182 101.3906624  64.6521586
  81.3873946 101.5995512  66.1191838  80.8031740 115.0624538  54.1077730
  81.7362413 114.9970099  54.3110605  80.7154953 115.8980805  53.6492262
  83.4319757 114.3790408  51.0681677  83.3533388 114.0450272  51.9617435
  84.2529424 114.8712176  51.0673149  86.1297948 107.2452147  64.2757996
  86.0974268 106.3068148  64.4617680  86.7398572 107.3236184  63.5423821
  77.9681279 106.1148200  50.3185200  78.9140384 105.9854408  50.3873618
  77.5895524 105.3762862  50.7954628  86.2792436 104.0363191  64.3216279
  85.7631485 103.2521647  64.1346208  87.1632385 103.7081907  64.4862798
  83.9403163  97.7804206  60.2812092  83.7427984  97.4719295  61.1655424
  84.5502869  98.5065845  60.4110021  91.9474498 108.3068154  63.4164032
  92.6777886 108.0453442  63.9771736  91.3381443 107.5696876  63.4566100
  90.0289795 106.4476017  64.0138484  89.3022958 106.3131982  63.4054975
  89.6137082 106.7552845  64.8195202  77.8519971 110.1665947  71.7785857
  78.7722981 110.3444546  71.9725903  77.8169554 109.2221992  71.6265556
  76.1524196 104.0398177  50.2540085  75.2455651 103.7431289  50.3302799
  76.4300177 103.7427995  49.3874371  67.0702136 105.3604540  60.7039131
  66.7504921 104.5069848  60.4113505  66.5235565 105.5753118  61.4597099
  70.8482044 108.0766981  64.4208638  71.0668054 109.0084089  64.4396672
  71.2607818 107.7174956  65.2063442  77.7686262  98.5835066  56.4084326
  76.9586990  98.2382151  56.7839572  78.4570679  98.2742610  56.9971938
  79.6976810  97.6613113  58.0308623  80.2507849  98.0808567  58.6898646
  79.9346896  96.7348861  58.0731579  75.7209909 103.6500187  73.8111387
  75.6206636 104.5994544  73.7423478  75.5031451 103.3218426  72.9387457
  74.9222981 100.8985112  50.3952064  75.7842145 101.2240010  50.6547882
  75.1073325 100.1116608  49.8825130  66.9390396 108.9807452  62.6732253
  66.2453868 108.5661404  62.1602207  67.6863387 109.0227988  62.0765672
  83.0755617  99.7713638  57.5387287  82.4954286 100.4298442  57.1565340
  82.8091550  98.9490983  57.1274705  81.5259183  99.1718696  59.7408607
  82.0258962  99.2835231  58.9322926  82.1694791  98.8679749  60.3809416
  75.5841179 107.0797326  72.6276448  75.1008261 107.8797686  72.8340337
  75.6702118 107.0905271  71.6743892  68.8527139 108.9125705  60.5498268
  68.8297827 109.0113393  59.5980151  69.1627775 109.7590856  60.8715434
  71.5114517 110.9701860  64.6644882  72.4657770 110.9385803  64.5974814
  71.3127040 110.5092484  65.4795108  72.1013899 109.5402977  67.2315680
  72.9206788 110.0347055  67.2550517  72.3750707 108.6234945  67.2033247
  81.8580495 101.9313729  56.5943635  80.9706350 102.2163379  56.3763830
  82.2734484 101.7707492  55.7470912  85.2095031 101.9560250  60.3097975
  85.9855421 102.4456702  60.5822591  84.4843165 102.3818304  60.7669844
  87.6467590 102.6687869  61.3671915  88.2412081 102.4283605  60.6565224
  87.7194174 101.9495000  61.9945452  69.8664746 116.5121480  61.6815080
  69.7319213 115.7521881  61.1153078  69.4496808 117.2362380  61.2143869
  81.0023709 111.6958403  50.6891655  81.7059559 111.9008406  51.3049311
  80.2786357 112.2635165  50.9540739  81.8321519 107.4468265  56.8093926
  81.7756720 107.9036816  55.9701558  82.3849861 106.6858949  56.6316768
  85.6426325 103.2357997  57.6344045  85.3863259 102.8354632  58.4652253
  85.0179193 103.9501791  57.5094184  89.9538663 105.9754070  60.1415336
  89.3938221 106.0447259  60.9146899  89.3482166 105.7995054  59.4214833
  73.0233871 117.4090797  61.8933523  72.9066256 118.3536229  61.7912213
  72.2026318 117.1064359  62.2819322  82.9110406 112.1340933  52.7390115
  83.7456010 111.7022131  52.5567590  82.7494749 111.9622946  53.6667010
  82.5656298 108.6373046  54.1046455  82.5105102 108.4717317  53.1634899
  81.9402353 109.3449079  54.2608644  67.3548813 103.8741110  67.9307877
  68.0007677 103.3640064  68.4195102  67.1465964 104.6109792  68.5051302
  79.8802205 110.9421958  73.4300018  80.7493365 111.1162610  73.0686652
  79.4008957 111.7616375  73.3075747  75.8752424  98.1381155  53.6831773
  75.8631093  99.0822995  53.8400044  76.7675845  97.9551300  53.3891234
  74.0488386 118.0619059  65.1089451  74.9515632 118.0942669  65.4255946
  73.8225756 117.1319510  65.1235787  75.8041988 116.8150045  61.7699530
  74.8537619 116.8151907  61.6563902  76.1074474 116.0682780  61.2535564
  79.6904543  94.7323932  57.9377710  78.9236939  94.1782418  58.0834392
  80.1015248  94.8045800  58.7991862  71.6946304 101.0208727  72.0282891
  72.5577766 100.6645532  72.2386216  71.1211715 100.6822622  72.7158295
  91.5394681 122.6510584  62.8345292  92.1773091 122.5317331  62.1308632
  91.4215524 123.5991428  62.8933244  88.3484387 122.6038012  62.7706817
  88.0102899 122.4879077  61.8827352  89.2174155 122.2029177  62.7507823
  84.2071203 124.4573488  58.7603708  83.6436068 124.3663425  57.9919996
  84.0923598 123.6373393  59.2406200  88.8304170 123.7572864  68.7293022
  88.8192811 123.3625662  67.8573526  88.9924810 123.0238936  69.3226794
  81.7535635 125.9524680  61.5987928  82.5456927 125.6115505  61.1834228
  81.9932285 126.0619655  62.5190082  83.7126389 125.2133593  54.4705307
  84.4857265 124.6662580  54.3318183  84.0651788 126.0777843  54.6819768
  85.5511431 126.5409975  67.6772206  85.2601297 127.4455606  67.5618873
  86.1868416 126.5826503  68.3916276  86.4767638 123.9186824  64.2673566
  87.0731211 123.6942846  63.5530529  86.5342610 123.1771569  64.8699014
  86.0492667 121.3726259  52.1023757  86.3018187 120.8507781  51.3407220
  85.1117226 121.2092405  52.2050441  91.0935950 120.3762038  59.9098500
  91.8799039 119.9581461  59.5588917  91.3574654 121.2808130  60.0780149
  91.2646027 125.8134888  54.6087157  90.6291860 125.8869514  55.3208062
  90.9343433 126.4028487  53.9306236  96.4944377 120.3137271  60.8131479
  97.2269549 119.7436488  61.0469308  95.7383732 119.9258871  61.2537984
  85.7688955 123.2754365  54.3048132  85.6525214 122.5999269  54.9729216
  85.8791215 122.7886739  53.4880285  88.1120496 122.7364512  58.0094821
  87.7478704 122.2095133  58.7207743  88.9687612 122.3462981  57.8361307
  94.0169797 114.0258845  65.2726087  93.6853122 114.8954256  65.0487302
  93.4215410 113.7095129  65.9520118  87.7525983 117.7654412  53.0056170
  87.9200386 118.6334648  53.3726641  87.5623152 117.9281694  52.0817459
  90.5101317 126.2271391  64.6722000  90.2102040 127.1296430  64.5637807
  90.1652376 125.9603574  65.5243153  83.9613798 122.6785188  60.7058705
  83.0364294 122.5461402  60.9136396  84.2098211 123.4579407  61.2028647
  93.9098460 118.7453931  62.3519437  93.0015338 118.6769340  62.0578198
  93.8586056 119.2225876  63.1801263  87.7315204 120.2212070  53.9902837
  87.6114829 120.6669120  54.8288317  87.0367793 120.5697387  53.4316375
  81.3222609 122.3218461  61.5402494  81.4514990 122.5752940  62.4541905
  80.6420060 122.9146169  61.2207149  87.9839326 120.1643577  70.2954335
  87.2072660 120.7237497  70.2857199  88.6229889 120.6500360  70.8169205
  95.7760107 116.9470370  64.1297311  95.1334487 117.2402903  63.4837106
  95.2715035 116.8323290  64.9350508  93.4300270 120.6933543  54.8183171
  94.3418126 120.9260929  54.6430868  92.9209917 121.2770587  54.2558249
  86.2385698 122.9729030  69.8572302  86.9800383 123.5114074  69.5807125
  85.5322684 123.5995319  70.0143853  91.7141038 125.1158171  68.4544463
  92.1224394 124.6740581  67.7099096  90.9918300 124.5410798  68.7078656
  88.0672108 120.0530777  65.8278020  88.9133303 120.4770191  65.9712669
  88.0070746 119.3964402  66.5216583  92.0369853 125.6759361  62.2096752
  91.4078715 125.8405075  61.5072820  91.6495515 126.0900971  62.9807716
  91.2171553 117.7135146  67.4859194  90.9732485 118.4677206  66.9493469
  91.4931484 118.0920493  68.3206441  93.1710016 124.2573758  66.1636459
  93.3826911 124.9005518  65.4870840  93.1239764 123.4236075  65.6958389
  90.7736245 116.8691579  63.0673031  89.9120724 117.1672832  63.3589769
  90.7998680 117.0861978  62.1354064  87.5897815 125.4133769  59.4746837
  88.0536160 125.6921472  58.6851460  87.3254613 124.5117214  59.2919928
  84.4821896 124.9605251  62.4126600  85.0523253 125.3892519  61.7744085
  85.0730007 124.6787836  63.1110786  86.5266701 121.5356922  56.2836402
  87.2290744 121.9877965  56.7510329  86.1947329 120.8940741  56.9116295
  84.9747062 120.1268678  70.6587612  84.3445723 120.8084959  70.8923009
  84.8683150 120.0151760  69.7140750  80.2692035 119.7940474  61.5853536
  79.4791089 120.0498003  61.1093646  80.7603282 120.6088812  61.6905576
  82.2206780 120.1585054  58.5437013  81.4237943 120.2703748  59.0620508
  81.9932372 120.4971706  57.6777903  88.0512448 126.6829757  66.4919527
  88.1156880 127.1450164  67.3277699  87.3423371 126.0527122  66.6201837
  78.5529738 120.0470965  64.0168527  78.8037776 120.9317975  64.2826103
  79.0889286 119.8675566  63.2443618  87.7660465 128.3497864  56.3598508
  87.6306140 129.1949400  56.7883355  88.3070278 128.5517142  55.5964441
  84.2527805 114.4289444  73.0212863  83.8594750 113.8755643  73.6960507
  85.0693945 114.7400023  73.4119380  81.2189863 125.8673302  56.9326433
  81.7314383 126.6616553  57.0831997  81.8712575 125.1699593  56.8660034
  83.0284747 128.9839059  59.0149186  83.2051376 129.9057023  58.8270170
  83.8241581 128.6697478  59.4443566  87.1695766 115.8447323  70.6133119
  87.9105479 116.4454476  70.5337582  87.4013689 115.1024961  70.0551162
  82.3137104 121.0303690  68.8911349  82.1990619 120.1288948  69.1918448
  81.4581622 121.2767387  68.5396166  84.1516063 130.5017232  65.0159528
  84.7023488 130.3734296  64.2436522  83.3127539 130.8012121  64.6654421
  87.9483234 126.7668360  69.3603759  88.4811571 126.0056648  69.1303067
  87.4197315 126.4742012  70.1027914  91.1152929 111.8728426  64.8897401
  90.7717198 112.7630068  64.8136512  91.4831891 111.6830084  64.0266986
  79.1838779 124.1961957  57.7086003  80.0214001 124.6058965  57.4919711
  79.3617047 123.2561399  57.6786197  91.0803212 121.8637037  53.3969836
  90.5649835 122.6341642  53.6358224  90.8080520 121.1902173  54.0202898
  88.6650323 116.7086738  58.4555074  87.8091919 116.3193588  58.2760713
  89.0777274 116.7878699  57.5954860  90.1949469 114.2433081  62.8546634
  89.6914265 114.2063216  62.0414440  90.4880076 115.1525824  62.9143291
  86.4392355 114.3271811  61.8612816  87.3045352 114.1314620  61.5018705
  86.5069864 114.0982163  62.7882173  90.8689515 119.7364129  55.2229617
  90.5639650 120.0510279  56.0739760  91.8219957 119.8145549  55.2656950
  89.3135947 125.8954353  56.8722571  88.7857308 125.1607112  56.5595809
  88.8123449 126.6729029  56.6262540  84.0454674 116.5574019  59.2329183
  84.6198426 116.3349200  58.5002376  84.6325657 116.6262713  59.9857784
  93.1034251 122.4447746  60.0393559  93.6166133 123.0777738  60.5415269
  93.7535475 121.8448941  59.6736919  84.3724261 118.5878480  53.2525068
  83.5361574 118.9253167  53.5734343  84.2329031 118.4527460  52.3152205
  86.3477342 113.4315268  57.9604252  85.6941754 113.1164285  57.3360867
  86.3057816 112.8091008  58.6864075  87.4588547 123.7134563  49.8757544
  86.5515608 123.4823816  50.0748693  87.9559579 122.9172182  50.0631526
  89.5815082 119.9197201  62.2851900  88.6637644 120.1412148  62.1273588
  89.9975226 119.9943512  61.4263607  90.3650130 121.3188617  57.4154580
  91.1121949 121.8310014  57.1061702  90.6341720 120.9972670  58.2758974
  88.6376780 123.8147158  54.3981534  87.7287999 123.5306191  54.4954004
  88.6671864 124.2346236  53.5384841  92.8128967 118.3545733  59.3973369
  92.0751724 117.8423120  59.7283612  93.0655741 117.9146115  58.5856646
  92.9140594 111.1321985  59.9915139  93.2199471 110.2719349  59.7041054
  93.6393199 111.7239606  59.7914133  79.2064951 121.5352672  58.3796737
  79.0089350 120.9422033  57.6547803  78.6511615 121.2304882  59.0972675
  87.1861674 121.4275778  60.4991330  87.2410284 120.4749615  60.4233806
  86.3752876 121.5835217  60.9832628  88.3352868 125.3555901  51.7369613
  87.8972298 124.6391760  51.2775250  89.0763309 125.5832016  51.1754704
  85.1254034 120.0452838  58.2581709  84.3121900 120.3447009  58.6646901
  85.6213028 119.6508527  58.9756191  90.7228246 120.5094663  67.0896602
  91.0777634 120.7366136  67.9491068  91.3700377 120.8413039  66.4673858
  84.6168109 117.6171194  63.8742944  85.2567488 117.4759953  63.1765907
  83.7845639 117.3305707  63.4981546  85.3928413 126.9173624  59.9877936
  86.1869011 126.4223944  59.7860511  84.6820105 126.3891487  59.6245642
  81.7011176 121.0616706  56.0637689  80.7708764 121.0001161  56.2807651
  81.7968648 120.5392659  55.2674330  81.6196725 117.5871519  58.6515930
  81.8803543 118.5016852  58.5425091  82.4413898 117.1195961  58.8012543
  83.0921651 119.0009276  65.8214755  83.7644704 118.7926638  65.1727404
  82.2651437 118.8031362  65.3819987  88.9947223 115.6271217  67.8380416
  88.3475138 116.3261166  67.7444892  89.7648238 116.0607361  68.2056664
  89.1711357 123.4651982  65.8977235  90.1003417 123.6163141  65.7246203
  88.7502387 123.5536002  65.0425882  87.9699689 127.4902646  63.6675773
  87.8310774 127.1221430  64.5401711  87.1814285 128.0050286  63.4959731
  89.5204904 126.8684249  61.0564611  89.1854737 126.8285019  61.9522261
  89.0208850 126.2028965  60.5835021  83.4949148 122.2751879  66.5817192
  83.3568946 121.5432118  67.1828731  84.4054071 122.1860779  66.3001380
  92.4564096 124.2140283  51.3301671  91.8393266 123.4887111  51.2334723
  91.9880584 124.9749643  50.9868745  86.1231449 121.9871838  66.0700872
  86.8331067 121.3465030  66.0287490  86.0800757 122.2384733  66.9927052
  84.8360383 118.9737056  67.8896511  84.2997740 118.5227794  68.5418108
  84.2477091 119.1082965  67.1466976  84.2462641 118.4325707  50.4522975
  83.3692108 118.3114508  50.0885221  84.7220395 117.6411786  50.2001863
  75.7664782 123.2202867  60.5464482  76.4535821 122.9064597  59.9585497
  75.6112910 124.1244232  60.2731733  80.5699504 118.1093064  64.9749506
  80.4857693 117.5018733  64.2399916  79.7482210 118.6002082  64.9759002
  90.7423218 116.5946627  60.3419701  91.2391917 115.8416590  60.0220771
  89.9710199 116.6310944  59.7762910  91.8252998 125.3518314  57.9158124
  90.8909277 125.4719777  57.7462828  92.0029667 124.4490781  57.6518134
  87.3258186 118.7364010  60.0691385  86.9555974 118.1835051  60.7572291
  87.8217279 118.1322144  59.5166385  95.2125550 121.1935634  58.4508158
  95.6786002 122.0263625  58.3768461  95.6633050 120.7280615  59.1553417
  85.1547385 129.1961505  67.1646403  85.8556844 129.8297988  67.3175797
  84.6842500 129.5376237  66.4042043  93.1842212 113.5616221  62.4899060
  92.2705292 113.7920448  62.6581267  93.6135314 113.6454665  63.3413092
  92.9548671 121.7506113  64.9898954  92.3020121 121.9982020  64.3351406
  93.3329051 120.9370251  64.6561431  89.0036244 122.4925924  71.4764991
  88.3276881 122.3920053  72.1467366  89.8263878 122.3365137  71.9400988
  80.7515103 128.7297860  64.0977506  81.3368540 127.9841548  64.2305410
  80.5539941 129.0401817  64.9814170  83.6053758 131.7649108  59.1139948
  82.9364134 132.2495235  58.6303988  83.4666628 132.0118328  60.0283327
  75.3432758 121.3003461  62.8181949  75.3816857 120.7667051  63.6119067
  74.8373051 120.7738666  62.1992926  82.7223520 116.1468001  66.3144491
  82.7864847 117.0082832  65.9021889  82.6590640 115.5342003  65.5816850
  82.1975793 118.2191134  69.9617526  82.8247831 117.8368211  70.5755050
  81.3403711 118.0005335  70.3273218  78.9741335 120.0267563  55.8935880
  79.2694776 119.1178241  55.8402934  78.0729371 120.0055302  55.5716883
  82.5035582 118.1023559  61.8763429  81.7822168 118.7159527  61.7370902
  83.2928838 118.6381324  61.7980075  85.3061896 115.4377986  68.1504081
  85.8296298 115.6840282  68.9130390  85.0874229 116.2698021  67.7307218
  80.7029177 117.7081660  56.0175206  80.3741883 116.8279039  55.8350312
  81.0568548 117.6529329  56.9051595  83.8171000 117.9954630  56.3850683
  84.1567073 118.5240551  55.6629292  84.2643121 118.3335036  57.1609250
  86.5114441 116.3791681  65.8353751  86.1711261 115.5799494  66.2374431
  85.8053447 116.6793392  65.2630585  87.1630913 113.4640993  64.2881074
  87.9856982 112.9901471  64.1659965  87.4068976 114.2431477  64.7879761
  85.8039147 116.4929252  54.5843976  86.5247510 116.8710504  54.0807693
  85.1804451 117.2118129  54.6878954  89.9470270 117.1974401  55.5202308
  90.1633884 118.0799039  55.2191137  89.4664337 116.8060614  54.7907950
  84.6869491 120.1560114  62.0973053  84.5414072 120.4700417  62.9897335
  84.2094695 120.7745014  61.5443952  86.5465874 117.1462662  62.1453943
  86.5327443 116.2503755  61.8086241  87.2638302 117.1533326  62.7792229
  88.3992005 117.5800002  64.1907070  88.1409783 118.5017073  64.1891400
  87.8677045 117.1830437  64.8807534  79.1615154 122.6965458  65.0360714
  78.6168622 123.4725266  65.1680989  80.0394504 123.0436263  64.8779836
  85.9502770 116.0277042  57.4141513  86.0718681 115.0993688  57.6132400
  85.6604813 116.0415728  56.5019828  88.8193961 113.7131953  60.5508233
  88.8415658 113.7771286  59.5960212  89.2362020 112.8736461  60.7448739
  79.9481176 121.8235355  67.9290871  79.2062912 121.9717990  68.5155501
  79.6273920 122.0843620  67.0657620  80.3937789 129.7100783  59.9601266
  81.2195809 129.4104555  59.5799909  80.0431841 128.9408406  60.4091054
  85.3619322 129.0627252  62.0298939  84.7399332 128.3997957  61.7301167
  86.0324189 129.0888383  61.3472587  78.5946394 127.6287110  60.9190199
  77.7578303 127.2009284  60.7374201  78.5670040 127.8219553  61.8560990
  85.4343850 117.5409040  71.6231445  85.4832005 118.4171162  71.2409215
  85.9766364 116.9986433  71.0503089  84.9232829 127.6131175  55.5057400
  85.0720950 128.2966639  54.8524073  85.7299273 127.5936265  56.0206856
  93.3300333 120.9173557  69.5324618  94.2310196 120.7780022  69.2408615
  93.4048307 121.0828012  70.4722795  87.6643138 118.2940412  68.3777804
  86.7946448 118.5873978  68.1060392  87.9002619 118.8780857  69.0985068
  95.7901956 122.4772185  66.9287390  96.2656077 122.6699832  66.1206242
  94.8667521 122.5331371  66.6830774  82.6785462 123.6396352  56.5118469
  82.4331504 122.7358682  56.7098679  82.8481377 123.6413503  55.5697947
  90.3682172 114.5120029  65.8943224  90.8864116 115.2481056  65.5689713
  90.0137305 114.8184022  66.7289983  81.9481110 119.3724710  54.0104630
  81.2550355 119.4469065  53.3544666  81.7032862 118.6085054  54.5326147
  90.6194766 110.9320311  61.4144121  90.8996520 110.2643500  62.0404547
  91.4045373 111.1249407  60.9018785  94.4903625 119.3537945  65.1615696
  95.4421048 119.4536043  65.1827920  94.3207075 118.5616214  65.6713780
  92.5118004 116.4393529  65.3475097  91.9167936 116.7198541  64.6521586
  92.2267701 116.9287430  66.1191838  88.8075033 121.4440118  50.3185200
  89.7534138 121.3146326  50.3873618  88.4289278 120.7054780  50.7954628
  97.1186191 119.3655109  64.3216279  96.6025240 118.5813565  64.1346208
  98.0026139 119.0373825  64.4862798  94.7796918 113.1096124  60.2812092
  94.5821739 112.8011212  61.1655424  95.3896623 113.8357763  60.4110021
  88.6913726 125.4957864  71.7785857  89.6116735 125.6736463  71.9725903
  88.6563309 124.5513910  71.6265556  86.9917950 119.3690094  50.2540085
  86.0849406 119.0723207  50.3302799  87.2693931 119.0719913  49.3874371
  77.9095891 120.6896458  60.7039131  77.5898675 119.8361766  60.4113505
  77.3629319 120.9045036  61.4597099  81.6875798 123.4058899  64.4208638
  81.9061808 124.3376007  64.4396672  82.1001572 123.0466873  65.2063442
  88.6080016 113.9126984  56.4084326  87.7980744 113.5674069  56.7839572
  89.2964433 113.6034528  56.9971938  90.5370564 112.9905031  58.0308623
  91.0901603 113.4100484  58.6898646  90.7740651 112.0640779  58.0731579
  86.5603664 118.9792105  73.8111387  86.4600391 119.9286462  73.7423478
  86.3425206 118.6510344  72.9387457  85.7616735 116.2277030  50.3952064
  86.6235899 116.5531928  50.6547882  85.9467079 115.4408526  49.8825130
  77.7784151 124.3099369  62.6732253  77.0847622 123.8953322  62.1602207
  78.5257142 124.3519906  62.0765672  93.9149372 115.1005556  57.5387287
  93.3348041 115.7590360  57.1565340  93.6485304 114.2782901  57.1274705
  92.3652938 114.5010614  59.7408607  92.8652716 114.6127148  58.9322926
  93.0088546 114.1971667  60.3809416  86.4234934 122.4089243  72.6276448
  85.9402015 123.2089604  72.8340337  86.5095873 122.4197188  71.6743892
  79.6920893 124.2417623  60.5498268  79.6691581 124.3405310  59.5980151
  80.0021530 125.0882774  60.8715434  82.3508271 126.2993778  64.6644882
  83.3051525 126.2677720  64.5974814  82.1520795 125.8384402  65.4795108
  82.9407653 124.8694894  67.2315680  83.7600542 125.3638973  67.2550517
  83.2144461 123.9526862  67.2033247  92.6974250 117.2605647  56.5943635
  91.8100105 117.5455297  56.3763830  93.1128239 117.0999410  55.7470912
  96.0488786 117.2852167  60.3097975  96.8249176 117.7748620  60.5822591
  95.3236920 117.7110222  60.7669844  98.4861344 117.9979787  61.3671915
  99.0805835 117.7575523  60.6565224  98.5587928 117.2786917  61.9945452
  80.7058500 131.8413398  61.6815080  80.5712968 131.0813799  61.1153078
  80.2890562 132.5654298  61.2143869  92.6715273 122.7760182  56.8093926
  92.6150475 123.2328734  55.9701558  93.2243616 122.0150867  56.6316768
  96.4820079 118.5649914  57.6344045  96.2257013 118.1646550  58.4652253
  95.8572947 119.2793708  57.5094184  93.4050053 123.9664964  54.1046455
  93.3498856 123.8009235  53.1634899  92.7796108 124.6740997  54.2608644
  78.1942568 119.2033028  67.9307877  78.8401431 118.6931982  68.4195102
  77.9859719 119.9401710  68.5051302  86.7146178 113.4673073  53.6831773
  86.7024848 114.4114913  53.8400044  87.6069600 113.2843218  53.3891234
  90.5298298 110.0615849  57.9377710  89.7630693 109.5074336  58.0834392
  90.9409002 110.1337718  58.7991862  82.5340059 116.3500645  72.0282891
  83.3971520 115.9937450  72.2386216  81.9605469 116.0114540  72.7158295
  26.5032155   7.6821200  49.5590599  27.1410565   7.5627948  48.8553939
  26.3852998   8.6302044  49.6178551  23.3121862   7.6348628  49.4952124
  22.9740373   7.5189693  48.6072658  24.1811630   7.2339794  49.4753130
  19.1708677   9.4884105  45.4849014  18.6073542   9.3974042  44.7165302
  19.0561072   8.6684009  45.9651507  23.7941645   8.7883480  55.4538329
  23.7830285   8.3936278  54.5818833  23.9562284   8.0549553  56.0472101
  16.7173109  10.9835296  48.3233235  17.5094401  10.6426121  47.9079534
  16.9569759  11.0930272  49.2435388  24.7508236  13.1555073  40.7963479
  24.0996216  13.7409153  40.4097493  25.5452599  13.6861267  40.8558517
  18.6763863  10.2444210  41.1950614  19.4494739   9.6973197  41.0563490
  19.0289262  11.1088459  41.4065075  20.5148906  11.5720592  54.4017513
  20.2238772  12.4766223  54.2864179  21.1505890  11.6137120  55.1161583
  21.4405113   8.9497441  50.9918873  22.0368685   8.7253463  50.2775836
  21.4980084   8.2082186  51.5944321  21.0130141   6.4036876  38.8269064
  21.2655662   5.8818397  38.0652527  20.0754700   6.2403021  38.9295747
  26.0573424   5.4072654  46.6343807  26.8436513   4.9892077  46.2834224
  26.3212128   6.3118746  46.8025455  26.2283501  10.8445505  41.3332464
  25.5929334  10.9180131  42.0453368  25.8980908  11.4339103  40.6551543
  31.4581851   5.3447887  47.5376785  32.1907023   4.7747104  47.7714615
  30.7021207   4.9569488  47.9783291  20.7326430   8.3064982  41.0293439
  20.6162688   7.6309885  41.6974523  20.8428690   7.8197356  40.2125592
  23.0757971   7.7675129  44.7340128  22.7116178   7.2405750  45.4453049
  23.9325087   7.3773598  44.5606613  28.9807271  -0.9430538  51.9971394
  28.6490596  -0.0735128  51.7732609  28.3852885  -1.2594254  52.6765424
  22.7163458   2.7965029  39.7301476  22.8837860   3.6645265  40.0971947
  22.5260627   2.9592310  38.8062766  25.4738791  11.2582008  51.3967307
  25.1739514  12.1607046  51.2883114  25.1289850  10.9914191  52.2488460
  18.9251272   7.7095804  47.4304011  18.0001769   7.5772018  47.6381703
  19.1735686   8.4890024  47.9273954  28.8735935   3.7764548  49.0764744
  27.9652812   3.7079956  48.7823505  28.8223530   4.2536493  49.9046570
  22.6952679   5.2522686  40.7148143  22.5752304   5.6979737  41.5533623
  22.0005267   5.6008004  40.1561681  16.2860083   7.3529078  48.2647800
  16.4152465   7.6063557  49.1787212  15.6057535   7.9456786  47.9452455
  20.4559571  18.0226328  44.3638274  20.3783600  18.9734153  44.4426755
  19.8521214  17.6772200  45.0213201  22.9476800   5.1954193  57.0199641
  22.1710134   5.7548113  57.0102506  23.5867363   5.6810976  57.5414511
  30.7397581   1.9780986  50.8542618  30.0971961   2.2713519  50.2082413
  30.2352510   1.8633906  51.6595815  28.3937745   5.7244159  41.5428477
  29.3055601   5.9571546  41.3676175  27.8847392   6.3081203  40.9803556
  21.2023173   8.0039647  56.5817608  21.9437857   8.5424691  56.3052432
  20.4960158   8.6305935  56.7389160  26.6778512  10.1468787  55.1789770
  27.0861868   9.7051198  54.4344402  25.9555774   9.5721415  55.4323963
  23.0309582   5.0841394  52.5523327  23.8770778   5.5080807  52.6957976
  22.9708220   4.4275018  53.2461890  27.0007327  10.7069978  48.9342059
  26.3716189  10.8715692  48.2318127  26.6132989  11.1211587  49.7053023
  30.8796559  11.6424416  46.2886422  30.1947597  12.0223317  45.7383456
  30.9640408  12.2519742  47.0218370  26.1809028   2.7445762  54.2104500
  25.9369960   3.4987823  53.6738776  26.4568958   3.1231110  55.0451747
  28.1347491   9.2884375  52.8881766  28.3464386   9.9316134  52.2116147
  28.0877239   8.4546691  52.4203696  25.7373719   1.9002195  49.7918338
  24.8758199   2.1983449  50.0835076  25.7636154   2.1172594  48.8599371
  22.5535289  10.4444386  46.1992144  23.0173634  10.7232089  45.4096766
  22.2892087   9.5427830  46.0165234  19.4459370   9.9915867  49.1371907
  20.0160727  10.4203136  48.4989392  20.0367482   9.7098452  49.8356093
  21.4904175   6.5667538  43.0081709  22.1928218   7.0188582  43.4755635
  21.1584803   5.9251357  43.6361602  19.9384536   5.1579295  57.3832918
  19.3083197   5.8395576  57.6168315  19.8320624   5.0462376  56.4386057
  29.2493318  12.1656330  51.0604123  30.0710762  11.7636517  50.7786805
  29.2455721  12.0624564  52.0120239  23.0149922  11.7140373  53.2164834
  23.0794354  12.1760781  54.0523006  22.3060846  11.0837738  53.3447144
  37.3399312   8.5095078  47.4089095  36.5863020   7.9402477  47.2533099
  37.4746853   8.4757743  48.3559730  22.7297940  13.3808481  43.0843814
  22.5943614  14.2260017  43.5128662  23.2707752  13.5827758  42.3209748
  16.1827337  10.8983919  43.6571739  16.6951858  11.6927169  43.8077304
  16.8350050  10.2010209  43.5905341  17.9922222  14.0149675  45.7394492
  18.1688850  14.9367640  45.5515476  18.7879055  13.7008094  46.1688872
  24.3566416  14.0032047  57.2144156  23.9130270  13.2168426  56.8965061
  25.0183630  14.1911198  56.5488047  19.1153537  15.5327849  51.7404835
  19.6660962  15.4044912  50.9681829  18.2765013  15.8322738  51.3899728
  26.4547654  14.2834847  55.2425558  26.4366129  15.1043728  54.7505827
  27.3767574  14.1588922  55.4675699  22.9120708  11.7978977  56.0849066
  23.4449045  11.0367265  55.8548374  22.3834789  11.5052629  56.8273220
  26.0440686   6.8947654  40.1215143  25.5287309   7.6652258  40.3603530
  25.7717994   6.2212790  40.7448204  31.0174960   9.6480008  42.0568316
  30.2404403   9.3091168  41.6123478  31.6966441   9.6532632  41.3823281
  25.8326989   4.7674746  41.9474924  25.5277125   5.0820895  42.7985067
  26.7857431   4.8456166  41.9902257  24.2773421  10.9264969  43.5967878
  23.7494782  10.1917729  43.2841115  23.7760924  11.7039646  43.3507846
  29.2566267   9.1213990  48.7134924  28.5989941   9.8113251  48.8015053
  30.0606666   9.5110422  49.0568911  28.0671726   7.4758362  46.7638866
  28.5803607   8.1088354  47.2660576  28.7172950   6.8759558  46.3982226
  22.4226021   8.7445179  36.6002851  21.5153083   8.5134433  36.7994000
  22.9197053   7.9482799  36.7876832  25.3294100  17.4542687  39.5199537
  24.6555799  17.7574383  40.1284495  25.7159922  18.2571767  39.1704994
  24.5452557   4.9507818  49.0097206  23.6275118   5.1722765  48.8518895
  24.9612700   5.0254128  48.1508914  25.3287604   6.3499234  44.1399887
  26.0759423   6.8620631  43.8307009  25.5979194   6.0283286  45.0004280
  23.6014254   8.8457774  41.1226841  22.6925474   8.5616807  41.2199311
  23.6309338   9.2656853  40.2630148  28.8333522  12.4564364  44.8918009
  28.3795849  11.6155274  44.9483199  28.2027489  13.0925762  45.2292789
  27.7766441   3.3856350  46.1218676  27.0389198   2.8733736  46.4528919
  28.0293215   2.9456731  45.3101953  27.2766461  14.2940861  45.8267827
  27.5689436  14.8545918  45.1080192  27.7865082  14.5869422  46.5820986
  22.1499149   6.4586395  47.2236636  22.2047758   5.5060231  47.1479113
  21.3390351   6.6145834  47.7077935  23.2990342  10.3866518  38.4614920
  22.8609772   9.6702377  38.0020557  24.0400783  10.6142633  37.9000011
  20.0891508   5.0763455  44.9827015  19.2759374   5.3757625  45.3892207
  20.5850503   4.6819143  45.7001497  22.2400086  15.0721212  46.9161280
  22.1976265  15.2982058  45.9869812  23.1562785  14.8384586  47.0647081
  25.6865720   5.5405279  53.8141909  26.0415108   5.7676752  54.6736375
  26.3337851   5.8723656  53.1919164  31.4163457   8.6623715  44.5191238
  31.2781356   8.8525311  43.5912427  31.0599676   9.4243098  44.9759289
  31.4432837  10.7300242  49.5302510  31.8769343  10.6375531  50.3785564
  32.1564417  10.7057743  48.8922526  20.3565887  11.9484241  46.7123243
  21.1506486  11.4534561  46.5105818  19.6457579  11.4202104  46.3490948
  25.1760732  14.3302336  51.0635610  25.2297754  14.8993272  51.8313326
  24.3075513  14.5004221  50.6989647  32.3048386  10.7723943  52.0635395
  32.4984276  11.6769753  52.3094670  32.2049004  10.3131362  52.8973980
  27.3663495  10.9230685  57.6376276  27.2149001  10.6941237  56.7206359
  27.3568174  11.8801287  57.6507621  24.1348831   8.4962598  52.6222542
  25.0640891   8.6473758  52.4491509  23.7139861   8.5846619  51.7671189
  22.9337163  12.5213263  50.3921080  22.7948249  12.1532047  51.2647018
  22.1451759  13.0360902  50.2205038  23.5285315  17.6222359  41.7346616
  23.7037071  17.1510402  42.5492239  22.8418103  18.2488125  41.9627877
  24.4842378  11.8994865  47.7809918  24.1492211  11.8595635  48.6767567
  23.9846324  11.2339581  47.3080328  18.4586622   7.3062495  53.3062499
  18.3206420   6.5742734  53.9074038  19.3691546   7.2171395  53.0246686
  27.4201570   9.2450900  38.0546977  26.8030741   8.5197728  37.9580030
  26.9518058  10.0060260  37.7114051  21.0868923   7.0182455  52.7946178
  21.7968541   6.3775647  52.7532797  21.0438231   7.2695350  53.7172359
  29.0755702  13.9549808  55.7152758  29.0168248  13.2709028  55.0483341
  29.4775220  14.6968798  55.2633384  18.0946400  20.7711722  48.5086476
  18.3342999  21.4030246  49.1865495  17.2515597  20.4199762  48.7951836
  29.0773109  11.9189392  53.9466737  28.1899888  11.5815314  54.0693136
  29.6471660  11.1872423  54.1835503  22.6074262  16.5790844  50.9127980
  22.5344434  17.3845816  51.4247285  22.1651655  16.7782810  50.0876002
  22.3964042  15.8162614  44.4230802  21.6131564  16.3584295  44.5169026
  23.0956787  16.3336594  44.8225043  25.7060692   1.6257244  47.0665007
  26.2029391   0.8727206  46.7466078  24.9347673   1.6621560  46.5008217
  33.5590449   7.3297609  48.7083299  33.5480326   8.2122325  48.3377232
  32.6907829   6.9769160  48.5137836  25.0672946  16.4777678  53.0686139
  25.7800918  17.1125143  52.9962041  24.5762974  16.5741544  52.2526141
  26.7890473  10.3828931  44.6403431  25.8546751  10.5030393  44.4708135
  26.9667141   9.4801398  44.3763441  22.2895661   3.7674627  46.7936692
  21.9193448   3.2145667  47.4817598  22.7854753   3.1632760  46.2411692
  30.1763024   6.2246250  45.1753465  30.6423476   7.0574242  45.1013768
  30.6270524   5.7591232  45.8798723  20.1184859  14.2272122  53.8891710
  20.8194319  14.8608605  54.0421104  19.6479974  14.5686853  53.1287349
  28.2439255  12.5690072  42.1739617  28.5199099  12.4546666  43.0833491
  27.3743754  12.1707556  42.1351790  27.9186145   6.7816729  51.7144260
  27.2657595   7.0292637  51.0596713  28.2966525   5.9680867  51.3806738
  24.8793319  16.8176422  45.8172431  25.0615714  15.9998078  46.2800183
  25.7026305  17.0344115  45.3797321  25.2135485  15.7444608  43.0787479
  25.7423251  15.2337062  42.4657641  25.4763704  15.4287138  43.9433012
  23.9673718   7.5236540  58.2010297  23.2914355   7.4230670  58.8712673
  24.7901352   7.3675754  58.6646295  15.7152577  13.7608477  50.8222813
  16.3006014  13.0152165  50.9550717  15.5177416  14.0712434  51.7059476
  18.5691233  16.7959724  45.8385255  17.9001608  17.2805852  45.3549295
  18.4304102  17.0428945  46.7528634  22.7096501  18.8303468  52.4367913
  23.2614809  18.9935089  53.2016999  23.0502695  19.4207906  51.7647938
  27.5607375  13.6564725  58.2916568  28.1047279  14.2694684  57.7971523
  26.9794220  14.2144304  58.8083581  25.8464888  16.7785443  49.4231596
  25.7216028  15.9775183  48.9142541  26.5043980  17.2731637  48.9345565
  27.9099797  14.5794463  51.0511146  26.9630132  14.4599815  50.9789472
  28.2582570  13.6916961  51.1337407  24.9146230  14.3747180  47.2515498
  24.7671193  13.4463887  47.4323068  25.7399724  14.3967270  46.7672573
  28.5180352  15.1975738  48.3380371  29.4426899  14.9918600  48.2004822
  28.3495655  14.9492139  49.2469712  24.9107744   2.2285017  42.2447615
  25.1271359   3.1109655  41.9436443  24.4301812   1.8371231  41.5153257
  19.6506966   5.1870730  48.8218360  19.5051547   5.5011034  49.7142641
  19.1732169   5.8055631  48.2689258  28.3075668  15.7161406  43.6942462
  28.4812546  15.1507828  42.9416314  28.8004559  16.5162301  43.5121952
  34.1615059   8.4797829  45.3132762  34.6046205   7.7305154  44.9151885
  33.2841570   8.4707965  44.9306494  29.2950841  15.0328170  40.7939360
  29.9901745  15.6534863  41.0126675  29.6373991  14.1823521  41.0691738
  31.1942264  12.4827876  42.3226691  31.7193588  12.8215148  41.5976011
  31.1064616  11.5474891  42.1389826  22.8562312  16.3961949  54.4516568
  23.1649439  16.1511096  55.3239267  23.6537794  16.6008588  53.9635438
  22.8782925  18.5499859  46.6821944  22.4387915  18.0576238  47.3754801
  23.6291041  18.0072827  46.4414019  15.3575263  14.7411400  46.6846572
  16.1833283  14.4415172  46.3045216  15.0069315  13.9719022  47.1336361
  20.3256797  14.0937868  48.7544246  19.7036806  13.4308573  48.4546474
  20.9961664  14.1199000  48.0717894  13.5583869  12.6597726  47.6435506
  12.7215777  12.2319901  47.4619507  13.5307514  12.8530170  48.5806297
  30.8836170  13.1160779  57.6277889  30.0931714  13.0984918  57.0882388
  30.6469524  13.6549073  58.3826926  31.0034045   9.9653246  54.9410618
  31.0532050   9.8003253  55.8826140  30.8947968   9.0980505  54.5508498
  19.8870304  12.6441791  42.2302706  20.0358424  13.3277256  41.5769379
  20.6936747  12.6246881  42.7452162  28.2937807   5.9484174  56.2569924
  29.1947670   5.8090639  55.9653922  28.3685782   6.1138629  57.1968102
  22.6280613   3.3251028  55.1023111  21.7583922   3.6184595  54.8305699
  22.8640093   3.9091473  55.8230374  32.5052242  12.3850187  55.1852639
  32.2137050  12.7480168  56.0216100  31.8924373  11.6717196  55.0065971
  33.7047924   9.9503067  47.7055209  34.5394815  10.3892871  47.8692770
  33.8407053   9.4741720  46.8863455  30.7539430   7.5082802  53.6532697
  31.2293552   7.7010448  52.8451548  29.8304995   7.5641988  53.4076081
  17.6422937   8.6706969  43.2363775  17.3968978   7.7669299  43.4343986
  17.8118851   8.6724119  42.2943253  23.3865709  15.1389922  39.7014454
  22.8139676  15.7580109  39.2484926  23.9598503  15.6889284  40.2354376
  29.4541099   4.3848562  51.8861003  30.4058522   4.4846660  51.9073227
  29.2844549   3.5926830  52.3959087  27.4755478   1.4704145  52.0720404
  26.8805411   1.7509158  51.3766892  27.1905175   1.9598046  52.8437145
  26.6062969  15.4227072  40.8323036  27.5393642  15.3572634  41.0355912
  26.5186182  16.2583339  40.3737569  29.2350986  14.7392942  37.7926984
  29.1564617  14.4052806  38.6862742  30.0560652  15.2314710  37.7918456
  31.9329177   7.6054682  51.0003302  31.9005497   6.6670682  51.1862986
  32.5429800   7.6838718  50.2669127  23.7712508   6.4750735  37.0430506
  24.7171612   6.3456943  37.1118924  23.3926753   5.7365397  37.5199935
  32.0823665   4.3965725  51.0461586  31.5662714   3.6124182  50.8591514
  32.9663614   4.0684442  51.2108105  29.7434392  -1.8593259  47.0057398
  29.5459213  -2.1678171  47.8900730  30.3534098  -1.1331620  47.1355328
  37.7505727   8.6670688  50.1409339  38.4809115   8.4055977  50.7017042
  37.1412672   7.9299410  50.1811407  35.8321024   6.8078551  50.7383790
  35.1054187   6.6734516  50.1300282  35.4168311   7.1155380  51.5440508
  23.6551200  10.5268481  58.5031163  24.5754210  10.7047080  58.6971210
  23.6200783   9.5824526  58.3510863  21.9555425   4.4000711  36.9785392
  21.0486880   4.1033824  37.0548105  22.2331406   4.1030529  36.1119678
  16.6513273   8.4369515  51.1453945  16.8699282   9.3686623  51.1641978
  17.0639047   8.0777490  51.9308748  21.5241138   4.0102721  60.5356693
  21.4237865   4.9597078  60.4668785  21.3062680   3.6820960  59.6632764
  28.8786846   0.1316173  44.2632594  28.2985515   0.7900977  43.8810646
  28.6122779  -0.6906483  43.8520011  27.3290412  -0.4678770  46.4653914
  27.8290191  -0.3562235  45.6568233  27.9726020  -0.7717717  47.1054723
  21.3872408   7.4399860  59.3521755  20.9039490   8.2400220  59.5585644
  21.4733347   7.4507805  58.3989199  14.6558368   9.2728240  47.2743574
  14.6329056   9.3715927  46.3225458  14.9659004  10.1193390  47.5960741
  17.3145746  11.3304395  51.3890189  18.2688999  11.2988337  51.3220120
  17.1158269  10.8695018  52.2040415  17.9045128   9.9005511  53.9560987
  18.7238017  10.3949589  53.9795824  18.1781935   8.9837479  53.9278554
  27.6611724   2.2916263  43.3188942  26.7737579   2.5765914  43.1009137
  28.0765713   2.1310026  42.4716219  31.0126260   2.3162784  47.0343281
  31.7886650   2.8059236  47.3067898  30.2874394   2.7420838  47.4915151
  33.4498819   3.0290403  48.0917222  34.0443309   2.7886139  47.3810530
  33.5225402   2.3097534  48.7190758  15.6695974  16.8724014  48.4060387
  15.5350442  16.1124415  47.8398385  15.2528037  17.5964914  47.9389176
  26.8054937  12.0560938  37.4136962  27.5090787  12.2610940  38.0294618
  26.0817586  12.6237700  37.6786046  27.6352748   7.8070799  43.5339232
  27.5787949   8.2639350  42.6946865  28.1881090   7.0461484  43.3562075
  31.4457554   3.5960531  44.3589352  31.1894488   3.1957167  45.1897559
  30.8210422   4.3104325  44.2339491  35.7569891   6.3356604  46.8660643
  35.1969449   6.4049793  47.6392205  35.1513395   6.1597589  46.1460139
  18.8265100  17.7693331  48.6178829  18.7097484  18.7138764  48.5157520
  18.0057546  17.4666893  49.0064629  28.7141635  12.4943467  39.4635422
  29.5487239  12.0624665  39.2812897  28.5525978  12.3225481  40.3912317
  28.3687527   8.9975580  40.8291761  28.3136331   8.8319852  39.8880206
  27.7433582   9.7051613  40.9853951  25.6833434  11.3024492  60.1545324
  26.5524594  11.4765144  59.7931959  25.2040186  12.1218909  60.0321054
  19.8519614  18.4221593  51.8334758  20.7546861  18.4545203  52.1501253
  19.6256984  17.4922044  51.8481094  21.6073216  17.1752580  48.4944836
  20.6568847  17.1754441  48.3809209  21.9105702  16.4285314  47.9780871
  37.3425910  23.0113118  49.5590599  37.9804320  22.8919865  48.8553939
  37.2246753  23.9593962  49.6178551  34.1515616  22.9640546  49.4952124
  33.8134128  22.8481611  48.6072658  35.0205384  22.5631711  49.4753130
  30.0102432  24.8176023  45.4849014  29.4467297  24.7265959  44.7165302
  29.8954827  23.9975927  45.9651507  34.6335399  24.1175398  55.4538329
  34.6224040  23.7228196  54.5818833  34.7956039  23.3841470  56.0472101
  27.5566864  26.3127214  48.3233235  28.3488156  25.9718039  47.9079534
  27.7963514  26.4222189  49.2435388  35.5901991  28.4846990  40.7963479
  34.9389970  29.0701071  40.4097493  36.3846353  29.0153185  40.8558517
  29.5157618  25.5736127  41.1950614  30.2888494  25.0265114  41.0563490
  29.8683017  26.4380377  41.4065075  31.3542660  26.9012510  54.4017513
  31.0632526  27.8058141  54.2864179  31.9899645  26.9429037  55.1161583
  32.2798867  24.2789358  50.9918873  32.8762439  24.0545381  50.2775836
  32.3373839  23.5374104  51.5944321  31.8523896  21.7328794  38.8269064
  32.1049416  21.2110315  38.0652527  30.9148455  21.5694939  38.9295747
  36.8967178  20.7364572  46.6343807  37.6830268  20.3183995  46.2834224
  37.1605883  21.6410664  46.8025455  37.0677256  26.1737422  41.3332464
  36.4323089  26.2472049  42.0453368  36.7374662  26.7631021  40.6551543
  42.2975605  20.6739805  47.5376785  43.0300777  20.1039022  47.7714615
  41.5414961  20.2861406  47.9783291  31.5720184  23.6356899  41.0293439
  31.4556442  22.9601803  41.6974523  31.6822444  23.1489273  40.2125592
  33.9151725  23.0967047  44.7340128  33.5509932  22.5697668  45.4453049
  34.7718841  22.7065516  44.5606613  39.8201026  14.3861379  51.9971394
  39.4884351  15.2556790  51.7732609  39.2246639  14.0697663  52.6765424
  33.5557212  18.1256946  39.7301476  33.7231615  18.9937183  40.0971947
  33.3654381  18.2884228  38.8062766  36.3132545  26.5873925  51.3967307
  36.0133268  27.4898964  51.2883114  35.9683605  26.3206108  52.2488460
  29.7645027  23.0387722  47.4304011  28.8395523  22.9063936  47.6381703
  30.0129440  23.8181941  47.9273954  39.7129689  19.1056465  49.0764744
  38.8046566  19.0371874  48.7823505  39.6617285  19.5828410  49.9046570
  33.5346433  20.5814604  40.7148143  33.4146058  21.0271655  41.5533623
  32.8399021  20.9299921  40.1561681  27.1253838  22.6820996  48.2647800
  27.2546219  22.9355474  49.1787212  26.4451289  23.2748704  47.9452455
  31.2953325  33.3518246  44.3638274  31.2177355  34.3026071  44.4426755
  30.6914969  33.0064118  45.0213201  33.7870555  20.5246111  57.0199641
  33.0103889  21.0840031  57.0102506  34.4261118  21.0102894  57.5414511
  41.5791336  17.3072904  50.8542618  40.9365716  17.6005437  50.2082413
  41.0746264  17.1925824  51.6595815  39.2331499  21.0536077  41.5428477
  40.1449355  21.2863464  41.3676175  38.7241146  21.6373121  40.9803556
  32.0416927  23.3331564  56.5817608  32.7831612  23.8716608  56.3052432
  31.3353913  23.9597853  56.7389160  37.5172267  25.4760705  55.1789770
  37.9255623  25.0343115  54.4344402  36.7949528  24.9013332  55.4323963
  33.8703337  20.4133312  52.5523327  34.7164532  20.8372725  52.6957976
  33.8101975  19.7566936  53.2461890  37.8401081  26.0361895  48.9342059
  37.2109944  26.2007610  48.2318127  37.4526744  26.4503505  49.7053023
  41.7190313  26.9716333  46.2886422  41.0341352  27.3515235  45.7383456
  41.8034163  27.5811660  47.0218370  37.0202782  18.0737680  54.2104500
  36.7763714  18.8279740  53.6738776  37.2962713  18.4523028  55.0451747
  38.9741245  24.6176292  52.8881766  39.1858140  25.2608052  52.2116147
  38.9270993  23.7838609  52.4203696  36.5767474  17.2294113  49.7918338
  35.7151953  17.5275366  50.0835076  36.6029909  17.4464512  48.8599371
  33.3929043  25.7736303  46.1992144  33.8567389  26.0524006  45.4096766
  33.1285841  24.8719748  46.0165234  30.2853124  25.3207785  49.1371907
  30.8554482  25.7495053  48.4989392  30.8761236  25.0390370  49.8356093
  32.3297929  21.8959456  43.0081709  33.0321973  22.3480500  43.4755635
  31.9978558  21.2543275  43.6361602  30.7778291  20.4871212  57.3832918
  30.1476952  21.1687493  57.6168315  30.6714379  20.3754294  56.4386057
  26.0723263  20.1543009  48.3098843  25.2822317  20.4100537  47.8338953
  26.5634511  20.9691346  48.4150883  40.0887073  27.4948248  51.0604123
  40.9104517  27.0928435  50.7786805  40.0849476  27.3916482  52.0120239
  28.0238009  20.5187588  45.2682319  27.2269172  20.6306282  45.7865815
  27.7963601  20.8574240  44.4023210  33.8543676  27.0432291  53.2164834
  33.9188109  27.5052698  54.0523006  33.1454600  26.4129656  53.3447144
  24.3560966  20.4073499  50.7413833  24.6069005  21.2920509  51.0071409
  24.8920515  20.2278100  49.9688925  48.1793066  23.8386996  47.4089095
  47.4256774  23.2694394  47.2533099  48.3140607  23.8049661  48.3559730
  33.5691694  28.7100398  43.0843814  33.4337369  29.5551934  43.5128662
  34.1101507  28.9119676  42.3209748  30.0559034  14.7891978  59.7458169
  29.6625979  14.2358177  60.4205814  30.8725174  15.1002557  60.1364687
  27.0221091  26.2275837  43.6571739  27.5345612  27.0219087  43.8077304
  27.6743804  25.5302127  43.5905341  28.8315976  29.3441593  45.7394492
  29.0082604  30.2659557  45.5515476  29.6272810  29.0300012  46.1688872
  32.9726995  16.2049857  57.3378426  33.7136708  16.8057011  57.2582888
  33.2044918  15.4627495  56.7796469  28.1168333  21.3906225  55.6156656
  28.0021848  20.4891482  55.9163755  27.2612850  21.6369921  55.2641472
  35.1960170  29.3323965  57.2144156  34.7524025  28.5460344  56.8965061
  35.8577384  29.5203115  56.5488047  29.9547292  30.8619767  51.7404835
  30.5054717  30.7336830  50.9681829  29.1158768  31.1614656  51.3899728
  37.2941408  29.6126765  55.2425558  37.2759884  30.4335646  54.7505827
  38.2161329  29.4880840  55.4675699  33.7514463  27.1270894  56.0849066
  34.2842799  26.3659183  55.8548374  33.2228544  26.8344546  56.8273220
  36.9184158  12.2330960  51.6142708  36.5748427  13.1232602  51.5381818
  37.2863120  12.0432618  50.7512293  24.9870008  24.5564491  44.4331310
  25.8245230  24.9661499  44.2165018  25.1648276  23.6163933  44.4031504
  36.8834440  22.2239571  40.1215143  36.3681064  22.9944176  40.3603530
  36.6111749  21.5504708  40.7448204  34.4681551  17.0689272  45.1800381
  33.6123148  16.6796123  45.0006020  34.8808503  17.1481233  44.3200167
  35.9980698  14.6035616  49.5791941  35.4945494  14.5665751  48.7659746
  36.2911305  15.5128358  49.6388598  32.2423584  14.6874345  48.5858123
  33.1076581  14.4917154  48.2264012  32.3101093  14.4584697  49.5127479
  41.8568714  24.9771926  42.0568316  41.0798157  24.6383086  41.6123478
  42.5360195  24.9824549  41.3823281  36.6720744  20.0966664  41.9474924
  36.3670879  20.4112813  42.7985067  37.6251186  20.1748083  41.9902257
  35.1167175  26.2556887  43.5967878  34.5888537  25.5209646  43.2841115
  34.6154678  27.0331563  43.3507846  40.0960021  24.4505907  48.7134924
  39.4383696  25.1405169  48.8015053  40.9000421  24.8402339  49.0568911
  29.8485903  16.9176553  45.9574489  30.4229655  16.6951735  45.2247682
  30.4356885  16.9865248  46.7103091  38.9065480  22.8050280  46.7638866
  39.4197362  23.4380272  47.2660576  39.5566704  22.2051476  46.3982226
  30.1755490  18.9481014  39.9770375  29.3392802  19.2855701  40.2979649
  30.0360260  18.8129994  39.0397512  32.1508571  13.7917802  44.6849559
  31.4972983  13.4766819  44.0606174  32.1089045  13.1693543  45.4109382
  33.2619776  24.0737097  36.6002851  32.3546837  23.8426351  36.7994000
  33.7590808  23.2774716  36.7876832  36.1687854  32.7834604  39.5199537
  35.4949553  33.0866301  40.1284495  36.5553676  33.5863685  39.1704994
  35.3846311  20.2799736  49.0097206  34.4668872  20.5014683  48.8518895
  35.8006455  20.3546046  48.1508914  36.1681359  21.6791151  44.1399887
  36.9153178  22.1912549  43.8307009  36.4372948  21.3575204  45.0004280
  34.4408009  24.1749692  41.1226841  33.5319228  23.8908725  41.2199311
  34.4703093  24.5948771  40.2630148  39.6727276  27.7856282  44.8918009
  39.2189603  26.9447191  44.9483199  39.0421243  28.4217680  45.2292789
  38.6160196  18.7148268  46.1218676  37.8782953  18.2025654  46.4528919
  38.8686969  18.2748649  45.3101953  38.1160216  29.6232778  45.8267827
  38.4083190  30.1837835  45.1080192  38.6258836  29.9161339  46.5820986
  38.7171823  11.4924520  46.7160445  39.0230700  10.6321883  46.4286360
  39.4424428  12.0842140  46.5159439  25.0096179  21.8955206  45.1042043
  24.8120579  21.3024567  44.3793110  24.4542843  21.5907416  45.8217982
  32.9892903  21.7878313  47.2236636  33.0441513  20.8352149  47.1479113
  32.1784105  21.9437752  47.7077935  34.1384097  25.7158436  38.4614920
  33.7003527  24.9994295  38.0020557  34.8794538  25.9434551  37.9000011
  30.9285263  20.4055372  44.9827015  30.1153128  20.7049543  45.3892207
  31.4244257  20.0111061  45.7001497  33.0793841  30.4013129  46.9161280
  33.0370020  30.6273976  45.9869812  33.9956540  30.1676504  47.0647081
  36.5259475  20.8697197  53.8141909  36.8808862  21.0968670  54.6736375
  37.1731606  21.2015574  53.1919164  42.2557212  23.9915633  44.5191238
  42.1175110  24.1817229  43.5912427  41.8993430  24.7535016  44.9759289
  30.4199338  17.9773728  50.5988250  31.0598717  17.8362487  49.9011214
  29.5876868  17.6908241  50.2226852  42.2826591  26.0592160  49.5302510
  42.7163098  25.9667449  50.3785564  42.9958172  26.0349660  48.8922526
  31.1959642  27.2776158  46.7123243  31.9900240  26.7826478  46.5105818
  30.4851334  26.7494021  46.3490948  36.0154486  29.6594254  51.0635610
  36.0691508  30.2285190  51.8313326  35.1469267  29.8296139  50.6989647
  27.5042405  21.4219240  42.7882995  26.5739993  21.3603696  43.0052957
  27.5999877  20.8995193  41.9919637  27.4227954  17.9474053  45.3761237
  27.6834771  18.8619386  45.2670397  28.2445126  17.4798495  45.5257850
  28.8952879  19.3611810  52.5460062  29.5675933  19.1529172  51.8972710
  28.0682666  19.1633896  52.1065294  43.1442141  26.1015860  52.0635395
  43.3378031  27.0061671  52.3094670  43.0442759  25.6423279  52.8973980
  34.7978451  15.9873751  54.5625722  34.1506366  16.6863701  54.4690199
  35.5679467  16.4209895  54.9301971  38.2057249  26.2522603  57.6376276
  38.0542756  26.0233155  56.7206359  38.1961929  27.2093205  57.6507621
  34.9742586  23.8254516  52.6222542  35.9034646  23.9765675  52.4491509
  34.5533616  23.9138537  51.7671189  33.7730918  27.8505180  50.3921080
  33.6342003  27.4823965  51.2647018  32.9845514  28.3652820  50.2205038
  34.3679070  32.9514277  41.7346616  34.5430825  32.4802320  42.5492239
  33.6811858  33.5780043  41.9627877  35.3236133  27.2286783  47.7809918
  34.9885965  27.1887553  48.6767567  34.8240078  26.5631499  47.3080328
  29.2980377  22.6354413  53.3062499  29.1600175  21.9034652  53.9074038
  30.2085300  22.5463313  53.0246686  38.2595324  24.5742817  38.0546977
  37.6424495  23.8489645  37.9580030  37.7911813  25.3352178  37.7114051
  31.9262677  22.3474372  52.7946178  32.6362296  21.7067565  52.7532797
  31.8831986  22.5987267  53.7172359  39.9149456  29.2841726  55.7152758
  39.8562002  28.6000946  55.0483341  40.3168974  30.0260716  55.2633384
  30.6391611  19.3339590  54.6141818  30.1028968  18.8830329  55.2663414
  30.0508320  19.4685499  53.8712282  28.9340155  36.1003640  48.5086476
  29.1736753  36.7322164  49.1865495  28.0909351  35.7491680  48.7951836
  30.0493870  18.7928242  37.1768281  29.1723337  18.6717042  36.8130528
  30.5251623  18.0014320  36.9247170  39.9166863  27.2481310  53.9466737
  39.0293642  26.9107231  54.0693136  40.4865414  26.5164341  54.1835503
  21.5696010  23.5805401  47.2709789  22.2567050  23.2667131  46.6830804
  21.4144139  24.4846766  46.9977040  26.3730733  18.4695598  51.6994812
  26.2888921  17.8621267  50.9645222  25.5513439  18.9604616  51.7004309
  33.4468017  31.9082762  50.9127980  33.3738188  32.7137733  51.4247285
  33.0045410  32.1074728  50.0876002  33.2357796  31.1454532  44.4230802
  32.4525318  31.6876212  44.5169026  33.9350542  31.6628512  44.8225043
  36.5454446  16.9549161  47.0665007  37.0423146  16.2019124  46.7466078
  35.7741428  16.9913478  46.5008217  44.3984204  22.6589527  48.7083299
  44.3874080  23.5414242  48.3377232  43.5301583  22.3061078  48.5137836
  35.9066700  31.8069596  53.0686139  36.6194672  32.4417061  52.9962041
  35.4156729  31.9033462  52.2526141  37.6284227  25.7120849  44.6403431
  36.6940506  25.8322311  44.4708135  37.8060896  24.8093315  44.3763441
  33.1289415  19.0966544  46.7936692  32.7587203  18.5437585  47.4817598
  33.6248508  18.4924678  46.2411692  41.0156778  21.5538168  45.1753465
  41.4817231  22.3866160  45.1013768  41.4664279  21.0883150  45.8798723
  30.9578614  29.5564039  53.8891710  31.6588073  30.1900522  54.0421104
  30.4873729  29.8978771  53.1287349  39.0833010  27.8981989  42.1739617
  39.3592853  27.7838584  43.0833491  38.2137508  27.4999474  42.1351790
  38.9873441  13.9218755  49.2144366  38.0736521  14.1522982  49.3826573
  39.4166543  14.0057199  50.0658399  38.7579900  22.1108647  51.7144260
  38.1051350  22.3584554  51.0596713  39.1360280  21.2972785  51.3806738
  35.7187074  32.1468340  45.8172431  35.9009468  31.3289996  46.2800183
  36.5420060  32.3636032  45.3797321  36.0529239  31.0736525  43.0787479
  36.5817006  30.5628980  42.4657641  36.3157459  30.7579055  43.9433012
  34.8067473  22.8528458  58.2010297  34.1308110  22.7522587  58.8712673
  35.6295107  22.6967672  58.6646295  26.5546332  29.0900395  50.8222813
  27.1399769  28.3444082  50.9550717  26.3571170  29.4004351  51.7059476
  29.4084987  32.1251642  45.8385255  28.7395362  32.6097770  45.3549295
  29.2697857  32.3720862  46.7528634  21.1463987  21.6605995  49.5427256
  21.1848086  21.1269585  50.3364374  20.6404279  21.1341200  48.9238233
  33.5490256  34.1595385  52.4367913  34.1008564  34.3227007  53.2016999
  33.8896449  34.7499823  51.7647938  28.5254749  16.5070535  53.0389798
  28.5896075  17.3685366  52.6267196  28.4621869  15.8944537  52.3062157
  28.0007021  18.5793668  56.6862832  28.6279060  18.1970745  57.3000357
  27.1434940  18.3607870  57.0518525  38.4001130  28.9856643  58.2916568
  38.9441034  29.5986601  57.7971523  37.8187975  29.5436221  58.8083581
  24.7772564  20.3870097  42.6181187  25.0726005  19.4780775  42.5648241
  23.8760600  20.3657836  42.2962189  36.6858643  32.1077361  49.4231596
  36.5609782  31.3067101  48.9142541  37.3437734  32.6023554  48.9345565
  28.3066811  18.4626093  48.6008736  27.5853397  19.0762061  48.4616209
  29.0960067  18.9983858  48.5225382  38.7493551  29.9086381  51.0511146
  37.8023887  29.7891732  50.9789472  39.0976324  29.0208879  51.1337407
  31.1093125  15.7980520  54.8749387  31.6327526  16.0442816  55.6375697
  30.8905458  16.6300555  54.4552525  26.5060406  18.0684195  42.7420512
  26.1773112  17.1881573  42.5595618  26.8599776  18.0131863  43.6296902
  35.7539985  29.7039097  47.2515498  35.6064947  28.7755805  47.4323068
  36.5793478  29.7259188  46.7672573  29.6202229  18.3557164  43.1095990
  29.9598301  18.8843086  42.3874598  30.0674349  18.6937570  43.8854557
  39.3574106  30.5267656  48.3380371  40.2820654  30.3210517  48.2004822
  39.1889410  30.2784057  49.2469712  32.3145670  16.7394215  52.5599058
  31.9742490  15.9402028  52.9619738  31.6084676  17.0395926  51.9875891
  32.9662142  13.8243527  51.0126381  33.7888211  13.3504006  50.8905271
  33.2100205  14.6034011  51.5125067  31.6070376  16.8531786  41.3089283
  32.3278739  17.2313039  40.8053000  30.9835680  17.5720663  41.4124261
  35.7501499  17.5576935  42.2447615  35.9665113  18.4401573  41.9436443
  35.2695566  17.1663148  41.5153257  30.4900720  20.5162648  48.8218360
  30.3445301  20.8302951  49.7142641  30.0125924  21.1347548  48.2689258
  32.3497103  17.5065196  48.8699249  32.3358672  16.6106289  48.5331547
  33.0669531  17.5135860  49.5037535  34.2023234  17.9402536  50.9152377
  33.9441012  18.8619607  50.9136707  33.6708274  17.5432971  51.6052841
  39.1469423  31.0453323  43.6942462  39.3206300  30.4799746  42.9416314
  39.6398314  31.8454218  43.5121952  24.9646382  23.0567993  51.7606021
  24.4199851  23.8327800  51.8926295  25.8425732  23.4038797  51.6025142
  31.7533999  16.3879576  44.1386819  31.8749910  15.4596223  44.3377707
  31.4636041  16.4018262  43.2265135  34.6225189  14.0734487  47.2753539
  34.6446886  14.1373820  46.3205519  35.0393249  13.2338995  47.4694045
  45.0008814  23.8089746  45.3132762  45.4439960  23.0597072  44.9151885
  44.1235324  23.7999883  44.9306494  40.1344595  30.3620088  40.7939360
  40.8295500  30.9826781  41.0126675  40.4767745  29.5115439  41.0691738
  25.7512404  22.1837889  54.6536178  25.0094140  22.3320524  55.2400808
  25.4305149  22.4446154  53.7902927  42.0336018  27.8119793  42.3226691
  42.5587342  28.1507066  41.5976011  41.9458371  26.8766809  42.1389826
  33.6956067  31.7253867  54.4516568  34.0043193  31.4803014  55.3239267
  34.4931549  31.9300505  53.9635438  33.7176679  33.8791777  46.6821944
  33.2781669  33.3868155  47.3754801  34.4684796  33.3364744  46.4414019
  26.1969018  30.0703317  46.6846572  27.0227038  29.7707089  46.3045216
  25.8463070  29.3010940  47.1336361  31.1650551  29.4229786  48.7544246
  30.5430560  28.7600491  48.4546474  31.8355418  29.4490918  48.0717894
  24.3977623  27.9889644  47.6435506  23.5609531  27.5611818  47.4619507
  24.3701268  28.1822087  48.5806297  31.2375079  17.9011574  58.3476752
  31.2863234  18.7773697  57.9654522  31.7797593  17.3588967  57.7748395
  41.7229924  28.4452697  57.6277889  40.9325468  28.4276836  57.0882388
  41.4863279  28.9840991  58.3826926  41.8427799  25.2945163  54.9410618
  41.8925804  25.1295171  55.8826140  41.7341723  24.4272422  54.5508498
  30.7264058  27.9733709  42.2302706  30.8752178  28.6569173  41.5769379
  31.5330502  27.9538799  42.7452162  39.1331562  21.2776091  56.2569924
  40.0341425  21.1382556  55.9653922  39.2079536  21.4430546  57.1968102
  33.4674367  18.6542946  55.1023111  32.5977676  18.9476512  54.8305699
  33.7033847  19.2383391  55.8230374  43.3445996  27.7142105  55.1852639
  43.0530805  28.0772085  56.0216100  42.7318127  27.0009113  55.0065971
  44.5441679  25.2794985  47.7055209  45.3788570  25.7184789  47.8692770
  44.6800807  24.8033638  46.8863455  41.5933184  22.8374720  53.6532697
  42.0687306  23.0302366  52.8451548  40.6698750  22.8933905  53.4076081
  28.4816691  23.9998887  43.2363775  28.2362733  23.0961217  43.4343986
  28.6512606  24.0016037  42.2943253  36.1713401  14.8722563  52.6188531
  36.6895345  15.6083590  52.2935020  35.8168534  15.1786556  53.4535290
  27.7512339  19.7327244  40.7349937  27.0581584  19.8071599  40.0789973
  27.5064090  18.9687588  41.2571454  36.4225995  11.2922846  48.1389428
  36.7027749  10.6246035  48.7649854  37.2076602  11.4851941  47.6264091
  34.2259464  30.4681840  39.7014454  33.6533431  31.0872027  39.2484926
  34.7992257  31.0181201  40.2354376  40.2934853  19.7140480  51.8861003
  41.2452276  19.8138577  51.9073227  40.1238304  18.9218748  52.3959087
  38.3149233  16.7996063  52.0720404  37.7199165  17.0801076  51.3766892
  38.0298930  17.2889964  52.8437145  37.4456723  30.7518990  40.8323036
  38.3787397  30.6864551  41.0355912  37.3579936  31.5875256  40.3737569
  40.0744740  30.0684860  37.7926984  39.9958372  29.7344724  38.6862742
  40.8954407  30.5606628  37.7918456  42.7722931  22.9346599  51.0003302
  42.7399251  21.9962600  51.1862986  43.3823555  23.0130636  50.2669127
  34.6106262  21.8042652  37.0430506  35.5565367  21.6748860  37.1118924
  34.2320507  21.0657314  37.5199935  42.9217420  19.7257643  51.0461586
  42.4056468  18.9416099  50.8591514  43.8057368  19.3976359  51.2108105
  40.5828147  13.4698658  47.0057398  40.3852968  13.1613746  47.8900730
  41.1927852  14.1960297  47.1355328  48.5899481  23.9962606  50.1409339
  49.3202870  23.7347894  50.7017042  47.9806427  23.2591328  50.1811407
  46.6714778  22.1370469  50.7383790  45.9447942  22.0026434  50.1300282
  46.2562065  22.4447297  51.5440508  34.4944955  25.8560398  58.5031163
  35.4147964  26.0338997  58.6971210  34.4594538  24.9116444  58.3510863
  32.7949179  19.7292629  36.9785392  31.8880635  19.4325741  37.0548105
  33.0725160  19.4322447  36.1119678  23.7127120  21.0498992  47.4284438
  23.3929904  20.1964300  47.1358812  23.1660548  21.2647570  48.1842405
  27.4907027  23.7661433  51.1453945  27.7093037  24.6978541  51.1641978
  27.9032801  23.4069407  51.9308748  34.4111245  14.2729518  43.1329633
  33.6011973  13.9276603  43.5084879  35.0995662  13.9637062  43.7217244
  36.3401793  13.3507565  44.7553930  36.8932832  13.7703019  45.4143953
  36.5771880  12.4243313  44.7976886  32.3634892  19.3394639  60.5356693
  32.2631619  20.2888996  60.4668785  32.1456435  19.0112878  59.6632764
  31.5647964  16.5879564  37.1197371  32.4267128  16.9134462  37.3793188
  31.7498308  15.8011060  36.6070437  23.5815380  24.6701904  49.3977560
  22.8878851  24.2555856  48.8847514  24.3288371  24.7122440  48.8010979
  39.7180600  15.4608090  44.2632594  39.1379269  16.1192894  43.8810646
  39.4516533  14.6385435  43.8520011  38.1684167  14.8613148  46.4653914
  38.6683945  14.9729683  45.6568233  38.8119775  14.5574201  47.1054723
  32.2266163  22.7691778  59.3521755  31.7433244  23.5692138  59.5585644
  32.3127102  22.7799723  58.3989199  25.4952122  24.6020157  47.2743574
  25.4722810  24.7007845  46.3225458  25.8052759  25.4485308  47.5960741
  28.1539500  26.6596312  51.3890189  29.1082754  26.6280255  51.3220120
  27.9552024  26.1986936  52.2040415  28.7438882  25.2297428  53.9560987
  29.5631771  25.7241507  53.9795824  29.0175690  24.3129397  53.9278554
  38.5005478  17.6208181  43.3188942  37.6131333  17.9057831  43.1009137
  38.9159467  17.4601944  42.4716219  41.8520015  17.6454702  47.0343281
  42.6280405  18.1351154  47.3067898  41.1268149  18.0712756  47.4915151
  44.2892573  18.3582321  48.0917222  44.8837064  18.1178057  47.3810530
  44.3619157  17.6389451  48.7190758  26.5089729  32.2015932  48.4060387
  26.3744197  31.4416333  47.8398385  26.0921791  32.9256832  47.9389176
  37.6448692  27.3852855  37.4136962  38.3484542  27.5902858  38.0294618
  36.9211341  27.9529617  37.6786046  38.4746502  23.1362717  43.5339232
  38.4181704  23.5931268  42.6946865  39.0274845  22.3753401  43.3562075
  42.2851308  18.9252449  44.3589352  42.0288242  18.5249084  45.1897559
  41.6604176  19.6396242  44.2339491  46.5963646  21.6648522  46.8660643
  46.0363204  21.7341711  47.6392205  45.9907149  21.4889506  46.1460139
  29.6658855  33.0985249  48.6178829  29.5491239  34.0430681  48.5157520
  28.8451301  32.7958810  49.0064629  39.5535389  27.8235385  39.4635422
  40.3880993  27.3916583  39.2812897  39.3919732  27.6517398  40.3912317
  39.2081281  24.3267498  40.8291761  39.1530085  24.1611769  39.8880206
  38.5827337  25.0343531  40.9853951  23.9973796  19.5635562  54.6553184
  24.6432660  19.0534516  55.1440409  23.7890948  20.3004244  55.2296609
  36.5227189  26.6316410  60.1545324  37.3918348  26.8057062  59.7931959
  36.0433940  27.4510827  60.0321054  32.5177407  13.8275607  40.4077080
  32.5056077  14.7717447  40.5645351  33.4100829  13.6445752  40.1136541
  30.6913369  33.7513511  51.8334758  31.5940616  33.7837121  52.1501253
  30.4650739  32.8213962  51.8481094  32.4466971  32.5044497  48.4944836
  31.4962602  32.5046359  48.3809209  32.7499457  31.7577232  47.9780871
  36.3329526  10.4218384  44.6623017  35.5661922   9.8676870  44.8079699
  36.7440231  10.4940252  45.5237168  28.3371287  16.7103179  58.7528198
  29.2002749  16.3539984  58.9631522  27.7636698  16.3717074  59.4403602
  48.1819664  38.3405036  49.5590599  48.8198074  38.2211783  48.8553939
  48.0640507  39.2885880  49.6178551  44.9909371  38.2932464  49.4952124
  44.6527882  38.1773529  48.6072658  45.8599139  37.8923629  49.4753130
  40.8496186  40.1467940  45.4849014  40.2861051  40.0557877  44.7165302
  40.7348581  39.3267845  45.9651507  45.4729154  39.4467316  55.4538329
  45.4617794  39.0520114  54.5818833  45.6349793  38.7133388  56.0472101
  38.3960618  41.6419132  48.3233235  39.1881910  41.3009956  47.9079534
  38.6357268  41.7514107  49.2435388  46.4295745  43.8138908  40.7963479
  45.7783725  44.3992988  40.4097493  47.2240108  44.3445103  40.8558517
  40.3551372  40.9028045  41.1950614  41.1282248  40.3557032  41.0563490
  40.7076771  41.7672294  41.4065075  42.1936415  42.2304427  54.4017513
  41.9026281  43.1350058  54.2864179  42.8293399  42.2720955  55.1161583
  43.1192622  39.6081276  50.9918873  43.7156194  39.3837298  50.2775836
  43.1767593  38.8666021  51.5944321  42.6917650  37.0620711  38.8269064
  42.9443171  36.5402232  38.0652527  41.7542209  36.8986857  38.9295747
  47.7360933  36.0656490  46.6343807  48.5224022  35.6475913  46.2834224
  47.9999637  36.9702582  46.8025455  47.9071010  41.5029340  41.3332464
  47.2716843  41.5763966  42.0453368  47.5768417  42.0922939  40.6551543
  53.1369360  36.0031723  47.5376785  53.8694532  35.4330940  47.7714615
  52.3808716  35.6153323  47.9783291  42.4113939  38.9648817  41.0293439
  42.2950197  38.2893721  41.6974523  42.5216199  38.4781191  40.2125592
  44.7545480  38.4258964  44.7340128  44.3903687  37.8989585  45.4453049
  45.6112596  38.0357433  44.5606613  50.6594780  29.7153297  51.9971394
  50.3278105  30.5848708  51.7732609  50.0640394  29.3989581  52.6765424
  44.3950967  33.4548864  39.7301476  44.5625369  34.3229100  40.0971947
  44.2048136  33.6176146  38.8062766  47.1526300  41.9165843  51.3967307
  46.8527023  42.8190882  51.2883114  46.8077359  41.6498026  52.2488460
  40.6038781  38.3679640  47.4304011  39.6789278  38.2355854  47.6381703
  40.8523195  39.1473859  47.9273954  50.5523444  34.4348383  49.0764744
  49.6440321  34.3663791  48.7823505  50.5011039  34.9120328  49.9046570
  44.3740188  35.9106521  40.7148143  44.2539813  36.3563572  41.5533623
  43.6792776  36.2591839  40.1561681  37.9647592  38.0112913  48.2647800
  38.0939974  38.2647392  49.1787212  37.2845044  38.6040621  47.9452455
  42.1347080  48.6810163  44.3638274  42.0571109  49.6317988  44.4426755
  41.5308723  48.3356036  45.0213201  44.6264309  35.8538029  57.0199641
  43.8497643  36.4131949  57.0102506  45.2654872  36.3394812  57.5414511
  52.4185090  32.6364821  50.8542618  51.7759470  32.9297355  50.2082413
  51.9140019  32.5217742  51.6595815  50.0725254  36.3827995  41.5428477
  50.9843110  36.6155381  41.3676175  49.5634901  36.9665039  40.9803556
  42.8810682  38.6623482  56.5817608  43.6225366  39.2008526  56.3052432
  42.1747667  39.2889771  56.7389160  48.3566021  40.8052622  55.1789770
  48.7649377  40.3635033  54.4344402  47.6343283  40.2305250  55.4323963
  44.7097091  35.7425229  52.5523327  45.5558287  36.1664643  52.6957976
  44.6495729  35.0858854  53.2461890  48.6794836  41.3653813  48.9342059
  48.0503698  41.5299527  48.2318127  48.2920498  41.7795423  49.7053023
  52.5584068  42.3008251  46.2886422  51.8735106  42.6807152  45.7383456
  52.6427917  42.9103578  47.0218370  47.8596537  33.4029598  54.2104500
  47.6157469  34.1571658  53.6738776  48.1356467  33.7814945  55.0451747
  49.8134999  39.9468210  52.8881766  50.0251895  40.5899970  52.2116147
  49.7664748  39.1130527  52.4203696  47.4161228  32.5586031  49.7918338
  46.5545707  32.8567284  50.0835076  47.4423663  32.7756429  48.8599371
  44.2322798  41.1028221  46.1992144  44.6961143  41.3815924  45.4096766
  43.9679596  40.2011666  46.0165234  41.1246879  40.6499703  49.1371907
  41.6948236  41.0786971  48.4989392  41.7154991  40.3682287  49.8356093
  43.1691684  37.2251374  43.0081709  43.8715727  37.6772417  43.4755635
  42.8372312  36.5835192  43.6361602  41.6172045  35.8163130  57.3832918
  40.9870706  36.4979411  57.6168315  41.5108133  35.7046212  56.4386057
  36.9117018  35.4834926  48.3098843  36.1216072  35.7392455  47.8338953
  37.4028265  36.2983264  48.4150883  50.9280827  42.8240165  51.0604123
  51.7498271  42.4220353  50.7786805  50.9243230  42.7208400  52.0120239
  38.8631763  35.8479505  45.2682319  38.0662927  35.9598200  45.7865815
  38.6357355  36.1866158  44.4023210  44.6937431  42.3724209  53.2164834
  44.7581863  42.8344616  54.0523006  43.9848355  41.7421574  53.3447144
  35.1954721  35.7365417  50.7413833  35.4462759  36.6212427  51.0071409
  35.7314269  35.5570018  49.9688925  59.0186820  39.1678914  47.4089095
  58.2650529  38.5986312  47.2533099  59.1534362  39.1341578  48.3559730
  44.4085449  44.0392316  43.0843814  44.2731123  44.8843852  43.5128662
  44.9495261  44.2411594  42.3209748  40.8952788  30.1183896  59.7458169
  40.5019734  29.5650095  60.4205814  41.7118928  30.4294474  60.1364687
  37.8614846  41.5567754  43.6571739  38.3739366  42.3511004  43.8077304
  38.5137559  40.8594045  43.5905341  39.6709731  44.6733510  45.7394492
  39.8476359  45.5951475  45.5515476  40.4666564  44.3591930  46.1688872
  43.8120749  31.5341775  57.3378426  44.5530463  32.1348928  57.2582888
  44.0438672  30.7919413  56.7796469  38.9562087  36.7198142  55.6156656
  38.8415602  35.8183400  55.9163755  38.1006605  36.9661839  55.2641472
  46.0353925  44.6615883  57.2144156  45.5917779  43.8752261  56.8965061
  46.6971138  44.8495033  56.5488047  40.7941046  46.1911684  51.7404835
  41.3448471  46.0628748  50.9681829  39.9552522  46.4906573  51.3899728
  48.1335163  44.9418683  55.2425558  48.1153638  45.7627564  54.7505827
  49.0555083  44.8172758  55.4675699  44.5908217  42.4562812  56.0849066
  45.1236554  41.6951100  55.8548374  44.0622298  42.1636464  56.8273220
  47.7577912  27.5622878  51.6142708  47.4142181  28.4524520  51.5381818
  48.1256875  27.3724536  50.7512293  35.8263763  39.8856408  44.4331310
  36.6638985  40.2953417  44.2165018  36.0042030  38.9455851  44.4031504
  47.7228195  37.5531489  40.1215143  47.2074818  38.3236094  40.3603530
  47.4505503  36.8796625  40.7448204  45.3075306  32.3981190  45.1800381
  44.4516902  32.0088040  45.0006020  45.7202258  32.4773151  44.3200167
  46.8374452  29.9327533  49.5791941  46.3339248  29.8957668  48.7659746
  47.1305059  30.8420276  49.6388598  43.0817338  30.0166263  48.5858123
  43.9470335  29.8209072  48.2264012  43.1494847  29.7876615  49.5127479
  52.6962469  40.3063844  42.0568316  51.9191912  39.9675003  41.6123478
  53.3753950  40.3116467  41.3823281  47.5114498  35.4258581  41.9474924
  47.2064634  35.7404730  42.7985067  48.4644940  35.5040001  41.9902257
  45.9560930  41.5848805  43.5967878  45.4282291  40.8501564  43.2841115
  45.4548433  42.3623481  43.3507846  50.9353776  39.7797825  48.7134924
  50.2777450  40.4697086  48.8015053  51.7394175  40.1694257  49.0568911
  40.6879657  32.2468471  45.9574489  41.2623409  32.0243652  45.2247682
  41.2750640  32.3157165  46.7103091  49.7459235  38.1342198  46.7638866
  50.2591116  38.7672190  47.2660576  50.3960459  37.5343393  46.3982226
  41.0149245  34.2772932  39.9770375  40.1786557  34.6147618  40.2979649
  40.8754014  34.1421912  39.0397512  42.9902325  29.1209720  44.6849559
  42.3366738  28.8058737  44.0606174  42.9482799  28.4985460  45.4109382
  44.1013530  39.4029015  36.6002851  43.1940592  39.1718268  36.7994000
  44.5984562  38.6066634  36.7876832  47.0081609  48.1126522  39.5199537
  46.3343308  48.4158219  40.1284495  47.3947431  48.9155602  39.1704994
  46.2240066  35.6091653  49.0097206  45.3062627  35.8306600  48.8518895
  46.6400209  35.6837964  48.1508914  47.0075113  37.0083069  44.1399887
  47.7546932  37.5204466  43.8307009  47.2766703  36.6867122  45.0004280
  45.2801763  39.5041610  41.1226841  44.3712983  39.2200643  41.2199311
  45.3096847  39.9240688  40.2630148  50.5121031  43.1148199  44.8918009
  50.0583358  42.2739109  44.9483199  49.8814998  43.7509598  45.2292789
  49.4553950  34.0440185  46.1218676  48.7176707  33.5317571  46.4528919
  49.7080724  33.6040567  45.3101953  48.9553970  44.9524696  45.8267827
  49.2476944  45.5129753  45.1080192  49.4652591  45.2453257  46.5820986
  49.5565578  26.8216437  46.7160445  49.8624455  25.9613801  46.4286360
  50.2818183  27.4134057  46.5159439  35.8489934  37.2247124  45.1042043
  35.6514334  36.6316485  44.3793110  35.2936598  36.9199334  45.8217982
  43.8286658  37.1170230  47.2236636  43.8835267  36.1644067  47.1479113
  43.0177860  37.2729669  47.7077935  44.9777851  41.0450353  38.4614920
  44.5397281  40.3286212  38.0020557  45.7188292  41.2726468  37.9000011
  41.7679017  35.7347290  44.9827015  40.9546883  36.0341461  45.3892207
  42.2638012  35.3402979  45.7001497  43.9187595  45.7305047  46.9161280
  43.8763774  45.9565893  45.9869812  44.8350294  45.4968422  47.0647081
  47.3653229  36.1989115  53.8141909  47.7202617  36.4260588  54.6736375
  48.0125360  36.5307491  53.1919164  53.0950966  39.3207550  44.5191238
  52.9568865  39.5109146  43.5912427  52.7387185  40.0826933  44.9759289
  41.2593092  33.3065646  50.5988250  41.8992472  33.1654405  49.9011214
  40.4270623  33.0200159  50.2226852  53.1220346  41.3884077  49.5302510
  53.5556852  41.2959367  50.3785564  53.8351926  41.3641578  48.8922526
  42.0353396  42.6068076  46.7123243  42.8293995  42.1118396  46.5105818
  41.3245088  42.0785939  46.3490948  46.8548241  44.9886172  51.0635610
  46.9085263  45.5577108  51.8313326  45.9863022  45.1588057  50.6989647
  38.3436160  36.7511158  42.7882995  37.4133748  36.6895613  43.0052957
  38.4393632  36.2287110  41.9919637  38.2621709  33.2765971  45.3761237
  38.5228526  34.1911304  45.2670397  39.0838881  32.8090413  45.5257850
  39.7346634  34.6903728  52.5460062  40.4069687  34.4821090  51.8972710
  38.9076420  34.4925814  52.1065294  53.9835895  41.4307778  52.0635395
  54.1771785  42.3353589  52.3094670  53.8836513  40.9715197  52.8973980
  45.6372206  31.3165669  54.5625722  44.9900121  32.0155618  54.4690199
  46.4073221  31.7501813  54.9301971  49.0451004  41.5814521  57.6376276
  48.8936510  41.3525072  56.7206359  49.0355683  42.5385122  57.6507621
  45.8136340  39.1546434  52.6222542  46.7428400  39.3057593  52.4491509
  45.3927370  39.2430454  51.7671189  44.6124672  43.1797098  50.3921080
  44.4735758  42.8115882  51.2647018  43.8239268  43.6944737  50.2205038
  45.2072824  48.2806194  41.7346616  45.3824580  47.8094238  42.5492239
  44.5205612  48.9071961  41.9627877  46.1629887  42.5578701  47.7809918
  45.8279720  42.5179471  48.6767567  45.6633833  41.8923417  47.3080328
  40.1374131  37.9646331  53.3062499  39.9993929  37.2326570  53.9074038
  41.0479055  37.8755231  53.0246686  49.0989079  39.9034735  38.0546977
  48.4818250  39.1781563  37.9580030  48.6305567  40.6644095  37.7114051
  42.7656432  37.6766290  52.7946178  43.4756050  37.0359482  52.7532797
  42.7225740  37.9279185  53.7172359  50.7543211  44.6133643  55.7152758
  50.6955757  43.9292863  55.0483341  51.1562729  45.3552633  55.2633384
  41.4785366  34.6631508  54.6141818  40.9422723  34.2122246  55.2663414
  40.8902074  34.7977417  53.8712282  39.7733909  51.4295557  48.5086476
  40.0130508  52.0614081  49.1865495  38.9303106  51.0783597  48.7951836
  40.8887625  34.1220159  37.1768281  40.0117091  34.0008960  36.8130528
  41.3645378  33.3306238  36.9247170  50.7560618  42.5773227  53.9466737
  49.8687397  42.2399149  54.0693136  51.3259169  41.8456259  54.1835503
  32.4089765  38.9097319  47.2709789  33.0960805  38.5959049  46.6830804
  32.2537894  39.8138684  46.9977040  37.2124487  33.7987516  51.6994812
  37.1282676  33.1913185  50.9645222  36.3907193  34.2896534  51.7004309
  44.2861771  47.2374680  50.9127980  44.2131943  48.0429651  51.4247285
  43.8439164  47.4366645  50.0876002  44.0751551  46.4746450  44.4230802
  43.2919073  47.0168130  44.5169026  44.7744296  46.9920429  44.8225043
  47.3848201  32.2841079  47.0665007  47.8816900  31.5311041  46.7466078
  46.6135182  32.3205396  46.5008217  55.2377958  37.9881445  48.7083299
  55.2267835  38.8706160  48.3377232  54.3695338  37.6352995  48.5137836
  46.7460455  47.1361514  53.0686139  47.4588427  47.7708978  52.9962041
  46.2550483  47.2325380  52.2526141  48.4677982  41.0412766  44.6403431
  47.5334260  41.1614229  44.4708135  48.6454650  40.1385233  44.3763441
  43.9683170  34.4258462  46.7936692  43.5980957  33.8729503  47.4817598
  44.4642262  33.8216596  46.2411692  51.8550533  36.8830086  45.1753465
  52.3210985  37.7158077  45.1013768  52.3058033  36.4175067  45.8798723
  41.7972368  44.8855957  53.8891710  42.4981828  45.5192440  54.0421104
  41.3267483  45.2270689  53.1287349  49.9226764  43.2273907  42.1739617
  50.1986608  43.1130502  43.0833491  49.0531263  42.8291392  42.1351790
  49.8267196  29.2510673  49.2144366  48.9130276  29.4814899  49.3826573
  50.2560297  29.3349117  50.0658399  49.5973654  37.4400565  51.7144260
  48.9445104  37.6876472  51.0596713  49.9754034  36.6264703  51.3806738
  46.5580828  47.4760258  45.8172431  46.7403223  46.6581914  46.2800183
  47.3813814  47.6927950  45.3797321  46.8922994  46.4028443  43.0787479
  47.4210760  45.8920897  42.4657641  47.1551213  46.0870973  43.9433012
  45.6461227  38.1820376  58.2010297  44.9701864  38.0814505  58.8712673
  46.4688861  38.0259589  58.6646295  37.3940086  44.4192312  50.8222813
  37.9793523  43.6736000  50.9550717  37.1964925  44.7296269  51.7059476
  40.2478742  47.4543560  45.8385255  39.5789117  47.9389687  45.3549295
  40.1091611  47.7012780  46.7528634  31.9857741  36.9897912  49.5427256
  32.0241841  36.4561503  50.3364374  31.4798034  36.4633118  48.9238233
  44.3884010  49.4887303  52.4367913  44.9402318  49.6518925  53.2016999
  44.7290204  50.0791741  51.7647938  39.3648503  31.8362453  53.0389798
  39.4289830  32.6977284  52.6267196  39.3015624  31.2236455  52.3062157
  38.8400776  33.9085585  56.6862832  39.4672815  33.5262663  57.3000357
  37.9828695  33.6899787  57.0518525  49.2394884  44.3148561  58.2916568
  49.7834788  44.9278519  57.7971523  48.6581729  44.8728139  58.8083581
  35.6166319  35.7162015  42.6181187  35.9119760  34.8072693  42.5648241
  34.7154354  35.6949754  42.2962189  47.5252397  47.4369279  49.4231596
  47.4003537  46.6359018  48.9142541  48.1831489  47.9315472  48.9345565
  39.1460566  33.7918011  48.6008736  38.4247151  34.4053979  48.4616209
  39.9353821  34.3275776  48.5225382  49.5887306  45.2378299  51.0511146
  48.6417641  45.1183650  50.9789472  49.9370079  44.3500797  51.1337407
  41.9486879  31.1272438  54.8749387  42.4721281  31.3734734  55.6375697
  41.7299212  31.9592472  54.4552525  37.3454160  33.3976112  42.7420512
  37.0166866  32.5173491  42.5595618  37.6993531  33.3423781  43.6296902
  46.5933739  45.0331015  47.2515498  46.4458702  44.1047722  47.4323068
  47.4187233  45.0551106  46.7672573  40.4595983  33.6849082  43.1095990
  40.7992056  34.2135003  42.3874598  40.9068104  34.0229488  43.8854557
  50.1967861  45.8559574  48.3380371  51.1214408  45.6502435  48.2004822
  50.0283164  45.6075975  49.2469712  43.1539424  32.0686133  52.5599058
  42.8136245  31.2693946  52.9619738  42.4478430  32.3687844  51.9875891
  43.8055896  29.1535445  51.0126381  44.6281965  28.6795923  50.8905271
  44.0493960  29.9325929  51.5125067  42.4464131  32.1823704  41.3089283
  43.1672493  32.5604956  40.8053000  41.8229435  32.9012580  41.4124261
  46.5895253  32.8868853  42.2447615  46.8058868  33.7693490  41.9436443
  46.1089321  32.4955066  41.5153257  41.3294475  35.8454566  48.8218360
  41.1839055  36.1594869  49.7142641  40.8519678  36.4639466  48.2689258
  43.1890858  32.8357114  48.8699249  43.1752426  31.9398207  48.5331547
  43.9063286  32.8427778  49.5037535  45.0416988  33.2694454  50.9152377
  44.7834766  34.1911525  50.9136707  44.5102029  32.8724889  51.6052841
  49.9863177  46.3745241  43.6942462  50.1600055  45.8091664  42.9416314
  50.4792068  47.1746136  43.5121952  35.8040137  38.3859910  51.7606021
  35.2593605  39.1619718  51.8926295  36.6819487  38.7330715  51.6025142
  42.5927754  31.7171494  44.1386819  42.7143665  30.7888140  44.3377707
  42.3029796  31.7310180  43.2265135  45.4618944  29.4026404  47.2753539
  45.4840641  29.4665738  46.3205519  45.8787003  28.5630913  47.4694045
  55.8402568  39.1381664  45.3132762  56.2833714  38.3888989  44.9151885
  54.9629079  39.1291800  44.9306494  50.9738350  45.6912006  40.7939360
  51.6689254  46.3118698  41.0126675  51.3161500  44.8407357  41.0691738
  36.5906159  37.5129806  54.6536178  35.8487895  37.6612442  55.2400808
  36.2698903  37.7738072  53.7902927  52.8729773  43.1411711  42.3226691
  53.3981097  43.4798984  41.5976011  52.7852125  42.2058726  42.1389826
  44.5349821  47.0545785  54.4516568  44.8436948  46.8094931  55.3239267
  45.3325303  47.2592423  53.9635438  44.5570433  49.2083694  46.6821944
  44.1175424  48.7160073  47.3754801  45.3078550  48.6656662  46.4414019
  37.0362772  45.3995235  46.6846572  37.8620792  45.0999007  46.3045216
  36.6856824  44.6302858  47.1336361  42.0044306  44.7521703  48.7544246
  41.3824315  44.0892408  48.4546474  42.6749173  44.7782835  48.0717894
  35.2371378  43.3181562  47.6435506  34.4003286  42.8903736  47.4619507
  35.2095023  43.5114005  48.5806297  42.0768833  33.2303491  58.3476752
  42.1256989  34.1065614  57.9654522  42.6191347  32.6880884  57.7748395
  52.5623679  43.7744615  57.6277889  51.7719223  43.7568754  57.0882388
  52.3257033  44.3132908  58.3826926  52.6821554  40.6237081  54.9410618
  52.7319559  40.4587088  55.8826140  52.5735477  39.7564340  54.5508498
  41.5657813  43.3025627  42.2302706  41.7145933  43.9861091  41.5769379
  42.3724256  43.2830717  42.7452162  49.9725316  36.6068009  56.2569924
  50.8735179  36.4674474  55.9653922  50.0473291  36.7722464  57.1968102
  44.3068122  33.9834864  55.1023111  43.4371431  34.2768430  54.8305699
  44.5427602  34.5675309  55.8230374  54.1839751  43.0434023  55.1852639
  53.8924559  43.4064003  56.0216100  53.5711882  42.3301031  55.0065971
  55.3835433  40.6086902  47.7055209  56.2182324  41.0476706  47.8692770
  55.5194562  40.1325556  46.8863455  52.4326939  38.1666637  53.6532697
  52.9081061  38.3594284  52.8451548  51.5092504  38.2225823  53.4076081
  39.3210446  39.3290804  43.2363775  39.0756487  38.4253134  43.4343986
  39.4906360  39.3307955  42.2943253  47.0107155  30.2014481  52.6188531
  47.5289099  30.9375508  52.2935020  46.6562288  30.5078474  53.4535290
  38.5906093  35.0619162  40.7349937  37.8975338  35.1363517  40.0789973
  38.3457845  34.2979506  41.2571454  47.2619750  26.6214763  48.1389428
  47.5421503  25.9537952  48.7649854  48.0470357  26.8143859  47.6264091
  45.0653218  45.7973757  39.7014454  44.4927185  46.4163944  39.2484926
  45.6386012  46.3473119  40.2354376  51.1328608  35.0432397  51.8861003
  52.0846031  35.1430495  51.9073227  50.9632058  34.2510666  52.3959087
  49.1542987  32.1287980  52.0720404  48.5592920  32.4092993  51.3766892
  48.8692684  32.6181881  52.8437145  48.2850478  46.0810907  40.8323036
  49.2181151  46.0156469  41.0355912  48.1973691  46.9167174  40.3737569
  50.9138495  45.3976778  37.7926984  50.8352126  45.0636641  38.6862742
  51.7348161  45.8898546  37.7918456  53.6116686  38.2638517  51.0003302
  53.5793006  37.3254518  51.1862986  54.2217309  38.3422554  50.2669127
  45.4500017  37.1334570  37.0430506  46.3959121  37.0040778  37.1118924
  45.0714262  36.3949232  37.5199935  53.7611174  35.0549560  51.0461586
  53.2450223  34.2708017  50.8591514  54.6451123  34.7268277  51.2108105
  51.4221901  28.7990576  47.0057398  51.2246722  28.4905664  47.8900730
  52.0321607  29.5252215  47.1355328  59.4293236  39.3254524  50.1409339
  60.1596624  39.0639812  50.7017042  58.8200181  38.5883246  50.1811407
  57.5108533  37.4662386  50.7383790  56.7841696  37.3318351  50.1300282
  57.0955820  37.7739215  51.5440508  45.3338709  41.1852316  58.5031163
  46.2541719  41.3630915  58.6971210  45.2988292  40.2408361  58.3510863
  43.6342934  35.0584546  36.9785392  42.7274389  34.7617659  37.0548105
  43.9118915  34.7614364  36.1119678  34.5520874  36.3790910  47.4284438
  34.2323658  35.5256218  47.1358812  34.0054302  36.5939488  48.1842405
  38.3300782  39.0953351  51.1453945  38.5486791  40.0270459  51.1641978
  38.7426555  38.7361325  51.9308748  45.2504999  29.6021436  43.1329633
  44.4405728  29.2568521  43.5084879  45.9389416  29.2928980  43.7217244
  47.1795548  28.6799483  44.7553930  47.7326586  29.0994936  45.4143953
  47.4165634  27.7535231  44.7976886  43.2028647  34.6686556  60.5356693
  43.1025374  35.6180913  60.4668785  42.9850189  34.3404795  59.6632764
  42.4041718  31.9171482  37.1197371  43.2660882  32.2426380  37.3793188
  42.5892063  31.1302977  36.6070437  34.4209134  39.9993821  49.3977560
  33.7272606  39.5847774  48.8847514  35.1682125  40.0414358  48.8010979
  50.5574355  30.7900008  44.2632594  49.9773024  31.4484812  43.8810646
  50.2910288  29.9677353  43.8520011  49.0077921  30.1905066  46.4653914
  49.5077700  30.3021600  45.6568233  49.6513529  29.8866119  47.1054723
  43.0659917  38.0983695  59.3521755  42.5826999  38.8984055  59.5585644
  43.1520856  38.1091640  58.3989199  36.3345877  39.9312075  47.2743574
  36.3116565  40.0299762  46.3225458  36.6446513  40.7777226  47.5960741
  38.9933255  41.9888230  51.3890189  39.9476508  41.9572172  51.3220120
  38.7945778  41.5278854  52.2040415  39.5832637  40.5589346  53.9560987
  40.4025526  41.0533425  53.9795824  39.8569444  39.6421314  53.9278554
  49.3399233  32.9500098  43.3188942  48.4525088  33.2349749  43.1009137
  49.7553222  32.7893862  42.4716219  52.6913769  32.9746619  47.0343281
  53.4674159  33.4643072  47.3067898  51.9661903  33.4004674  47.4915151
  55.1286328  33.6874239  48.0917222  55.7230818  33.4469975  47.3810530
  55.2012911  32.9681369  48.7190758  37.3483483  47.5307850  48.4060387
  37.2137951  46.7708250  47.8398385  36.9315546  48.2548749  47.9389176
  48.4842446  42.7144773  37.4136962  49.1878296  42.9194776  38.0294618
  47.7605095  43.2821535  37.6786046  49.3140257  38.4654634  43.5339232
  49.2575458  38.9223186  42.6946865  49.8668599  37.7045319  43.3562075
  53.1245063  34.2544366  44.3589352  52.8681997  33.8541002  45.1897559
  52.4997931  34.9688160  44.2339491  57.4357400  36.9940439  46.8660643
  56.8756958  37.0633629  47.6392205  56.8300904  36.8181424  46.1460139
  40.5052609  48.4277167  48.6178829  40.3884993  49.3722599  48.5157520
  39.6845055  48.1250728  49.0064629  50.3929144  43.1527302  39.4635422
  51.2274748  42.7208501  39.2812897  50.2313487  42.9809316  40.3912317
  50.0475036  39.6559416  40.8291761  49.9923840  39.4903687  39.8880206
  49.4221091  40.3635448  40.9853951  34.8367551  34.8927480  54.6553184
  35.4826414  34.3826434  55.1440409  34.6284702  35.6296162  55.2296609
  47.3620943  41.9608327  60.1545324  48.2312103  42.1348980  59.7931959
  46.8827695  42.7802744  60.0321054  43.3571161  29.1567525  40.4077080
  43.3449831  30.1009364  40.5645351  44.2494583  28.9737670  40.1136541
  41.5307123  49.0805428  51.8334758  42.4334370  49.1129039  52.1501253
  41.3044493  48.1505879  51.8481094  43.2860725  47.8336415  48.4944836
  42.3356356  47.8338277  48.3809209  43.5893211  47.0869150  47.9780871
  47.1723281  25.7510301  44.6623017  46.4055677  25.1968788  44.8079699
  47.5833986  25.8232170  45.5237168  39.1765042  32.0395097  58.7528198
  40.0396503  31.6831902  58.9631522  38.6030453  31.7008992  59.4403602
  59.0213419  53.6696953  49.5590599  59.6591829  53.5503701  48.8553939
  58.9034262  54.6177797  49.6178551  55.8303125  53.6224381  49.4952124
  55.4921637  53.5065446  48.6072658  56.6992893  53.2215547  49.4753130
  51.6889941  55.4759858  45.4849014  51.1254806  55.3849795  44.7165302
  51.5742336  54.6559762  45.9651507  56.3122908  54.7759233  55.4538329
  56.3011549  54.3812031  54.5818833  56.4743548  54.0425306  56.0472101
  49.2354373  56.9711049  48.3233235  50.0275665  56.6301874  47.9079534
  49.4751023  57.0806025  49.2435388  57.2689500  59.1430826  40.7963479
  56.6177479  59.7284906  40.4097493  58.0633862  59.6737021  40.8558517
  51.1945127  56.2319963  41.1950614  51.9676003  55.6848950  41.0563490
  51.5470526  57.0964212  41.4065075  53.0330169  57.5596345  54.4017513
  52.7420035  58.4641976  54.2864179  53.6687154  57.6012873  55.1161583
  53.9586376  54.9373194  50.9918873  54.5549948  54.7129216  50.2775836
  54.0161348  54.1957939  51.5944321  53.5311404  52.3912629  38.8269064
  53.7836925  51.8694150  38.0652527  52.5935964  52.2278774  38.9295747
  58.7464765  56.8321258  41.3332464  58.1110598  56.9055884  42.0453368
  58.4162171  57.4214856  40.6551543  53.2507693  54.2940735  41.0293439
  53.1343951  53.6185638  41.6974523  53.3609953  53.8073109  40.2125592
  55.5939234  53.7550882  44.7340128  55.2297441  53.2281503  45.4453049
  56.4506350  53.3649351  44.5606613  61.4988535  45.0445215  51.9971394
  61.1671860  45.9140626  51.7732609  60.9034148  44.7281499  52.6765424
  57.9920054  57.2457761  51.3967307  57.6920777  58.1482799  51.2883114
  57.6471114  56.9789944  52.2488460  51.4432536  53.6971557  47.4304011
  50.5183032  53.5647771  47.6381703  51.6916949  54.4765777  47.9273954
  61.3917198  49.7640301  49.0764744  60.4834075  49.6955709  48.7823505
  61.3404794  50.2412246  49.9046570  48.8041347  53.3404831  48.2647800
  48.9333728  53.5939310  49.1787212  48.1238798  53.9332539  47.9452455
  52.9740834  64.0102081  44.3638274  52.8964864  64.9609906  44.4426755
  52.3702478  63.6647953  45.0213201  59.1959776  56.1344540  55.1789770
  59.6043132  55.6926951  54.4344402  58.4737037  55.5597168  55.4323963
  55.5490846  51.0717147  52.5523327  56.3952041  51.4956560  52.6957976
  55.4889484  50.4150771  53.2461890  59.5188590  56.6945731  48.9342059
  58.8897453  56.8591445  48.2318127  59.1314253  57.1087340  49.7053023
  58.6990291  48.7321515  54.2104500  58.4551223  49.4863576  53.6738776
  58.9750222  49.1106863  55.0451747  60.6528754  55.2760128  52.8881766
  60.8645649  55.9191888  52.2116147  60.6058502  54.4422444  52.4203696
  58.2554983  47.8877948  49.7918338  57.3939462  48.1859202  50.0835076
  58.2817418  48.1048347  48.8599371  55.0716552  56.4320139  46.1992144
  55.5354898  56.7107842  45.4096766  54.8073350  55.5303583  46.0165234
  51.9640633  55.9791620  49.1371907  52.5341990  56.4078889  48.4989392
  52.5548745  55.6974205  49.8356093  47.7510772  50.8126844  48.3098843
  46.9609826  51.0684372  47.8338953  48.2422020  51.6275182  48.4150883
  61.7674582  58.1532083  51.0604123  62.5892026  57.7512270  50.7786805
  61.7636985  58.0500317  52.0120239  49.7025518  51.1771423  45.2682319
  48.9056681  51.2890117  45.7865815  49.4751110  51.5158075  44.4023210
  55.5331185  57.7016126  53.2164834  55.5975618  58.1636534  54.0523006
  54.8242109  57.0713491  53.3447144  46.0348475  51.0657334  50.7413833
  46.2856514  51.9504344  51.0071409  46.5708024  50.8861936  49.9688925
  69.8580575  54.4970832  47.4089095  69.1044283  53.9278230  47.2533099
  69.9928116  54.4633496  48.3559730  55.2479203  59.3684234  43.0843814
  55.1124878  60.2135770  43.5128662  55.7889016  59.5703511  42.3209748
  48.7008600  56.8859672  43.6571739  49.2133121  57.6802922  43.8077304
  49.3531313  56.1885962  43.5905341  50.5103485  60.0025428  45.7394492
  50.6870113  60.9243393  45.5515476  51.3060319  59.6883847  46.1688872
  54.6514504  46.8633693  57.3378426  55.3924217  47.4640846  57.2582888
  54.8832426  46.1211331  56.7796469  49.7955842  52.0490060  55.6156656
  49.6809357  51.1475317  55.9163755  48.9400359  52.2953757  55.2641472
  56.8747679  59.9907800  57.2144156  56.4311534  59.2044179  56.8965061
  57.5364893  60.1786951  56.5488047  51.6334801  61.5203602  51.7404835
  52.1842226  61.3920665  50.9681829  50.7946276  61.8198491  51.3899728
  58.9728917  60.2710600  55.2425558  58.9547393  61.0919481  54.7505827
  59.8948838  60.1464675  55.4675699  55.4301972  57.7854730  56.0849066
  55.9630308  57.0243018  55.8548374  54.9016053  57.4928382  56.8273220
  58.5971667  42.8914796  51.6142708  58.2535936  43.7816437  51.5381818
  58.9650629  42.7016453  50.7512293  46.6657517  55.2148326  44.4331310
  47.5032739  55.6245335  44.2165018  46.8435785  54.2747768  44.4031504
  56.1469060  47.7273108  45.1800381  55.2910657  47.3379958  45.0006020
  56.5596012  47.8065068  44.3200167  57.6768207  45.2619451  49.5791941
  57.1733003  45.2249586  48.7659746  57.9698814  46.1712194  49.6388598
  53.9211093  45.3458181  48.5858123  54.7864090  45.1500989  48.2264012
  53.9888602  45.1168532  49.5127479  63.5356223  55.6355761  42.0568316
  62.7585666  55.2966921  41.6123478  64.2147704  55.6408385  41.3823281
  56.7954684  56.9140722  43.5967878  56.2676046  56.1793482  43.2841115
  56.2942187  57.6915399  43.3507846  61.7747530  55.1089743  48.7134924
  61.1171205  55.7989004  48.8015053  62.5787930  55.4986175  49.0568911
  51.5273412  47.5760389  45.9574489  52.1017164  47.3535570  45.2247682
  52.1144394  47.6449083  46.7103091  60.5852989  53.4634115  46.7638866
  61.0984871  54.0964107  47.2660576  61.2354213  52.8635311  46.3982226
  51.8542999  49.6064850  39.9770375  51.0180311  49.9439536  40.2979649
  51.7147769  49.4713829  39.0397512  53.8296080  44.4501637  44.6849559
  53.1760492  44.1350655  44.0606174  53.7876554  43.8277378  45.4109382
  54.9407285  54.7320932  36.6002851  54.0334346  54.5010186  36.7994000
  55.4378316  53.9358552  36.7876832  57.8475363  63.4418440  39.5199537
  57.1737062  63.7450136  40.1284495  58.2341185  64.2447520  39.1704994
  57.0633820  50.9383571  49.0097206  56.1456381  51.1598518  48.8518895
  57.4793964  51.0129881  48.1508914  59.7947725  60.2816614  45.8267827
  60.0870699  60.8421671  45.1080192  60.3046345  60.5745175  46.5820986
  46.6883688  52.5539041  45.1042043  46.4908088  51.9608402  44.3793110
  46.1330352  52.2491252  45.8217982  54.6680412  52.4462148  47.2236636
  54.7229022  51.4935984  47.1479113  53.8571614  52.6021587  47.7077935
  55.8171606  56.3742271  38.4614920  55.3791036  55.6578130  38.0020557
  56.5582047  56.6018386  37.9000011  52.6072772  51.0639208  44.9827015
  51.7940637  51.3633378  45.3892207  53.1031766  50.6694896  45.7001497
  54.7581350  61.0596965  46.9161280  54.7157529  61.2857811  45.9869812
  55.6744049  60.8260339  47.0647081  58.2046984  51.5281032  53.8141909
  58.5596371  51.7552505  54.6736375  58.8519115  51.8599409  53.1919164
  63.9344721  54.6499468  44.5191238  63.7962619  54.8401064  43.5912427
  63.5780939  55.4118851  44.9759289  52.0986847  48.6357563  50.5988250
  52.7386226  48.4946322  49.9011214  51.2664377  48.3492077  50.2226852
  52.8747151  57.9359994  46.7123243  53.6687749  57.4410314  46.5105818
  52.1638843  57.4077857  46.3490948  57.6941995  60.3178089  51.0635610
  57.7479017  60.8869026  51.8313326  56.8256776  60.4879974  50.6989647
  49.1829914  52.0803075  42.7882995  48.2527502  52.0187531  43.0052957
  49.2787386  51.5579028  41.9919637  49.1015463  48.6057888  45.3761237
  49.3622280  49.5203221  45.2670397  49.9232635  48.1382331  45.5257850
  50.5740388  50.0195645  52.5460062  51.2463442  49.8113008  51.8972710
  49.7470175  49.8217731  52.1065294  64.8229650  56.7599696  52.0635395
  65.0165540  57.6645506  52.3094670  64.7230268  56.3007115  52.8973980
  56.4765960  46.6457586  54.5625722  55.8293875  47.3447536  54.4690199
  57.2466976  47.0793730  54.9301971  56.6530095  54.4838351  52.6222542
  57.5822155  54.6349511  52.4491509  56.2321125  54.5722372  51.7671189
  55.4518427  58.5089016  50.3921080  55.3129512  58.1407800  51.2647018
  54.6633023  59.0236655  50.2205038  56.0466579  63.6098112  41.7346616
  56.2218334  63.1386155  42.5492239  55.3599367  64.2363878  41.9627877
  57.0023642  57.8870618  47.7809918  56.6673474  57.8471388  48.6767567
  56.5027587  57.2215334  47.3080328  50.9767886  53.2938248  53.3062499
  50.8387684  52.5618487  53.9074038  51.8872809  53.2047148  53.0246686
  53.6050186  53.0058208  52.7946178  54.3149805  52.3651400  52.7532797
  53.5619495  53.2571103  53.7172359  52.3179120  49.9923426  54.6141818
  51.7816477  49.5414164  55.2663414  51.7295829  50.1269334  53.8712282
  50.6127664  66.7587475  48.5086476  50.8524262  67.3905999  49.1865495
  49.7696860  66.4075515  48.7951836  51.7281379  49.4512077  37.1768281
  50.8510846  49.3300878  36.8130528  52.2039132  48.6598155  36.9247170
  61.5954372  57.9065145  53.9466737  60.7081151  57.5691067  54.0693136
  62.1652923  57.1748176  54.1835503  43.2483519  54.2389237  47.2709789
  43.9354559  53.9250967  46.6830804  43.0931648  55.1430601  46.9977040
  48.0518242  49.1279433  51.6994812  47.9676430  48.5205103  50.9645222
  47.2300948  49.6188452  51.7004309  55.1255526  62.5666597  50.9127980
  55.0525697  63.3721569  51.4247285  54.6832919  62.7658563  50.0876002
  54.9145305  61.8038367  44.4230802  54.1312827  62.3460048  44.5169026
  55.6138050  62.3212347  44.8225043  58.2241955  47.6132997  47.0665007
  58.7210655  46.8602959  46.7466078  57.4528937  47.6497313  46.5008217
  66.0771713  53.3173362  48.7083299  66.0661589  54.1998078  48.3377232
  65.2089092  52.9644913  48.5137836  57.5854209  62.4653431  53.0686139
  58.2982181  63.1000896  52.9962041  57.0944238  62.5617297  52.2526141
  59.3071736  56.3704684  44.6403431  58.3728015  56.4906146  44.4708135
  59.4848405  55.4677151  44.3763441  54.8076924  49.7550380  46.7936692
  54.4374712  49.2021420  47.4817598  55.3036017  49.1508513  46.2411692
  52.6366123  60.2147875  53.8891710  53.3375582  60.8484358  54.0421104
  52.1661238  60.5562606  53.1287349  60.7620519  58.5565825  42.1739617
  61.0380362  58.4422419  43.0833491  59.8925017  58.1583309  42.1351790
  60.6660950  44.5802590  49.2144366  59.7524030  44.8106817  49.3826573
  61.0954052  44.6641034  50.0658399  60.4367409  52.7692482  51.7144260
  59.7838859  53.0168390  51.0596713  60.8147789  51.9556620  51.3806738
  57.3974583  62.8052175  45.8172431  57.5796977  61.9873831  46.2800183
  58.2207569  63.0219868  45.3797321  57.7316748  61.7320361  43.0787479
  58.2604515  61.2212815  42.4657641  57.9944968  61.4162891  43.9433012
  48.2333841  59.7484230  50.8222813  48.8187278  59.0027918  50.9550717
  48.0358679  60.0588187  51.7059476  51.0872496  62.7835477  45.8385255
  50.4182871  63.2681605  45.3549295  50.9485366  63.0304698  46.7528634
  42.8251496  52.3189830  49.5427256  42.8635595  51.7853421  50.3364374
  42.3191788  51.7925036  48.9238233  55.2277765  64.8179221  52.4367913
  55.7796073  64.9810842  53.2016999  55.5683958  65.4083659  51.7647938
  50.2042258  47.1654371  53.0389798  50.2683584  48.0269201  52.6267196
  50.1409378  46.5528372  52.3062157  49.6794530  49.2377503  56.6862832
  50.3066569  48.8554580  57.3000357  48.8222449  49.0191705  57.0518525
  60.0788639  59.6440478  58.2916568  60.6228543  60.2570437  57.7971523
  59.4975484  60.2020057  58.8083581  46.4560073  51.0453932  42.6181187
  46.7513514  50.1364611  42.5648241  45.5548109  51.0241672  42.2962189
  58.3646152  62.7661196  49.4231596  58.2397291  61.9650936  48.9142541
  59.0225243  63.2607390  48.9345565  49.9854320  49.1209929  48.6008736
  49.2640906  49.7345897  48.4616209  50.7747576  49.6567694  48.5225382
  60.4281060  60.5670216  51.0511146  59.4811396  60.4475568  50.9789472
  60.7763833  59.6792714  51.1337407  52.7880634  46.4564355  54.8749387
  53.3115035  46.7026652  55.6375697  52.5692967  47.2884390  54.4552525
  48.1847915  48.7268030  42.7420512  47.8560621  47.8465409  42.5595618
  48.5387285  48.6715699  43.6296902  57.4327494  60.3622933  47.2515498
  57.2852456  59.4339640  47.4323068  58.2580987  60.3843023  46.7672573
  51.2989738  49.0141000  43.1095990  51.6385810  49.5426921  42.3874598
  51.7461858  49.3521406  43.8854557  53.9933179  47.3978050  52.5599058
  53.6529999  46.5985863  52.9619738  53.2872185  47.6979761  51.9875891
  54.6449651  44.4827363  51.0126381  55.4675720  44.0087841  50.8905271
  54.8887714  45.2617847  51.5125067  52.1688229  51.1746483  48.8218360
  52.0232810  51.4886787  49.7142641  51.6913433  51.7931384  48.2689258
  54.0284612  48.1649031  48.8699249  54.0146181  47.2690125  48.5331547
  54.7457040  48.1719695  49.5037535  55.8810743  48.5986372  50.9152377
  55.6228521  49.5203442  50.9136707  55.3495783  48.2016806  51.6052841
  60.8256932  61.7037159  43.6942462  60.9993809  61.1383581  42.9416314
  61.3185823  62.5038054  43.5121952  46.6433891  53.7151828  51.7606021
  46.0987360  54.4911636  51.8926295  47.5213241  54.0622632  51.6025142
  53.4321508  47.0463412  44.1386819  53.5537419  46.1180058  44.3377707
  53.1423550  47.0602098  43.2265135  56.3012698  44.7318322  47.2753539
  56.3234395  44.7957655  46.3205519  56.7180757  43.8922831  47.4694045
  66.6796323  54.4673582  45.3132762  67.1227469  53.7180907  44.9151885
  65.8022833  54.4583718  44.9306494  61.8132104  61.0203923  40.7939360
  62.5083009  61.6410616  41.0126675  62.1555254  60.1699274  41.0691738
  47.4299913  52.8421724  54.6536178  46.6881649  52.9904359  55.2400808
  47.1092658  53.1029990  53.7902927  63.7123527  58.4703629  42.3226691
  64.2374851  58.8090901  41.5976011  63.6245880  57.5350644  42.1389826
  55.3743576  62.3837702  54.4516568  55.6830702  62.1386849  55.3239267
  56.1719058  62.5884341  53.9635438  55.3964188  64.5375612  46.6821944
  54.9569178  64.0451991  47.3754801  56.1472305  63.9948580  46.4414019
  47.8756527  60.7287153  46.6846572  48.7014547  60.4290925  46.3045216
  47.5250579  59.9594775  47.1336361  52.8438060  60.0813621  48.7544246
  52.2218069  59.4184326  48.4546474  53.5142927  60.1074753  48.0717894
  46.0765132  58.6473479  47.6435506  45.2397040  58.2195654  47.4619507
  46.0488777  58.8405923  48.5806297  52.4051567  58.6317544  42.2302706
  52.5539687  59.3153009  41.5769379  53.2118010  58.6122634  42.7452162
  55.1461876  49.3126782  55.1023111  54.2765185  49.6060348  54.8305699
  55.3821356  49.8967227  55.8230374  65.0233505  58.3725940  55.1852639
  64.7318313  58.7355921  56.0216100  64.4105636  57.6592949  55.0065971
  66.2229187  55.9378820  47.7055209  67.0576079  56.3768624  47.8692770
  66.3588316  55.4617473  46.8863455  63.2720693  53.4958555  53.6532697
  63.7474815  53.6886201  52.8451548  62.3486259  53.5517741  53.4076081
  50.1604200  54.6582722  43.2363775  49.9150242  53.7545052  43.4343986
  50.3300115  54.6599873  42.2943253  57.8500910  45.5306398  52.6188531
  58.3682854  46.2667425  52.2935020  57.4956043  45.8370392  53.4535290
  49.4299848  50.3911080  40.7349937  48.7369092  50.4655435  40.0789973
  49.1851599  49.6271423  41.2571454  58.1013504  41.9506681  48.1389428
  58.3815258  41.2829870  48.7649854  58.8864111  42.1435777  47.6264091
  55.9046973  61.1265675  39.7014454  55.3320940  61.7455862  39.2484926
  56.4779766  61.6765037  40.2354376  61.9722362  50.3724315  51.8861003
  62.9239785  50.4722413  51.9073227  61.8025813  49.5802584  52.3959087
  59.9936742  47.4579898  52.0720404  59.3986674  47.7384911  51.3766892
  59.7086439  47.9473799  52.8437145  59.1244232  61.4102825  40.8323036
  60.0574906  61.3448387  41.0355912  59.0367445  62.2459092  40.3737569
  61.7532249  60.7268695  37.7926984  61.6745881  60.3928559  38.6862742
  62.5741916  61.2190463  37.7918456  64.4510440  53.5930435  51.0003302
  64.4186760  52.6546435  51.1862986  65.0611064  53.6714471  50.2669127
  56.2893771  52.4626488  37.0430506  57.2352876  52.3332696  37.1118924
  55.9108016  51.7241150  37.5199935  54.4736688  50.3876464  36.9785392
  53.5668144  50.0909577  37.0548105  54.7512669  50.0906282  36.1119678
  45.3914629  51.7082827  47.4284438  45.0717413  50.8548136  47.1358812
  44.8448057  51.9231406  48.1842405  49.1694536  54.4245268  51.1453945
  49.3880546  55.3562376  51.1641978  49.5820310  54.0653243  51.9308748
  56.0898754  44.9313354  43.1329633  55.2799482  44.5860439  43.5084879
  56.7783171  44.6220897  43.7217244  58.0189302  44.0091401  44.7553930
  58.5720341  44.4286854  45.4143953  58.2559389  43.0827149  44.7976886
  45.2602889  55.3285739  49.3977560  44.5666360  54.9139692  48.8847514
  46.0075880  55.3706275  48.8010979  59.8471676  45.5196983  46.4653914
  60.3471454  45.6313518  45.6568233  60.4907284  45.2158036  47.1054723
  47.1739631  55.2603993  47.2743574  47.1510319  55.3591680  46.3225458
  47.4840268  56.1069143  47.5960741  49.8327009  57.3180148  51.3890189
  50.7870263  57.2864090  51.3220120  49.6339533  56.8570771  52.2040415
  50.4226391  55.8881264  53.9560987  51.2419280  56.3825342  53.9795824
  50.6963199  54.9713232  53.9278554  48.1877238  62.8599767  48.4060387
  48.0531706  62.1000168  47.8398385  47.7709300  63.5840667  47.9389176
  59.3236201  58.0436691  37.4136962  60.0272051  58.2486693  38.0294618
  58.5998850  58.6113453  37.6786046  51.3446364  63.7569084  48.6178829
  51.2278748  64.7014517  48.5157520  50.5238810  63.4542646  49.0064629
  61.2322898  58.4819220  39.4635422  62.0668502  58.0500418  39.2812897
  61.0707241  58.3101234  40.3912317  45.6761305  50.2219398  54.6553184
  46.3220169  49.7118352  55.1440409  45.4678456  50.9588079  55.2296609
  54.1964916  44.4859442  40.4077080  54.1843586  45.4301282  40.5645351
  55.0888338  44.3029588  40.1136541  52.3700878  64.4097346  51.8334758
  53.2728125  64.4420956  52.1501253  52.1438248  63.4797797  51.8481094
  54.1254480  63.1628333  48.4944836  53.1750111  63.1630194  48.3809209
  54.4286966  62.4161067  47.9780871  58.0117035  41.0802219  44.6623017
  57.2449431  40.5260706  44.8079699  58.4227740  41.1524088  45.5237168
  50.0158796  47.3687015  58.7528198  50.8790258  47.0123820  58.9631522
  49.4424207  47.0300910  59.4403602  62.0338881  71.5611880  41.1950614
  62.8069757  71.0140868  41.0563490  62.3864280  72.4256130  41.4065075
  64.3705159  67.7204547  38.8269064  64.6230680  67.1986068  38.0652527
  63.4329718  67.5570692  38.9295747  64.0901448  69.6232653  41.0293439
  63.9737706  68.9477556  41.6974523  64.2003708  69.1365026  40.2125592
  66.0738476  64.1132699  39.7301476  66.2412878  64.9812936  40.0971947
  65.8835645  64.2759981  38.8062766  63.8134589  79.3393999  44.3638274
  63.7358618  80.2901824  44.4426755  63.2096232  78.9939871  45.0213201
  56.8742230  66.3949252  50.7413833  57.1250268  67.2796262  51.0071409
  57.4101778  66.2153854  49.9688925  66.0872958  74.6976152  43.0843814
  65.9518632  75.5427687  43.5128662  66.6282770  74.8995429  42.3209748
  59.5402355  72.2151590  43.6571739  60.0526875  73.0094840  43.8077304
  60.1925068  71.5177880  43.5905341  57.5051272  70.5440244  44.4331310
  58.3426494  70.9537252  44.2165018  57.6829539  69.6039686  44.4031504
  62.6936754  64.9356767  39.9770375  61.8574066  65.2731454  40.2979649
  62.5541523  64.8005747  39.0397512  65.7801039  70.0612850  36.6002851
  64.8728101  69.8302104  36.7994000  66.2772071  69.2650469  36.7876832
  68.6869118  78.7710357  39.5199537  68.0130817  79.0742054  40.1284495
  69.0734940  79.5739438  39.1704994  59.9409218  63.9349806  45.3761237
  60.2016035  64.8495139  45.2670397  60.7626390  63.4674248  45.5257850
  66.8860333  78.9390030  41.7346616  67.0612089  78.4678073  42.5492239
  66.1993121  79.5655796  41.9627877  61.4521418  82.0879393  48.5086476
  61.6918017  82.7197917  49.1865495  60.6090615  81.7367433  48.7951836
  62.5675134  64.7803995  37.1768281  61.6904600  64.6592795  36.8130528
  63.0432887  63.9890073  36.9247170  54.0877274  69.5681154  47.2709789
  54.7748314  69.2542884  46.6830804  53.9325403  70.4722519  46.9977040
  65.9649280  77.8958515  50.9127980  65.8919452  78.7013486  51.4247285
  65.5226673  78.0950481  50.0876002  65.7539060  77.1330285  44.4230802
  64.9706582  77.6751965  44.5169026  66.4531805  77.6504265  44.8225043
  68.2368337  78.1344093  45.8172431  68.4190732  77.3165749  46.2800183
  69.0601323  78.3511785  45.3797321  68.5710503  77.0612278  43.0787479
  69.0998269  76.5504733  42.4657641  68.8338722  76.7454808  43.9433012
  61.9266251  78.1127395  45.8385255  61.2576626  78.5973523  45.3549295
  61.7879120  78.3596615  46.7528634  53.6645250  67.6481748  49.5427256
  53.7029350  67.1145338  50.3364374  53.1585543  67.1216953  48.9238233
  66.0671519  80.1471138  52.4367913  66.6189827  80.3102760  53.2016999
  66.4077713  80.7375576  51.7647938  57.2953828  66.3745850  42.6181187
  57.5907269  65.4656528  42.5648241  56.3941863  66.3533589  42.2962189
  69.2039906  78.0953114  49.4231596  69.0791046  77.2942854  48.9142541
  69.8618997  78.5899307  48.9345565  59.0241669  64.0559948  42.7420512
  58.6954375  63.1757326  42.5595618  59.3781040  64.0007616  43.6296902
  64.1251639  62.8407539  41.3089283  64.8460002  63.2188792  40.8053000
  63.5016944  63.5596416  41.4124261  71.6650686  77.0329076  43.6942462
  71.8387564  76.4675499  42.9416314  72.1579577  77.8329971  43.5121952
  57.4827646  69.0443746  51.7606021  56.9381114  69.8203554  51.8926295
  58.3606996  69.3914550  51.6025142  66.2357942  79.8667530  46.6821944
  65.7962933  79.3743908  47.3754801  66.9866059  79.3240497  46.4414019
  63.2445322  73.9609462  42.2302706  63.3933442  74.6444926  41.5769379
  64.0511765  73.9414552  42.7452162  60.2693602  65.7202997  40.7349937
  59.5762847  65.7947352  40.0789973  60.0245354  64.9563341  41.2571454
  66.7440727  76.4557593  39.7014454  66.1714694  77.0747780  39.2484926
  67.3173521  77.0056954  40.2354376  69.9637987  76.7394743  40.8323036
  70.8968660  76.6740304  41.0355912  69.8761200  77.5751010  40.3737569
  72.5926004  76.0560613  37.7926984  72.5139635  75.7220477  38.6862742
  73.4135670  76.5482381  37.7918456  67.1287526  67.7918405  37.0430506
  68.0746630  67.6624613  37.1118924  66.7501771  67.0533067  37.5199935
  65.3130443  65.7168382  36.9785392  64.4061898  65.4201494  37.0548105
  65.5906424  65.4198200  36.1119678  56.2308383  67.0374745  47.4284438
  55.9111167  66.1840053  47.1358812  55.6841811  67.2523323  48.1842405
  68.8583057  59.3383318  44.7553930  69.4114095  59.7578772  45.4143953
  69.0953143  58.4119066  44.7976886  64.0829227  62.5755317  37.1197371
  64.9448391  62.9010215  37.3793188  64.2679571  61.7886813  36.6070437
  56.0996643  70.6577657  49.3977560  55.4060115  70.2431609  48.8847514
  56.8469634  70.6998193  48.8010979  58.0133386  70.5895910  47.2743574
  57.9904074  70.6883598  46.3225458  58.3234022  71.4361061  47.5960741
  59.0270992  78.1891685  48.4060387  58.8925460  77.4292086  47.8398385
  58.6103055  78.9132585  47.9389176  70.1629955  73.3728608  37.4136962
  70.8665805  73.5778611  38.0294618  69.4392604  73.9405370  37.6786046
  62.1840118  79.0861002  48.6178829  62.0672502  80.0306434  48.5157520
  61.3632564  78.7834563  49.0064629  56.5155060  65.5511315  54.6553184
  57.1613923  65.0410269  55.1440409  56.3072211  66.2879997  55.2296609
  65.0358670  59.8151360  40.4077080  65.0237340  60.7593200  40.5645351
  65.9282092  59.6321505  40.1136541  63.2094632  79.7389264  51.8334758
  64.1121879  79.7712874  52.1501253  62.9832002  78.8089715  51.8481094
  64.9648234  78.4920250  48.4944836  64.0143865  78.4922112  48.3809209
  65.2680720  77.7452985  47.9780871  80.7000928  84.3280789  49.5590599
  81.3379338  84.2087536  48.8553939  80.5821771  85.2761633  49.6178551
  77.5090634  84.2808217  49.4952124  77.1709146  84.1649282  48.6072658
  78.3780402  83.8799382  49.4753130  73.3677450  86.1343693  45.4849014
  72.8042315  86.0433630  44.7165302  73.2529845  85.3143598  45.9651507
  77.9910417  85.4343069  55.4538329  77.9799058  85.0395867  54.5818833
  78.1531057  84.7009141  56.0472101  70.9141882  87.6294885  48.3233235
  71.7063174  87.2885709  47.9079534  71.1538532  87.7389860  49.2435388
  78.9477008  89.8014661  40.7963479  78.2964988  90.3868741  40.4097493
  79.7421371  90.3320856  40.8558517  72.8732636  86.8903798  41.1950614
  73.6463512  86.3432785  41.0563490  73.2258035  87.7548047  41.4065075
  74.7117678  88.2180180  54.4017513  74.4207544  89.1225811  54.2864179
  75.3474663  88.2596708  55.1161583  75.6373885  85.5957029  50.9918873
  76.2337457  85.3713051  50.2775836  75.6948857  84.8541774  51.5944321
  75.2098913  83.0496464  38.8269064  75.4624434  82.5277985  38.0652527
  74.2723473  82.8862610  38.9295747  80.2542196  82.0532243  46.6343807
  81.0405286  81.6351666  46.2834224  80.5180901  82.9578335  46.8025455
  80.4252274  87.4905093  41.3332464  79.7898107  87.5639719  42.0453368
  80.0949680  88.0798692  40.6551543  85.6550623  81.9907476  47.5376785
  86.3875795  81.4206693  47.7714615  84.8989979  81.6029076  47.9783291
  74.9295202  84.9524570  41.0293439  74.8131460  84.2769474  41.6974523
  75.0397462  84.4656944  40.2125592  77.2726743  84.4134717  44.7340128
  76.9084950  83.8865338  45.4453049  78.1293859  84.0233186  44.5606613
  76.9132230  79.4424617  39.7301476  77.0806632  80.3104853  40.0971947
  76.7229399  79.6051899  38.8062766  79.6707563  87.9041596  51.3967307
  79.3708286  88.8066635  51.2883114  79.3258623  87.6373779  52.2488460
  73.1220045  84.3555393  47.4304011  72.1970541  84.2231607  47.6381703
  73.3704458  85.1349612  47.9273954  83.0704707  80.4224136  49.0764744
  82.1621584  80.3539544  48.7823505  83.0192303  80.8996081  49.9046570
  76.8921451  81.8982274  40.7148143  76.7721076  82.3439325  41.5533623
  76.1974039  82.2467592  40.1561681  70.4828856  83.9988666  48.2647800
  70.6121237  84.2523145  49.1787212  69.8026307  84.5916374  47.9452455
  74.6528343  94.6685916  44.3638274  74.5752373  95.6193741  44.4426755
  74.0489987  94.3231789  45.0213201  77.1445573  81.8413782  57.0199641
  76.3678907  82.4007702  57.0102506  77.7836136  82.3270565  57.5414511
  84.9366353  78.6240574  50.8542618  84.2940734  78.9173108  50.2082413
  84.4321282  78.5093495  51.6595815  82.5906517  82.3703748  41.5428477
  83.5024373  82.6031134  41.3676175  82.0816164  82.9540792  40.9803556
  75.3991945  84.6499235  56.5817608  76.1406630  85.1884279  56.3052432
  74.6928931  85.2765524  56.7389160  80.8747285  86.7928375  55.1789770
  81.2830641  86.3510786  54.4344402  80.1524546  86.2181003  55.4323963
  77.2278355  81.7300982  52.5523327  78.0739550  82.1540396  52.6957976
  77.1676993  81.0734607  53.2461890  81.1976099  87.3529566  48.9342059
  80.5684962  87.5175280  48.2318127  80.8101762  87.7671176  49.7053023
  85.0765331  88.2884004  46.2886422  84.3916370  88.6682905  45.7383456
  85.1609181  88.8979331  47.0218370  80.3777800  79.3905351  54.2104500
  80.1338732  80.1447411  53.6738776  80.6537731  79.7690698  55.0451747
  82.3316263  85.9343963  52.8881766  82.5433158  86.5775723  52.2116147
  82.2846011  85.1006280  52.4203696  79.9342492  78.5461784  49.7918338
  79.0726971  78.8443037  50.0835076  79.9604927  78.7632183  48.8599371
  76.7504061  87.0903974  46.1992144  77.2142407  87.3691677  45.4096766
  76.4860859  86.1887419  46.0165234  73.6428142  86.6375456  49.1371907
  74.2129499  87.0662724  48.4989392  74.2336254  86.3558040  49.8356093
  75.6872947  83.2127127  43.0081709  76.3896991  83.6648170  43.4755635
  75.3553576  82.5710945  43.6361602  74.1353309  81.8038883  57.3832918
  73.5051969  82.4855164  57.6168315  74.0289397  81.6921965  56.4386057
  69.4298281  81.4710679  48.3098843  68.6397335  81.7268208  47.8338953
  69.9209529  82.2859017  48.4150883  83.4462091  88.8115918  51.0604123
  84.2679535  88.4096106  50.7786805  83.4424494  88.7084153  52.0120239
  71.3813027  81.8355258  45.2682319  70.5844190  81.9473953  45.7865815
  71.1538619  82.1741911  44.4023210  77.2118694  88.3599962  53.2164834
  77.2763127  88.8220369  54.0523006  76.5029618  87.7297327  53.3447144
  67.7135984  81.7241170  50.7413833  67.9644023  82.6088180  51.0071409
  68.2495533  81.5445771  49.9688925  91.5368084  85.1554667  47.4089095
  90.7831792  84.5862065  47.2533099  91.6715625  85.1217331  48.3559730
  76.9266712  90.0268069  43.0843814  76.7912387  90.8719605  43.5128662
  77.4676525  90.2287347  42.3209748  70.3796109  87.5443507  43.6571739
  70.8920630  88.3386757  43.8077304  71.0318822  86.8469798  43.5905341
  72.1890994  90.6609264  45.7394492  72.3657622  91.5827228  45.5515476
  72.9847828  90.3467683  46.1688872  71.4743351  82.7073895  55.6156656
  71.3596866  81.8059153  55.9163755  70.6187868  82.9537592  55.2641472
  78.5535188  90.6491636  57.2144156  78.1099043  89.8628014  56.8965061
  79.2152402  90.8370786  56.5488047  73.3122310  92.1787437  51.7404835
  73.8629735  92.0504501  50.9681829  72.4733785  92.4782326  51.3899728
  80.6516426  90.9294436  55.2425558  80.6334902  91.7503317  54.7505827
  81.5736347  90.8048511  55.4675699  77.1089481  88.4438565  56.0849066
  77.6417817  87.6826853  55.8548374  76.5803562  88.1512217  56.8273220
  68.3445026  85.8732162  44.4331310  69.1820248  86.2829170  44.2165018
  68.5223294  84.9331604  44.4031504  80.2409458  83.5407242  40.1215143
  79.7256082  84.3111847  40.3603530  79.9686767  82.8672378  40.7448204
  77.8256569  78.3856943  45.1800381  76.9698166  77.9963793  45.0006020
  78.2383521  78.4648904  44.3200167  85.2143732  86.2939597  42.0568316
  84.4373175  85.9550756  41.6123478  85.8935213  86.2992220  41.3823281
  80.0295761  81.4134334  41.9474924  79.7245897  81.7280483  42.7985067
  80.9826204  81.4915754  41.9902257  78.4742193  87.5724558  43.5967878
  77.9463555  86.8377317  43.2841115  77.9729696  88.3499234  43.3507846
  83.4535039  85.7673578  48.7134924  82.7958714  86.4572839  48.8015053
  84.2575439  86.1570010  49.0568911  82.2640498  84.1217951  46.7638866
  82.7772380  84.7547943  47.2660576  82.9141722  83.5219146  46.3982226
  73.5330508  80.2648685  39.9770375  72.6967820  80.6023371  40.2979649
  73.3935278  80.1297665  39.0397512  76.6194793  85.3904768  36.6002851
  75.7121855  85.1594021  36.7994000  77.1165825  84.5942387  36.7876832
  79.5262872  94.1002275  39.5199537  78.8524571  94.4033972  40.1284495
  79.9128694  94.9031355  39.1704994  78.7421329  81.5967406  49.0097206
  77.8243890  81.8182353  48.8518895  79.1581473  81.6713717  48.1508914
  79.5256377  82.9958822  44.1399887  80.2728196  83.5080219  43.8307009
  79.7947966  82.6742875  45.0004280  77.7983027  85.4917363  41.1226841
  76.8894246  85.2076396  41.2199311  77.8278111  85.9116441  40.2630148
  83.0302294  89.1023952  44.8918009  82.5764621  88.2614862  44.9483199
  82.3996261  89.7385351  45.2292789  81.9735214  80.0315938  46.1218676
  81.2357971  79.5193324  46.4528919  82.2261987  79.5916320  45.3101953
  81.4735234  90.9400449  45.8267827  81.7658208  91.5005506  45.1080192
  81.9833854  91.2329010  46.5820986  68.3671197  83.2122877  45.1042043
  68.1695597  82.6192238  44.3793110  67.8117861  82.9075087  45.8217982
  76.3467921  83.1045983  47.2236636  76.4016531  82.1519820  47.1479113
  75.5359123  83.2605422  47.7077935  77.4959115  87.0326106  38.4614920
  77.0578545  86.3161965  38.0020557  78.2369556  87.2602221  37.9000011
  74.2860281  81.7223043  44.9827015  73.4728146  82.0217214  45.3892207
  74.7819275  81.3278732  45.7001497  76.4368859  91.7180800  46.9161280
  76.3945038  91.9441646  45.9869812  77.3531558  91.4844175  47.0647081
  79.8834493  82.1864868  53.8141909  80.2383880  82.4136341  54.6736375
  80.5306624  82.5183244  53.1919164  85.6132230  85.3083303  44.5191238
  85.4750128  85.4984899  43.5912427  85.2568448  86.0702686  44.9759289
  85.6401609  87.3759830  49.5302510  86.0738116  87.2835120  50.3785564
  86.3533190  87.3517331  48.8922526  74.5534660  88.5943829  46.7123243
  75.3475258  88.0994149  46.5105818  73.8426352  88.0661692  46.3490948
  79.3729504  90.9761925  51.0635610  79.4266526  91.5452861  51.8313326
  78.5044285  91.1463810  50.6989647  70.8617423  82.7386911  42.7882995
  69.9315011  82.6771366  43.0052957  70.9574895  82.2162864  41.9919637
  70.7802972  79.2641724  45.3761237  71.0409789  80.1787057  45.2670397
  71.6020144  78.7966166  45.5257850  72.2527897  80.6779481  52.5460062
  72.9250951  80.4696843  51.8972710  71.4257684  80.4801567  52.1065294
  86.5017159  87.4183531  52.0635395  86.6953049  88.3229342  52.3094670
  86.4017777  86.9590950  52.8973980  81.5632267  87.5690274  57.6376276
  81.4117774  87.3400826  56.7206359  81.5536947  88.5260875  57.6507621
  78.3317604  85.1422187  52.6222542  79.2609664  85.2933346  52.4491509
  77.9108634  85.2306207  51.7671189  77.1305936  89.1672851  50.3921080
  76.9917021  88.7991635  51.2647018  76.3420532  89.6820490  50.2205038
  77.7254088  94.2681947  41.7346616  77.9005843  93.7969991  42.5492239
  77.0386876  94.8947714  41.9627877  78.6811151  88.5454454  47.7809918
  78.3460983  88.5055224  48.6767567  78.1815096  87.8799170  47.3080328
  72.6555395  83.9522084  53.3062499  72.5175193  83.2202323  53.9074038
  73.5660318  83.8630984  53.0246686  81.6170342  85.8910488  38.0546977
  80.9999513  85.1657316  37.9580030  81.1486831  86.6519848  37.7114051
  75.2837695  83.6642043  52.7946178  75.9937314  83.0235235  52.7532797
  75.2407003  83.9154938  53.7172359  83.2724474  90.6009396  55.7152758
  83.2137020  89.9168617  55.0483341  83.6743992  91.3428386  55.2633384
  73.9966629  80.6507261  54.6141818  73.4603986  80.1997999  55.2663414
  73.4083338  80.7853170  53.8712282  72.2915173  97.4171310  48.5086476
  72.5311771  98.0489834  49.1865495  71.4484369  97.0659350  48.7951836
  73.4068888  80.1095912  37.1768281  72.5298355  79.9884713  36.8130528
  73.8826641  79.3181991  36.9247170  83.2741881  88.5648980  53.9466737
  82.3868660  88.2274902  54.0693136  83.8440432  87.8332012  54.1835503
  64.9271028  84.8973072  47.2709789  65.6142068  84.5834802  46.6830804
  64.7719157  85.8014437  46.9977040  69.7305751  79.7863269  51.6994812
  69.6463939  79.1788938  50.9645222  68.9088457  80.2772287  51.7004309
  76.8043035  93.2250433  50.9127980  76.7313206  94.0305404  51.4247285
  76.3620428  93.4242398  50.0876002  76.5932814  92.4622203  44.4230802
  75.8100336  93.0043883  44.5169026  77.2925559  92.9796182  44.8225043
  79.9029464  78.2716832  47.0665007  80.3998164  77.5186794  46.7466078
  79.1316446  78.3081149  46.5008217  87.7559222  83.9757198  48.7083299
  87.7449098  84.8581913  48.3377232  86.8876601  83.6228749  48.5137836
  79.2641718  93.1237267  53.0686139  79.9769690  93.7584732  52.9962041
  78.7731747  93.2201133  52.2526141  80.9859245  87.0288519  44.6403431
  80.0515524  87.1489982  44.4708135  81.1635914  86.1260986  44.3763441
  76.4864433  80.4134215  46.7936692  76.1162221  79.8605256  47.4817598
  76.9823526  79.8092349  46.2411692  84.3731796  82.8705839  45.1753465
  84.8392249  83.7033830  45.1013768  84.8239297  82.4050820  45.8798723
  74.3153632  90.8731710  53.8891710  75.0163091  91.5068193  54.0421104
  73.8448747  91.2146442  53.1287349  82.4408028  89.2149660  42.1739617
  82.7167871  89.1006255  43.0833491  81.5712526  88.8167145  42.1351790
  82.1154918  83.4276318  51.7144260  81.4626368  83.6752225  51.0596713
  82.4935298  82.6140456  51.3806738  79.0762092  93.4636011  45.8172431
  79.2584486  92.6457667  46.2800183  79.8995078  93.6803703  45.3797321
  79.4104257  92.3904196  43.0787479  79.9392023  91.8796651  42.4657641
  79.6732477  92.0746726  43.9433012  78.1642491  84.1696129  58.2010297
  77.4883128  84.0690258  58.8712673  78.9870125  84.0135342  58.6646295
  69.9121350  90.4068065  50.8222813  70.4974787  89.6611753  50.9550717
  69.7146188  90.7172022  51.7059476  72.7660005  93.4419313  45.8385255
  72.0970380  93.9265440  45.3549295  72.6272875  93.6888533  46.7528634
  64.5039005  82.9773665  49.5427256  64.5423104  82.4437256  50.3364374
  63.9979297  82.4508871  48.9238233  76.9065274  95.4763056  52.4367913
  77.4583582  95.6394678  53.2016999  77.2471467  96.0667494  51.7647938
  71.3582039  79.8961338  56.6862832  71.9854078  79.5138416  57.3000357
  70.5009958  79.6775540  57.0518525  81.7576148  90.3024314  58.2916568
  82.3016052  90.9154272  57.7971523  81.1762993  90.8603892  58.8083581
  68.1347582  81.7037768  42.6181187  68.4301023  80.7948446  42.5648241
  67.2335618  81.6825507  42.2962189  80.0433661  93.4245032  49.4231596
  79.9184800  92.6234771  48.9142541  80.7012752  93.9191225  48.9345565
  71.6641829  79.7793764  48.6008736  70.9428415  80.3929732  48.4616209
  72.4535085  80.3151529  48.5225382  82.1068569  91.2254052  51.0511146
  81.1598905  91.1059403  50.9789472  82.4551342  90.3376550  51.1337407
  69.8635424  79.3851865  42.7420512  69.5348130  78.5049244  42.5595618
  70.2174794  79.3299534  43.6296902  79.1115003  91.0206768  47.2515498
  78.9639965  90.0923475  47.4323068  79.9368496  91.0426859  46.7672573
  72.9777247  79.6724835  43.1095990  73.3173319  80.2010756  42.3874598
  73.4249367  80.0105241  43.8854557  82.7149124  91.8435327  48.3380371
  83.6395672  91.6378188  48.2004822  82.5464428  91.5951728  49.2469712
  74.9645394  78.1699457  41.3089283  75.6853756  78.5480709  40.8053000
  74.3410698  78.8888333  41.4124261  79.1076517  78.8744606  42.2447615
  79.3240131  79.7569243  41.9436443  78.6270584  78.4830819  41.5153257
  73.8475738  81.8330319  48.8218360  73.7020319  82.1470622  49.7142641
  73.3700942  82.4515219  48.2689258  77.5598252  79.2570207  50.9152377
  77.3016030  80.1787278  50.9136707  77.0283292  78.8600642  51.6052841
  82.5044441  92.3620994  43.6942462  82.6781318  91.7967417  42.9416314
  82.9973332  93.1621889  43.5121952  68.3221400  84.3735663  51.7606021
  67.7774868  85.1495471  51.8926295  69.2000750  84.7206468  51.6025142
  75.1109017  77.7047247  44.1386819  75.2324928  76.7763893  44.3377707
  74.8211059  77.7185933  43.2265135  88.3583832  85.1257417  45.3132762
  88.8014978  84.3764742  44.9151885  87.4810342  85.1167553  44.9306494
  83.4919613  91.6787759  40.7939360  84.1870518  92.2994451  41.0126675
  83.8342763  90.8283110  41.0691738  69.1087422  83.5005559  54.6536178
  68.3669158  83.6488195  55.2400808  68.7880167  83.7613825  53.7902927
  85.3911036  89.1287464  42.3226691  85.9162360  89.4674737  41.5976011
  85.3033389  88.1934479  42.1389826  77.0531085  93.0421538  54.4516568
  77.3618211  92.7970684  55.3239267  77.8506567  93.2468176  53.9635438
  77.0751697  95.1959447  46.6821944  76.6356687  94.7035826  47.3754801
  77.8259814  94.6532415  46.4414019  69.5544036  91.3870988  46.6846572
  70.3802056  91.0874760  46.3045216  69.2038088  90.6178611  47.1336361
  74.5225569  90.7397456  48.7544246  73.9005578  90.0768161  48.4546474
  75.1930436  90.7658588  48.0717894  67.7552641  89.3057315  47.6435506
  66.9184549  88.8779489  47.4619507  67.7276286  89.4989758  48.5806297
  74.5950097  79.2179244  58.3476752  74.6438252  80.0941367  57.9654522
  75.1372611  78.6756638  57.7748395  85.0804942  89.7620368  57.6277889
  84.2900486  89.7444507  57.0882388  84.8438297  90.3008661  58.3826926
  85.2002817  86.6112834  54.9410618  85.2500822  86.4462842  55.8826140
  85.0916741  85.7440093  54.5508498  74.0839076  89.2901380  42.2302706
  74.2327196  89.9736844  41.5769379  74.8905519  89.2706470  42.7452162
  82.4906580  82.5943762  56.2569924  83.3916442  82.4550227  55.9653922
  82.5654554  82.7598217  57.1968102  76.8249385  79.9710617  55.1023111
  75.9552694  80.2644183  54.8305699  77.0608865  80.5551062  55.8230374
  86.7021014  89.0309776  55.1852639  86.4105822  89.3939756  56.0216100
  86.0893145  88.3176784  55.0065971  87.9016696  86.5962655  47.7055209
  88.7363588  87.0352459  47.8692770  88.0375825  86.1201309  46.8863455
  84.9508202  84.1542390  53.6532697  85.4262324  84.3470037  52.8451548
  84.0273768  84.2101576  53.4076081  71.8391709  85.3166557  43.2363775
  71.5937751  84.4128887  43.4343986  72.0087624  85.3183708  42.2943253
  79.5288419  76.1890234  52.6188531  80.0470363  76.9251261  52.2935020
  79.1743552  76.4954227  53.4535290  71.1087357  81.0494915  40.7349937
  70.4156601  81.1239270  40.0789973  70.8639108  80.2855259  41.2571454
  77.5834482  91.7849510  39.7014454  77.0108449  92.4039697  39.2484926
  78.1567275  92.3348872  40.2354376  83.6509871  81.0308150  51.8861003
  84.6027294  81.1306248  51.9073227  83.4813322  80.2386419  52.3959087
  81.6724251  78.1163734  52.0720404  81.0774183  78.3968746  51.3766892
  81.3873948  78.6057634  52.8437145  80.8031741  92.0686660  40.8323036
  81.7362414  92.0032222  41.0355912  80.7154954  92.9042927  40.3737569
  83.4319758  91.3852531  37.7926984  83.3533390  91.0512394  38.6862742
  84.2529425  91.8774299  37.7918456  86.1297949  84.2514270  51.0003302
  86.0974269  83.3130271  51.1862986  86.7398573  84.3298307  50.2669127
  77.9681280  83.1210323  37.0430506  78.9140385  82.9916531  37.1118924
  77.5895525  82.3824985  37.5199935  86.2792438  81.0425313  51.0461586
  85.7631486  80.2583770  50.8591514  87.1632386  80.7144030  51.2108105
  91.9474499  85.3130277  50.1409339  92.6777888  85.0515565  50.7017042
  91.3381445  84.5758999  50.1811407  90.0289796  83.4538139  50.7383790
  89.3022960  83.3194104  50.1300282  89.6137083  83.7614968  51.5440508
  77.8519973  87.1728069  58.5031163  78.7722982  87.3506668  58.6971210
  77.8169556  86.2284114  58.3510863  76.1524197  81.0460299  36.9785392
  75.2455653  80.7493412  37.0548105  76.4300178  80.7490117  36.1119678
  67.0702138  82.3666663  47.4284438  66.7504922  81.5131971  47.1358812
  66.5235566  82.5815241  48.1842405  70.8482045  85.0829104  51.1453945
  71.0668055  86.0146212  51.1641978  71.2607819  84.7237078  51.9308748
  75.7209910  80.6562310  60.5356693  75.6206637  81.6056666  60.4668785
  75.5031452  80.3280548  59.6632764  74.9222982  77.9047235  37.1197371
  75.7842146  78.2302133  37.3793188  75.1073326  77.1178730  36.6070437
  66.9390398  85.9869574  49.3977560  66.2453869  85.5723527  48.8847514
  67.6863389  86.0290111  48.8010979  75.5841181  84.0859448  59.3521755
  75.1008262  84.8859808  59.5585644  75.6702120  84.0967393  58.3989199
  68.8527140  85.9187828  47.2743574  68.8297828  86.0175515  46.3225458
  69.1627777  86.7652979  47.5960741  71.5114518  87.9763983  51.3890189
  72.4657772  87.9447925  51.3220120  71.3127042  87.5154607  52.2040415
  72.1013900  86.5465099  53.9560987  72.9206789  87.0409178  53.9795824
  72.3750708  85.6297067  53.9278554  81.8580496  78.9375851  43.3188942
  80.9706351  79.2225502  43.1009137  82.2734485  78.7769615  42.4716219
  85.2095032  78.9622372  47.0343281  85.9855423  79.4518825  47.3067898
  84.4843167  79.3880427  47.4915151  87.6467591  79.6749992  48.0917222
  88.2412082  79.4345728  47.3810530  87.7194175  78.9557122  48.7190758
  69.8664747  93.5183603  48.4060387  69.7319215  92.7584003  47.8398385
  69.4496809  94.2424502  47.9389176  81.0023710  88.7020526  37.4136962
  81.7059560  88.9070529  38.0294618  80.2786359  89.2697288  37.6786046
  81.8321520  84.4530387  43.5339232  81.7756721  84.9098939  42.6946865
  82.3849863  83.6921072  43.3562075  85.6426326  80.2420119  44.3589352
  85.3863260  79.8416755  45.1897559  85.0179194  80.9563913  44.2339491
  89.9538664  82.9816192  46.8660643  89.3938222  83.0509382  47.6392205
  89.3482167  82.8057177  46.1460139  73.0233873  94.4152920  48.6178829
  72.9066257  95.3598352  48.5157520  72.2026319  94.1126481  49.0064629
  82.9110407  89.1403055  39.4635422  83.7456011  88.7084254  39.2812897
  82.7494750  88.9685069  40.3912317  82.5656299  85.6435169  40.8291761
  82.5105103  85.4779440  39.8880206  81.9402355  86.3511202  40.9853951
  67.3548814  80.8803233  54.6553184  68.0007678  80.3702187  55.1440409
  67.1465965  81.6171915  55.2296609  79.8802207  87.9484080  60.1545324
  80.7493366  88.1224733  59.7931959  79.4008958  88.7678497  60.0321054
  74.0488387  95.0681181  51.8334758  74.9515633  95.1004792  52.1501253
  73.8225757  94.1381632  51.8481094  75.8041989  93.8212168  48.4944836
  74.8537620  93.8214030  48.3809209  76.1074475  93.0744903  47.9780871
  71.6946305  78.0270850  58.7528198  72.5577767  77.6707655  58.9631522
  71.1211716  77.6884745  59.4403602  91.5394682  99.6572706  49.5590599
  92.1773092  99.5379454  48.8553939  91.4215525 100.6053550  49.6178551
  88.3484389  99.6100135  49.4952124  88.0102900  99.4941199  48.6072658
  89.2174157  99.2091300  49.4753130  84.2071204 101.4635611  45.4849014
  83.6436069 101.3725548  44.7165302  84.0923599 100.6435515  45.9651507
  88.8304172 100.7634986  55.4538329  88.8192812 100.3687785  54.5818833
  88.9924811 100.0301059  56.0472101  81.7535636 102.9586803  48.3233235
  82.5456928 102.6177627  47.9079534  81.9932286 103.0681778  49.2435388
  89.7870763 105.1306579  40.7963479  89.1358743 105.7160659  40.4097493
  90.5815126 105.6612774  40.8558517  83.7126390 102.2195716  41.1950614
  84.4857266 101.6724703  41.0563490  84.0651789 103.0839965  41.4065075
  85.5511433 103.5472098  54.4017513  85.2601299 104.4517729  54.2864179
  86.1868417 103.5888626  55.1161583  86.4767640 100.9248947  50.9918873
  87.0731212 100.7004969  50.2775836  86.5342611 100.1833692  51.5944321
  86.0492668  98.3788382  38.8269064  86.3018189  97.8569903  38.0652527
  85.1117227  98.2154527  38.9295747  91.0935951  97.3824160  46.6343807
  91.8799040  96.9643583  46.2834224  91.3574655  98.2870252  46.8025455
  91.2646028 102.8197011  41.3332464  90.6291861 102.8931637  42.0453368
  90.9343435 103.4090609  40.6551543  96.4944378  97.3199393  47.5376785
  97.2269550  96.7498610  47.7714615  95.7383734  96.9320994  47.9783291
  85.7688957 100.2816488  41.0293439  85.6525215  99.6061391  41.6974523
  85.8791217  99.7948862  40.2125592  88.1120498  99.7426635  44.7340128
  87.7478705  99.2157256  45.4453049  88.9687614  99.3525104  44.5606613
  94.0169798  91.0320968  51.9971394  93.6853123  91.9016379  51.7732609
  93.4215412  90.7157252  52.6765424  87.7525985  94.7716535  39.7301476
  87.9200387  95.6396771  40.0971947  87.5623154  94.9343816  38.8062766
  90.5101318 103.2333514  51.3967307  90.2102041 104.1358552  51.2883114
  90.1652377 102.9665697  52.2488460  83.9613799  99.6847310  47.4304011
  83.0364296  99.5523525  47.6381703  84.2098212 100.4641530  47.9273954
  93.9098462  95.7516054  49.0764744  93.0015339  95.6831462  48.7823505
  93.8586057  96.2287999  49.9046570  87.7315205  97.2274192  40.7148143
  87.6114831  97.6731243  41.5533623  87.0367794  97.5759510  40.1561681
  81.3222610  99.3280584  48.2647800  81.4514991  99.5815063  49.1787212
  80.6420062  99.9208292  47.9452455  85.4922098 109.9977834  44.3638274
  85.4146127 110.9485659  44.4426755  84.8883741 109.6523706  45.0213201
  87.9839327  97.1705699  57.0199641  87.2072661  97.7299619  57.0102506
  88.6229890  97.6562482  57.5414511  95.7760108  93.9532492  50.8542618
  95.1334488  94.2465025  50.2082413  95.2715036  93.8385412  51.6595815
  93.4300272  97.6995665  41.5428477  94.3418128  97.9323052  41.3676175
  92.9209919  98.2832710  40.9803556  86.2385700  99.9791153  56.5817608
  86.9800384 100.5176197  56.3052432  85.5322685 100.6057441  56.7389160
  91.7141039 102.1220293  55.1789770  92.1224395 101.6802704  54.4344402
  90.9918301 101.5472921  55.4323963  88.0672109  97.0592900  52.5523327
  88.9133305  97.4832313  52.6957976  88.0070747  96.4026524  53.2461890
  92.0369854 102.6821484  48.9342059  91.4078716 102.8467198  48.2318127
  91.6495516 103.0963093  49.7053023  95.9159086 103.6175922  46.2886422
  95.2310124 103.9974823  45.7383456  96.0002935 104.2271248  47.0218370
  91.2171555  94.7197268  54.2104500  90.9732487  95.4739329  53.6738776
  91.4931485  95.0982616  55.0451747  93.1710017 101.2635881  52.8881766
  93.3826913 101.9067641  52.2116147  93.1239766 100.4298197  52.4203696
  90.7736246  93.8753701  49.7918338  89.9120725  94.1734955  50.0835076
  90.7998681  94.0924100  48.8599371  87.5897816 102.4195892  46.1992144
  88.0536161 102.6983595  45.4096766  87.3254614 101.5179336  46.0165234
  84.4821897 101.9667373  49.1371907  85.0523254 102.3954642  48.4989392
  85.0730009 101.6849958  49.8356093  86.5266702  98.5419044  43.0081709
  87.2290745  98.9940088  43.4755635  86.1947330  97.9002863  43.6361602
  84.9747063  97.1330801  57.3832918  84.3445724  97.8147082  57.6168315
  84.8683151  97.0213882  56.4386057  80.2692036  96.8002597  48.3098843
  79.4791090  97.0560125  47.8338953  80.7603283  97.6150935  48.4150883
  94.2855845 104.1407836  51.0604123  95.1073289 103.7388023  50.7786805
  94.2818248 104.0376070  52.0120239  82.2206781  97.1647176  45.2682319
  81.4237944  97.2765870  45.7865815  81.9932373  97.5033828  44.4023210
  88.0512449 103.6891879  53.2164834  88.1156881 104.1512287  54.0523006
  87.3423373 103.0589244  53.3447144  78.5529739  97.0533087  50.7413833
  78.8037777  97.9380097  51.0071409  79.0889287  96.8737689  49.9688925
 102.3761838 100.4846585  47.4089095 101.6225547  99.9153983  47.2533099
 102.5109380 100.4509249  48.3559730  87.7660466 105.3559987  43.0843814
  87.6306141 106.2011523  43.5128662  88.3070279 105.5579265  42.3209748
  84.2527806  91.4351567  59.7458169  83.8594752  90.8817765  60.4205814
  85.0693946  91.7462145  60.1364687  81.2189864 102.8735425  43.6571739
  81.7314384 103.6678675  43.8077304  81.8712577 102.1761715  43.5905341
  83.0284749 105.9901181  45.7394492  83.2051377 106.9119146  45.5515476
  83.8241582 105.6759600  46.1688872  87.1695767  92.8509446  57.3378426
  87.9105480  93.4516599  57.2582888  87.4013690  92.1087084  56.7796469
  82.3137105  98.0365813  55.6156656  82.1990620  97.1351070  55.9163755
  81.4581623  98.2829510  55.2641472  89.3928943 105.9783553  57.2144156
  88.9492797 105.1919932  56.8965061  90.0546156 106.1662704  56.5488047
  84.1516064 107.5079355  51.7404835  84.7023489 107.3796418  50.9681829
  83.3127540 107.8074244  51.3899728  91.4910181 106.2586353  55.2425558
  91.4728656 107.0795234  54.7505827  92.4130101 106.1340429  55.4675699
  87.9483235 103.7730483  56.0849066  88.4811572 103.0118771  55.8548374
  87.4197316 103.4804135  56.8273220  91.1152930  88.8790549  51.6142708
  90.7717199  89.7692190  51.5381818  91.4831893  88.6892206  50.7512293
  79.1838781 101.2024079  44.4331310  80.0214003 101.6121088  44.2165018
  79.3617048 100.2623521  44.4031504  91.0803213  98.8699160  40.1215143
  90.5649836  99.6403764  40.3603530  90.8080521  98.1964296  40.7448204
  88.6650324  93.7148861  45.1800381  87.8091920  93.3255711  45.0006020
  89.0777276  93.7940821  44.3200167  90.1949470  91.2495204  49.5791941
  89.6914266  91.2125339  48.7659746  90.4880077  92.1587947  49.6388598
  86.4392356  91.3333934  48.5858123  87.3045353  91.1376742  48.2264012
  86.5069865  91.1044285  49.5127479  96.0537487 101.6231515  42.0568316
  95.2766930 101.2842674  41.6123478  96.7328968 101.6284138  41.3823281
  90.8689516  96.7426252  41.9474924  90.5639652  97.0572401  42.7985067
  91.8219958  96.8207672  41.9902257  89.3135948 102.9016475  43.5967878
  88.7857309 102.1669235  43.2841115  88.8123451 103.6791152  43.3507846
  94.2928794 101.0965496  48.7134924  93.6352468 101.7864757  48.8015053
  95.0969193 101.4861928  49.0568911  84.0454675  93.5636142  45.9574489
  84.6198427  93.3411323  45.2247682  84.6325658  93.6324836  46.7103091
  93.1034253  99.4509868  46.7638866  93.6166134 100.0839860  47.2660576
  93.7535477  98.8511064  46.3982226  84.3724263  95.5940603  39.9770375
  83.5361575  95.9315289  40.2979649  84.2329032  95.4589582  39.0397512
  86.3477343  90.4377390  44.6849559  85.6941755  90.1226408  44.0606174
  86.3057817  89.8153131  45.4109382  87.4588548 100.7196686  36.6002851
  86.5515610 100.4885939  36.7994000  87.9559580  99.9234305  36.7876832
  90.3656627 109.4294193  39.5199537  89.6918326 109.7325889  40.1284495
  90.7522449 110.2323273  39.1704994  89.5815083  96.9259324  49.0097206
  88.6637645  97.1474271  48.8518895  89.9975227  97.0005634  48.1508914
  90.3650131  98.3250740  44.1399887  91.1121950  98.8372137  43.8307009
  90.6341721  98.0034792  45.0004280  88.6376781 100.8209280  41.1226841
  87.7288001 100.5368313  41.2199311  88.6671865 101.2408359  40.2630148
  93.8696049 104.4315870  44.8918009  93.4158376 103.5906780  44.9483199
  93.2390016 105.0677268  45.2292789  92.8128968  95.3607856  46.1218676
  92.0751725  94.8485242  46.4528919  93.0655742  94.9208238  45.3101953
  92.3128988 106.2692367  45.8267827  92.6051962 106.8297424  45.1080192
  92.8227609 106.5620928  46.5820986  92.9140596  88.1384108  46.7160445
  93.2199473  87.2781471  46.4286360  93.6393201  88.7301728  46.5159439
  79.2064952  98.5414795  45.1042043  79.0089352  97.9484155  44.3793110
  78.6511616  98.2367005  45.8217982  87.1861675  98.4337901  47.2236636
  87.2410285  97.4811737  47.1479113  86.3752877  98.5897340  47.7077935
  88.3352869 102.3618024  38.4614920  87.8972299 101.6453883  38.0020557
  89.0763310 102.5894139  37.9000011  85.1254035  97.0514961  44.9827015
  84.3121901  97.3509131  45.3892207  85.6213030  96.6570650  45.7001497
  87.2762613 107.0472718  46.9161280  87.2338792 107.2733564  45.9869812
  88.1925312 106.8136092  47.0647081  90.7228247  97.5156785  53.8141909
  91.0777635  97.7428258  54.6736375  91.3700378  97.8475162  53.1919164
  96.4525984 100.6375221  44.5191238  96.3143883 100.8276817  43.5912427
  96.0962203 101.3994604  44.9759289  84.6168110  94.6233316  50.5988250
  85.2567489  94.4822075  49.9011214  83.7845641  94.3367830  50.2226852
  96.4795364 102.7051748  49.5302510  96.9131870 102.6127037  50.3785564
  97.1926944 102.6809249  48.8922526  85.3928414 103.9235747  46.7123243
  86.1869013 103.4286067  46.5105818  84.6820106 103.3953610  46.3490948
  90.2123259 106.3053842  51.0635610  90.2660281 106.8744779  51.8313326
  89.3438040 106.4755727  50.6989647  81.7011178  98.0678828  42.7882995
  80.7708766  98.0063284  43.0052957  81.7968649  97.5454781  41.9919637
  81.6196727  94.5933641  45.3761237  81.8803544  95.5078975  45.2670397
  82.4413899  94.1258084  45.5257850  83.0921652  96.0071398  52.5460062
  83.7644705  95.7988761  51.8972710  82.2651438  95.8093484  52.1065294
  97.3410913 102.7475449  52.0635395  97.5346803 103.6521259  52.3094670
  97.2411531 102.2882868  52.8973980  88.9947224  92.6333339  54.5625722
  88.3475139  93.3323289  54.4690199  89.7648239  93.0669483  54.9301971
  92.4026022 102.8982192  57.6376276  92.2511528 102.6692743  56.7206359
  92.3930701 103.8552793  57.6507621  89.1711358 100.4714104  52.6222542
  90.1003418 100.6225264  52.4491509  88.7502388 100.5598125  51.7671189
  87.9699690 104.4964769  50.3921080  87.8310776 104.1283553  51.2647018
  87.1814286 105.0112408  50.2205038  88.5647842 109.5973865  41.7346616
  88.7399598 109.1261908  42.5492239  87.8780630 110.2239631  41.9627877
  89.5204905 103.8746371  47.7809918  89.1854738 103.8347141  48.6767567
  89.0208851 103.2091087  47.3080328  83.4949149  99.2814001  53.3062499
  83.3568947  98.5494240  53.9074038  84.4054073  99.1922902  53.0246686
  92.4564097 101.2202406  38.0546977  91.8393267 100.4949234  37.9580030
  91.9880585 101.9811766  37.7114051  86.1231450  98.9933961  52.7946178
  86.8331068  98.3527153  52.7532797  86.0800758  99.2446856  53.7172359
  94.1118228 105.9301314  55.7152758  94.0530775 105.2460534  55.0483341
  94.5137747 106.6720304  55.2633384  84.8360384  95.9799179  54.6141818
  84.2997741  95.5289917  55.2663414  84.2477092  96.1145087  53.8712282
  83.1308927 112.7463228  48.5086476  83.3705526 113.3781752  49.1865495
  82.2878124 112.3951268  48.7951836  84.2462643  95.4387830  37.1768281
  83.3692109  95.3176631  36.8130528  84.7220396  94.6473908  36.9247170
  94.1135636 103.8940898  53.9466737  93.2262415 103.5566820  54.0693136
  94.6834187 103.1623929  54.1835503  75.7664783 100.2264990  47.2709789
  76.4535823  99.9126720  46.6830804  75.6112912 101.1306354  46.9977040
  80.5699505  95.1155186  51.6994812  80.4857694  94.5080856  50.9645222
  79.7482211  95.6064205  51.7004309  87.6436789 108.5542350  50.9127980
  87.5706961 109.3597322  51.4247285  87.2014182 108.7534316  50.0876002
  87.4326569 107.7914120  44.4230802  86.6494091 108.3335801  44.5169026
  88.1319314 108.3088100  44.8225043  90.7423219  93.6008750  47.0665007
  91.2391918  92.8478712  46.7466078  89.9710200  93.6373066  46.5008217
  98.5952976  99.3049115  48.7083299  98.5842853 100.1873831  48.3377232
  97.7270356  98.9520666  48.5137836  90.1035473 108.4529184  53.0686139
  90.8163445 109.0876649  52.9962041  89.6125501 108.5493050  52.2526141
  91.8253000 102.3580437  44.6403431  90.8909278 102.4781900  44.4708135
  92.0029668 101.4552904  44.3763441  87.3258188  95.7426133  46.7936692
  86.9555975  95.1897173  47.4817598  87.8217280  95.1384266  46.2411692
  95.2125551  98.1997756  45.1753465  95.6786003  99.0325748  45.1013768
  95.6633051  97.7342738  45.8798723  85.1547386 106.2023628  53.8891710
  85.8556846 106.8360111  54.0421104  84.6842501 106.5438359  53.1287349
  93.2801782 104.5441578  42.1739617  93.5561626 104.4298172  43.0833491
  92.4106281 104.1459062  42.1351790  93.1842214  90.5678343  49.2144366
  92.2705293  90.7982570  49.3826573  93.6135315  90.6516787  50.0658399
  92.9548672  98.7568235  51.7144260  92.3020122  99.0044143  51.0596713
  93.3329052  97.9432373  51.3806738  89.9155846 108.7927928  45.8172431
  90.0978241 107.9749584  46.2800183  90.7388832 109.0095621  45.3797321
  90.2498012 107.7196114  43.0787479  90.7785778 107.2088568  42.4657641
  90.5126231 107.4038644  43.9433012  89.0036245  99.4988046  58.2010297
  88.3276882  99.3982176  58.8712673  89.8263879  99.3427260  58.6646295
  80.7515104 105.7359983  50.8222813  81.3368541 104.9903671  50.9550717
  80.5539943 106.0463940  51.7059476  83.6053759 108.7711230  45.8385255
  82.9364135 109.2557358  45.3549295  83.4666629 109.0180451  46.7528634
  75.3432759  98.3065583  49.5427256  75.3816859  97.7729174  50.3364374
  74.8373052  97.7800789  48.9238233  87.7459028 110.8054974  52.4367913
  88.2977336 110.9686595  53.2016999  88.0865222 111.3959412  51.7647938
  82.7223521  93.1530124  53.0389798  82.7864848  94.0144955  52.6267196
  82.6590642  92.5404125  52.3062157  82.1975794  95.2253256  56.6862832
  82.8247833  94.8430333  57.3000357  81.3403713  95.0067458  57.0518525
  92.5969902 105.6316231  58.2916568  93.1409806 106.2446190  57.7971523
  92.0156747 106.1895810  58.8083581  78.9741337  97.0329685  42.6181187
  79.2694778  96.1240364  42.5648241  78.0729372  97.0117425  42.2962189
  90.8827415 108.7536949  49.4231596  90.7578555 107.9526689  48.9142541
  91.5406506 109.2483143  48.9345565  82.5035584  95.1085682  48.6008736
  81.7822169  95.7221650  48.4616209  83.2928839  95.6443447  48.5225382
  92.9462324 106.5545969  51.0511146  91.9992659 106.4351321  50.9789472
  93.2945097 105.6668467  51.1337407  85.3061897  92.4440108  54.8749387
  85.8296299  92.6902405  55.6375697  85.0874230  93.2760143  54.4552525
  80.7029178  94.7143783  42.7420512  80.3741884  93.8341162  42.5595618
  81.0568549  94.6591452  43.6296902  89.9508757 106.3498686  47.2515498
  89.8033719 105.4215393  47.4323068  90.7762251 106.3718776  46.7672573
  83.8171001  95.0016753  43.1095990  84.1567074  95.5302674  42.3874598
  84.2643122  95.3397159  43.8854557  93.5542879 107.1727244  48.3380371
  94.4789426 106.9670106  48.2004822  93.3858182 106.9243646  49.2469712
  86.5114442  93.3853803  52.5599058  86.1711263  92.5861616  52.9619738
  85.8053448  93.6855514  51.9875891  87.1630914  90.4703116  51.0126381
  87.9856983  89.9963594  50.8905271  87.4068978  91.2493600  51.5125067
  85.8039148  93.4991374  41.3089283  86.5247511  93.8772627  40.8053000
  85.1804453  94.2180251  41.4124261  89.9470271  94.2036523  42.2447615
  90.1633886  95.0861161  41.9436443  89.4664339  93.8122737  41.5153257
  84.6869493  97.1622237  48.8218360  84.5414073  97.4762540  49.7142641
  84.2094696  97.7807137  48.2689258  86.5465876  94.1524784  48.8699249
  86.5327444  93.2565878  48.5331547  87.2638304  94.1595448  49.5037535
  88.3992006  94.5862125  50.9152377  88.1409784  95.5079195  50.9136707
  87.8677047  94.1892559  51.6052841  93.3438195 107.6912912  43.6942462
  93.5175073 107.1259334  42.9416314  93.8367086 108.4913807  43.5121952
  79.1615155  99.7027581  51.7606021  78.6168623 100.4787389  51.8926295
  80.0394505 100.0498385  51.6025142  85.9502772  93.0339165  44.1386819
  86.0718683  92.1055811  44.3377707  85.6604814  93.0477851  43.2265135
  88.8193962  90.7194075  47.2753539  88.8415659  90.7833408  46.3205519
  89.2362021  89.8798584  47.4694045  99.1977586 100.4549335  45.3132762
  99.6408732  99.7056660  44.9151885  98.3204097 100.4459471  44.9306494
  94.3313368 107.0079676  40.7939360  95.0264272 107.6286369  41.0126675
  94.6736518 106.1575027  41.0691738  79.9481177  98.8297477  54.6536178
  79.2062913  98.9780113  55.2400808  79.6273921  99.0905743  53.7902927
  96.2304791 104.4579382  42.3226691  96.7556115 104.7966655  41.5976011
  96.1427143 103.5226397  42.1389826  87.8924839 108.3713455  54.4516568
  88.2011966 108.1262602  55.3239267  88.6900321 108.5760094  53.9635438
  87.9145451 110.5251365  46.6821944  87.4750442 110.0327744  47.3754801
  88.6653568 109.9824333  46.4414019  80.3937790 106.7162906  46.6846572
  81.2195810 106.4166678  46.3045216  80.0431842 105.9470528  47.1336361
  85.3619324 106.0689374  48.7544246  84.7399333 105.4060079  48.4546474
  86.0324191 106.0950506  48.0717894  78.5946395 104.6349232  47.6435506
  77.7578304 104.2071407  47.4619507  78.5670041 104.8281676  48.5806297
  85.4343851  94.5471162  58.3476752  85.4832007  95.4233285  57.9654522
  85.9766365  94.0048555  57.7748395  95.9198697 105.0912285  57.6277889
  95.1294240 105.0736424  57.0882388  95.6832051 105.6300579  58.3826926
  96.0396572 101.9404752  54.9410618  96.0894577 101.7754759  55.8826140
  95.9310495 101.0732011  54.5508498  84.9232831 104.6193297  42.2302706
  85.0720951 105.3028762  41.5769379  85.7299274 104.5998388  42.7452162
  93.3300334  97.9235680  56.2569924  94.2310197  97.7842145  55.9653922
  93.4048309  98.0890135  57.1968102  87.6643140  95.3002535  55.1023111
  86.7946449  95.5936101  54.8305699  87.9002620  95.8842980  55.8230374
  97.5414769 104.3601693  55.1852639  97.2499577 104.7231674  56.0216100
  96.9286900 103.6468702  55.0065971  98.7410451 101.9254573  47.7055209
  99.5757342 102.3644377  47.8692770  98.8769580 101.4493226  46.8863455
  95.7901957  99.4834308  53.6532697  96.2656078  99.6761954  52.8451548
  94.8667522  99.5393494  53.4076081  82.6785463 100.6458475  43.2363775
  82.4331505  99.7420805  43.4343986  82.8481378 100.6475626  42.2943253
  90.3682173  91.5182151  52.6188531  90.8864117  92.2543178  52.2935020
  90.0137306  91.8246145  53.4535290  81.9481111  96.3786833  40.7349937
  81.2550356  96.4531188  40.0789973  81.7032863  95.6147176  41.2571454
  90.6194768  87.9382434  48.1389428  90.8996521  87.2705623  48.7649854
  91.4045374  88.1311530  47.6264091  88.4228236 107.1141428  39.7014454
  87.8502203 107.7331615  39.2484926  88.9961030 107.6640790  40.2354376
  94.4903626  96.3600068  51.8861003  95.4421049  96.4598166  51.9073227
  94.3207076  95.5678337  52.3959087  92.5118005  93.4455651  52.0720404
  91.9167937  93.7260664  51.3766892  92.2267702  93.9349552  52.8437145
  91.6425496 107.3978578  40.8323036  92.5756169 107.3324140  41.0355912
  91.5548709 108.2334845  40.3737569  94.2713512 106.7144448  37.7926984
  94.1927144 106.3804312  38.6862742  95.0923179 107.2066216  37.7918456
  96.9691704  99.5806188  51.0003302  96.9368024  98.6422188  51.1862986
  97.5792327  99.6590224  50.2669127  88.8075035  98.4502241  37.0430506
  89.7534139  98.3208449  37.1118924  88.4289279  97.7116903  37.5199935
  97.1186192  96.3717231  51.0461586  96.6025241  95.5875688  50.8591514
  98.0026141  96.0435948  51.2108105  94.7796919  90.1158247  47.0057398
  94.5821740  89.8073335  47.8900730  95.3896625  90.8419886  47.1355328
 102.7868254 100.6422195  50.1409339 103.5171642 100.3807483  50.7017042
 102.1775199  99.9050916  50.1811407 100.8683551  98.7830057  50.7383790
 100.1416714  98.6486022  50.1300282 100.4530838  99.0906886  51.5440508
  88.6913727 102.5019987  58.5031163  89.6116737 102.6798586  58.6971210
  88.6563310 101.5576032  58.3510863  86.9917952  96.3752217  36.9785392
  86.0849407  96.0785330  37.0548105  87.2693933  96.0782035  36.1119678
  77.9095892  97.6958580  47.4284438  77.5898676  96.8423889  47.1358812
  77.3629320  97.9107159  48.1842405  81.6875800 100.4121021  51.1453945
  81.9061809 101.3438129  51.1641978  82.1001573 100.0528996  51.9308748
  88.6080017  90.9189107  43.1329633  87.7980746  90.5736192  43.5084879
  89.2964434  90.6096650  43.7217244  90.5370566  89.9967154  44.7553930
  91.0901604  90.4162607  45.4143953  90.7740652  89.0702902  44.7976886
  86.5603665  95.9854227  60.5356693  86.4600392  96.9348584  60.4668785
  86.3425207  95.6572466  59.6632764  85.7616736  93.2339152  37.1197371
  86.6235900  93.5594051  37.3793188  85.9467080  92.4470648  36.6070437
  77.7784152 101.3161492  49.3977560  77.0847624 100.9015445  48.8847514
  78.5257143 101.3582028  48.8010979  93.9149373  92.1067679  44.2632594
  93.3348042  92.7652483  43.8810646  93.6485305  91.2845023  43.8520011
  92.3652939  91.5072736  46.4653914  92.8652718  91.6189271  45.6568233
  93.0088547  91.2033789  47.1054723  86.4234935  99.4151366  59.3521755
  85.9402017 100.2151726  59.5585644  86.5095874  99.4259311  58.3989199
  79.6920895 101.2479746  47.2743574  79.6691583 101.3467433  46.3225458
  80.0021531 102.0944897  47.5960741  82.3508272 103.3055901  51.3890189
  83.3051526 103.2739843  51.3220120  82.1520796 102.8446524  52.2040415
  82.9407655 101.8757017  53.9560987  83.7600544 102.3701095  53.9795824
  83.2144462 100.9588985  53.9278554  92.6974251  94.2667769  43.3188942
  91.8100106  94.5517420  43.1009137  93.1128240  94.1061532  42.4716219
  96.0488787  94.2914290  47.0343281  96.8249177  94.7810743  47.3067898
  95.3236921  94.7172344  47.4915151  98.4861346  95.0041909  48.0917222
  99.0805836  94.7637645  47.3810530  98.5587929  94.2849040  48.7190758
  80.7058501 108.8475520  48.4060387  80.5712969 108.0875921  47.8398385
  80.2890564 109.5716420  47.9389176  91.8417464 104.0312444  37.4136962
  92.5453314 104.2362446  38.0294618  91.1180113 104.5989206  37.6786046
  92.6715275  99.7822305  43.5339232  92.6150476 100.2390856  42.6946865
  93.2243617  99.0212990  43.3562075  96.4820080  95.5712037  44.3589352
  96.2257015  95.1708673  45.1897559  95.8572949  96.2855831  44.2339491
 100.7932418  98.3108110  46.8660643 100.2331976  98.3801299  47.6392205
 100.1875922  98.1349095  46.1460139  83.8627627 109.7444837  48.6178829
  83.7460011 110.6890270  48.5157520  83.0420073 109.4418399  49.0064629
  93.7504162 104.4694973  39.4635422  94.5849766 104.0376171  39.2812897
  93.5888505 104.2976987  40.3912317  93.4050054 100.9727086  40.8291761
  93.3498858 100.8071358  39.8880206  92.7796109 101.6803119  40.9853951
  78.1942569  96.2095151  54.6553184  78.8401432  95.6994105  55.1440409
  77.9859720  96.9463832  55.2296609  90.7195961 103.2775998  60.1545324
  91.5887121 103.4516650  59.7931959  90.2402713 104.0970415  60.0321054
  86.7146179  90.4735195  40.4077080  86.7024849  91.4177035  40.5645351
  87.6069601  90.2905341  40.1136541  84.8882141 110.3973099  51.8334758
  85.7909388 110.4296709  52.1501253  84.6619511 109.4673550  51.8481094
  86.6435743 109.1504086  48.4944836  85.6931374 109.1505947  48.3809209
  86.9468229 108.4036820  47.9780871  90.5298299  87.0677972  44.6623017
  89.7630695  86.5136459  44.8079699  90.9409004  87.1399841  45.5237168
  82.5340060  93.3562768  58.7528198  83.3971521  92.9999573  58.9631522
  81.9605471  93.0176663  59.4403602 102.3788437 114.9864624  49.5590599
 103.0166847 114.8671371  48.8553939 102.2609280 115.9345468  49.6178551
  99.1878143 114.9392052  49.4952124  98.8496655 114.8233117  48.6072658
 100.0567911 114.5383217  49.4753130  95.0464959 116.7927529  45.4849014
  94.4829824 116.7017466  44.7165302  94.9317354 115.9727433  45.9651507
  99.6697926 116.0926904  55.4538329  99.6586567 115.6979702  54.5818833
  99.8318566 115.3592977  56.0472101  92.5929391 118.2878720  48.3233235
  93.3850683 117.9469545  47.9079534  92.8326041 118.3973695  49.2435388
  94.5520145 117.5487633  41.1950614  95.3251021 117.0016621  41.0563490
  94.9045543 118.4131883  41.4065075  96.3905187 118.8764016  54.4017513
  96.0995053 119.7809647  54.2864179  97.0262172 118.9180543  55.1161583
  97.3161394 116.2540864  50.9918873  97.9124966 116.0296887  50.2775836
  97.3736366 115.5125610  51.5944321  96.8886422 113.7080300  38.8269064
  97.1411943 113.1861821  38.0652527  95.9510982 113.5446445  38.9295747
 101.9329705 112.7116078  46.6343807 102.7192794 112.2935501  46.2834224
 102.1968410 113.6162170  46.8025455 102.1039783 118.1488928  41.3332464
 101.4685616 118.2223555  42.0453368 101.7737189 118.7382527  40.6551543
 107.3338132 112.6491311  47.5376785 108.0663304 112.0790528  47.7714615
 106.5777488 112.2612912  47.9783291  96.6082711 115.6108406  41.0293439
  96.4918969 114.9353309  41.6974523  96.7184971 115.1240779  40.2125592
  98.9514252 115.0718553  44.7340128  98.5872459 114.5449174  45.4453049
  99.8081368 114.6817022  44.5606613 104.8563553 106.3612885  51.9971394
 104.5246878 107.2308296  51.7732609 104.2609166 106.0449169  52.6765424
  98.5919739 110.1008452  39.7301476  98.7594141 110.9688689  40.0971947
  98.4016908 110.2635734  38.8062766 101.3495072 118.5625431  51.3967307
 101.0495795 119.4650470  51.2883114 101.0046132 118.2957614  52.2488460
  94.8007554 115.0139228  47.4304011  93.8758050 114.8815442  47.6381703
  95.0491967 115.7933447  47.9273954 104.7492216 111.0807971  49.0764744
 103.8409093 111.0123380  48.7823505 104.6979812 111.5579916  49.9046570
  98.5708960 112.5566110  40.7148143  98.4508585 113.0023161  41.5533623
  97.8761548 112.9051428  40.1561681  92.1616365 114.6572502  48.2647800
  92.2908746 114.9106981  49.1787212  91.4813816 115.2500210  47.9452455
  98.8233082 112.4997617  57.0199641  98.0466416 113.0591537  57.0102506
  99.4623645 112.9854400  57.5414511 106.6153862 109.2824410  50.8542618
 105.9728243 109.5756943  50.2082413 106.1108791 109.1677330  51.6595815
 104.2694026 113.0287583  41.5428477 105.1811882 113.2614970  41.3676175
 103.7603673 113.6124627  40.9803556  97.0779454 115.3083070  56.5817608
  97.8194139 115.8468114  56.3052432  96.3716440 115.9349359  56.7389160
 102.5534794 117.4512211  55.1789770 102.9618150 117.0094621  54.4344402
 101.8312055 116.8764838  55.4323963  98.9065864 112.3884818  52.5523327
  99.7527059 112.8124231  52.6957976  98.8464502 111.7318442  53.2461890
 102.8763608 118.0113401  48.9342059 102.2472471 118.1759116  48.2318127
 102.4889271 118.4255011  49.7053023 102.0565309 110.0489186  54.2104500
 101.8126241 110.8031246  53.6738776 102.3325240 110.4274534  55.0451747
 104.0103772 116.5927798  52.8881766 104.2220667 117.2359558  52.2116147
 103.9633520 115.7590115  52.4203696 101.6130001 109.2045619  49.7918338
 100.7514480 109.5026873  50.0835076 101.6392436 109.4216018  48.8599371
  98.4291570 117.7487810  46.1992144  98.8929916 118.0275513  45.4096766
  98.1648368 116.8471254  46.0165234  95.3215651 117.2959291  49.1371907
  95.8917008 117.7246559  48.4989392  95.9123763 117.0141876  49.8356093
  97.3660456 113.8710962  43.0081709  98.0684500 114.3232006  43.4755635
  97.0341085 113.2294781  43.6361602  95.8140818 112.4622719  57.3832918
  95.1839478 113.1438999  57.6168315  95.7076906 112.3505800  56.4386057
  91.1085790 112.1294515  48.3098843  90.3184844 112.3852043  47.8338953
  91.5997038 112.9442852  48.4150883  93.0600536 112.4939094  45.2682319
  92.2631699 112.6057788  45.7865815  92.8326128 112.8325746  44.4023210
  98.8906203 119.0183797  53.2164834  98.9550636 119.4804204  54.0523006
  98.1817127 118.3881162  53.3447144  89.3923493 112.3825005  50.7413833
  89.6431532 113.2672015  51.0071409  89.9283042 112.2029607  49.9688925
  98.6054221 120.6851905  43.0843814  98.4699896 121.5303440  43.5128662
  99.1464033 120.8871182  42.3209748  95.0921561 106.7643484  59.7458169
  94.6988506 106.2109683  60.4205814  95.9087701 107.0754063  60.1364687
  92.0583618 118.2027343  43.6571739  92.5708139 118.9970593  43.8077304
  92.7106331 117.5053633  43.5905341  93.8678503 121.3193099  45.7394492
  94.0445131 122.2411064  45.5515476  94.6635337 121.0051518  46.1688872
  98.0089522 108.1801363  57.3378426  98.7499235 108.7808517  57.2582888
  98.2407444 107.4379001  56.7796469  93.1530860 113.3657731  55.6156656
  93.0384375 112.4642988  55.9163755  92.2975377 113.6121428  55.2641472
  94.9909819 122.8371273  51.7404835  95.5417244 122.7088336  50.9681829
  94.1521294 123.1366162  51.3899728  98.7876990 119.1022400  56.0849066
  99.3205326 118.3410689  55.8548374  98.2591071 118.8096052  56.8273220
 101.9546685 104.2082466  51.6142708 101.6110954 105.0984108  51.5381818
 102.3225647 104.0184124  50.7512293  90.0232535 116.5315997  44.4331310
  90.8607757 116.9413005  44.2165018  90.2010803 115.5915439  44.4031504
 101.9196967 114.1991078  40.1215143 101.4043591 114.9695682  40.3603530
 101.6474276 113.5256214  40.7448204  99.5044078 109.0440778  45.1800381
  98.6485675 108.6547629  45.0006020  99.9171030 109.1232739  44.3200167
 101.0343225 106.5787122  49.5791941 100.5308021 106.5417257  48.7659746
 101.3273832 107.4879864  49.6388598  97.2786111 106.6625851  48.5858123
  98.1439108 106.4668660  48.2264012  97.3463620 106.4336203  49.5127479
 101.7083270 112.0718170  41.9474924 101.4033406 112.3864319  42.7985067
 102.6613713 112.1499590  41.9902257 100.1529702 118.2308393  43.5967878
  99.6251064 117.4961153  43.2841115  99.6517205 119.0083069  43.3507846
  94.8848430 108.8928059  45.9574489  95.4592182 108.6703241  45.2247682
  95.4719412 108.9616754  46.7103091 103.9428007 114.7801786  46.7638866
 104.4559889 115.4131778  47.2660576 104.5929231 114.1802982  46.3982226
  95.2118017 110.9232520  39.9770375  94.3755329 111.2607207  40.2979649
  95.0722787 110.7881500  39.0397512  97.1871098 105.7669308  44.6849559
  96.5335510 105.4518325  44.0606174  97.1451572 105.1445049  45.4109382
  98.2982302 116.0488603  36.6002851  97.3909364 115.8177857  36.7994000
  98.7953334 115.2526222  36.7876832 100.4208838 112.2551242  49.0097206
  99.5031399 112.4766189  48.8518895 100.8368982 112.3297552  48.1508914
 101.2043886 113.6542657  44.1399887 101.9515705 114.1664055  43.8307009
 101.4735475 113.3326710  45.0004280  99.4770536 116.1501198  41.1226841
  98.5681755 115.8660231  41.2199311  99.5065620 116.5700277  40.2630148
 103.6522723 110.6899774  46.1218676 102.9145480 110.1777160  46.4528919
 103.9049496 110.2500155  45.3101953 103.7534350 103.4676026  46.7160445
 104.0593227 102.6073389  46.4286360 104.4786955 104.0593646  46.5159439
  90.0458706 113.8706712  45.1042043  89.8483106 113.2776073  44.3793110
  89.4905370 113.5658922  45.8217982  98.0255430 113.7629819  47.2236636
  98.0804040 112.8103655  47.1479113  97.2146632 113.9189258  47.7077935
  99.1746624 117.6909942  38.4614920  98.7366054 116.9745801  38.0020557
  99.9157065 117.9186057  37.9000011  95.9647790 112.3806878  44.9827015
  95.1515655 112.6801049  45.3892207  96.4606784 111.9862567  45.7001497
 101.5622002 112.8448703  53.8141909 101.9171389 113.0720176  54.6736375
 102.2094133 113.1767080  53.1919164  95.4561865 109.9525234  50.5988250
  96.0961244 109.8113993  49.9011214  94.6239395 109.6659747  50.2226852
  96.2322169 119.2527664  46.7123243  97.0262767 118.7577985  46.5105818
  95.5213861 118.7245527  46.3490948  92.5404932 113.3970746  42.7882995
  91.6102520 113.3355202  43.0052957  92.6362404 112.8746699  41.9919637
  92.4590481 109.9225559  45.3761237  92.7197298 110.8370892  45.2670397
  93.2807653 109.4550001  45.5257850  93.9315406 111.3363316  52.5460062
  94.6038460 111.1280678  51.8972710  93.1045193 111.1385402  52.1065294
  99.8340978 107.9625257  54.5625722  99.1868893 108.6615207  54.4690199
 100.6041994 108.3961401  54.9301971 100.0105113 115.8006022  52.6222542
 100.9397173 115.9517182  52.4491509  99.5896143 115.8890043  51.7671189
  98.8093445 119.8256686  50.3921080  98.6704530 119.4575471  51.2647018
  98.0208041 120.3404326  50.2205038 100.3598660 119.2038289  47.7809918
 100.0248492 119.1639059  48.6767567  99.8602605 118.5383005  47.3080328
  94.3342904 114.6105919  53.3062499  94.1962702 113.8786158  53.9074038
  95.2447827 114.5214819  53.0246686 103.2957851 116.5494323  38.0546977
 102.6787022 115.8241152  37.9580030 102.8274340 117.3103684  37.7114051
  96.9625204 114.3225878  52.7946178  97.6724823 113.6819071  52.7532797
  96.9194512 114.5738773  53.7172359  95.6754138 111.3091096  54.6141818
  95.1391495 110.8581835  55.2663414  95.0870847 111.4437005  53.8712282
  95.0856397 110.7679748  37.1768281  94.2085864 110.6468548  36.8130528
  95.5614150 109.9765826  36.9247170  86.6058537 115.5556907  47.2709789
  87.2929577 115.2418637  46.6830804  86.4506666 116.4598272  46.9977040
  91.4093260 110.4447104  51.6994812  91.3251448 109.8372774  50.9645222
  90.5875966 110.9356122  51.7004309 101.5816973 108.9300668  47.0665007
 102.0785673 108.1770630  46.7466078 100.8103955 108.9664984  46.5008217
 102.6646754 117.6872355  44.6403431 101.7303033 117.8073817  44.4708135
 102.8423423 116.7844822  44.3763441  98.1651942 111.0718051  46.7936692
  97.7949730 110.5189091  47.4817598  98.6611035 110.4676184  46.2411692
 106.0519305 113.5289674  45.1753465 106.5179758 114.3617666  45.1013768
 106.5026806 113.0634656  45.8798723  95.9941141 121.5315546  53.8891710
  96.6950600 122.1652028  54.0421104  95.5236256 121.8730277  53.1287349
 104.0235968 105.8970261  49.2144366 103.1099048 106.1274488  49.3826573
 104.4529070 105.9808705  50.0658399 103.7942427 114.0860153  51.7144260
 103.1413877 114.3336060  51.0596713 104.1722807 113.2724291  51.3806738
  99.8430000 114.8279964  58.2010297  99.1670637 114.7274093  58.8712673
 100.6657634 114.6719178  58.6646295  91.5908859 121.0651901  50.8222813
  92.1762296 120.3195588  50.9550717  91.3933697 121.3755857  51.7059476
  94.4447514 124.1003148  45.8385255  93.7757889 124.5849276  45.3549295
  94.3060384 124.3472368  46.7528634  86.1826514 113.6357501  49.5427256
  86.2210613 113.1021091  50.3364374  85.6766806 113.1092706  48.9238233
  93.5617276 108.4822041  53.0389798  93.6258602 109.3436872  52.6267196
  93.4984396 107.8696043  52.3062157  93.0369548 110.5545174  56.6862832
  93.6641587 110.1722251  57.3000357  92.1797467 110.3359376  57.0518525
  89.8135091 112.3621603  42.6181187  90.1088532 111.4532281  42.5648241
  88.9123127 112.3409342  42.2962189  93.3429338 110.4377600  48.6008736
  92.6215924 111.0513567  48.4616209  94.1322594 110.9735364  48.5225382
  96.1455652 107.7732026  54.8749387  96.6690053 108.0194323  55.6375697
  95.9267985 108.6052061  54.4552525  91.5422933 110.0435701  42.7420512
  91.2135639 109.1633080  42.5595618  91.8962303 109.9883369  43.6296902
  94.6564756 110.3308670  43.1095990  94.9960828 110.8594592  42.3874598
  95.1036876 110.6689077  43.8854557  97.3508197 108.7145721  52.5599058
  97.0105017 107.9153534  52.9619738  96.6447203 109.0147432  51.9875891
  98.0024668 105.7995034  51.0126381  98.8250738 105.3255512  50.8905271
  98.2462732 106.5785517  51.5125067  96.6432903 108.8283292  41.3089283
  97.3641265 109.2064545  40.8053000  96.0198207 109.5472169  41.4124261
 100.7864026 109.5328441  42.2447615 101.0027640 110.4153079  41.9436443
 100.3058093 109.1414654  41.5153257  95.5263247 112.4914154  48.8218360
  95.3807828 112.8054457  49.7142641  95.0488451 113.1099055  48.2689258
  97.3859630 109.4816702  48.8699249  97.3721199 108.5857795  48.5331547
  98.1032058 109.4887366  49.5037535  99.2385761 109.9154042  50.9152377
  98.9803539 110.8371113  50.9136707  98.7070801 109.5184477  51.6052841
  90.0008909 115.0319499  51.7606021  89.4562377 115.8079307  51.8926295
  90.8788259 115.3790303  51.6025142  96.7896526 108.3631082  44.1386819
  96.9112437 107.4347729  44.3377707  96.4998568 108.3769768  43.2265135
  99.6587716 106.0485993  47.2753539  99.6809413 106.1125326  46.3205519
 100.0755775 105.2090502  47.4694045  90.7874931 114.1589395  54.6536178
  90.0456667 114.3072030  55.2400808  90.4667676 114.4197660  53.7902927
  91.2331545 122.0454824  46.6846572  92.0589565 121.7458595  46.3045216
  90.8825597 121.2762446  47.1336361  96.2013078 121.3981292  48.7544246
  95.5793087 120.7351997  48.4546474  96.8717945 121.4242424  48.0717894
  89.4340150 119.9641150  47.6435506  88.5972058 119.5363324  47.4619507
  89.4063795 120.1573593  48.5806297  96.2737606 109.8763080  58.3476752
  96.3225761 110.7525203  57.9654522  96.8160120 109.3340473  57.7748395
  95.7626585 119.9485215  42.2302706  95.9114705 120.6320680  41.5769379
  96.5693028 119.9290305  42.7452162 104.1694089 113.2527597  56.2569924
 105.0703951 113.1134062  55.9653922 104.2442063 113.4182052  57.1968102
  98.5036894 110.6294452  55.1023111  97.6340203 110.9228018  54.8305699
  98.7396374 111.2134897  55.8230374 106.6295711 114.8126226  53.6532697
 107.1049833 115.0053872  52.8451548 105.7061277 114.8685411  53.4076081
  93.5179218 115.9750393  43.2363775  93.2725260 115.0712723  43.4343986
  93.6875133 115.9767543  42.2943253 101.2075928 106.8474069  52.6188531
 101.7257872 107.5835096  52.2935020 100.8531061 107.1538062  53.4535290
  92.7874866 111.7078750  40.7349937  92.0944110 111.7823105  40.0789973
  92.5426617 110.9439094  41.2571454 101.4588522 103.2674352  48.1389428
 101.7390276 102.5997541  48.7649854 102.2439129 103.4603447  47.6264091
 105.3297380 111.6891986  51.8861003 106.2814803 111.7890083  51.9073227
 105.1600831 110.8970254  52.3959087 103.3511760 108.7747569  52.0720404
 102.7561692 109.0552582  51.3766892 103.0661457 109.2641470  52.8437145
  99.6468789 113.7794158  37.0430506 100.5927894 113.6500366  37.1118924
  99.2683034 113.0408820  37.5199935 107.9579947 111.7009149  51.0461586
 107.4418995 110.9167605  50.8591514 108.8419895 111.3727865  51.2108105
 105.6190674 105.4450164  47.0057398 105.4215495 105.1365253  47.8900730
 106.2290379 106.1711803  47.1355328  99.5307482 117.8311904  58.5031163
 100.4510491 118.0090503  58.6971210  99.4957065 116.8867950  58.3510863
  97.8311706 111.7044135  36.9785392  96.9243162 111.4077247  37.0548105
  98.1087687 111.4073953  36.1119678  88.7489647 113.0250498  47.4284438
  88.4292431 112.1715806  47.1358812  88.2023075 113.2399076  48.1842405
  92.5269554 115.7412939  51.1453945  92.7455564 116.6730047  51.1641978
  92.9395328 115.3820914  51.9308748  99.4473772 106.2481024  43.1329633
  98.6374500 105.9028109  43.5084879 100.1358189 105.9388568  43.7217244
 101.3764320 105.3259071  44.7553930 101.9295359 105.7454525  45.4143953
 101.6134407 104.3994819  44.7976886  97.3997419 111.3146145  60.5356693
  97.2994146 112.2640502  60.4668785  97.1818961 110.9864384  59.6632764
  96.6010491 108.5631070  37.1197371  97.4629655 108.8885968  37.3793188
  96.7860835 107.7762566  36.6070437  88.6177907 116.6453410  49.3977560
  87.9241378 116.2307362  48.8847514  89.3650898 116.6873946  48.8010979
 104.7543127 107.4359596  44.2632594 104.1741796 108.0944400  43.8810646
 104.4879060 106.6136941  43.8520011 103.2046694 106.8364654  46.4653914
 103.7046472 106.9481189  45.6568233 103.8482302 106.5325707  47.1054723
  97.2628689 114.7443284  59.3521755  96.7795771 115.5443644  59.5585644
  97.3489629 114.7551229  58.3989199  90.5314649 116.5771663  47.2743574
  90.5085337 116.6759351  46.3225458  90.8415286 117.4236814  47.5960741
  93.1902027 118.6347818  51.3890189  94.1445281 118.6031761  51.3220120
  92.9914551 118.1738442  52.2040415  93.7801409 117.2048934  53.9560987
  94.5994298 117.6993013  53.9795824  94.0538217 116.2880903  53.9278554
 103.5368005 109.5959687  43.3188942 102.6493860 109.8809337  43.1009137
 103.9521994 109.4353450  42.4716219 106.8882541 109.6206208  47.0343281
 107.6642932 110.1102660  47.3067898 106.1630676 110.0464262  47.4915151
 109.3255100 110.3333827  48.0917222 109.9199591 110.0929563  47.3810530
 109.3981684 109.6140958  48.7190758  91.5452256 124.1767438  48.4060387
  91.4106724 123.4167839  47.8398385  91.1284318 124.9008338  47.9389176
 103.5109029 115.1114223  43.5339232 103.4544230 115.5682774  42.6946865
 104.0637372 114.3504907  43.3562075 107.3213835 110.9003955  44.3589352
 107.0650769 110.5000590  45.1897559 106.6966703 111.6147749  44.2339491
 104.2443808 116.3019004  40.8291761 104.1892612 116.1363275  39.8880206
 103.6189864 117.0095037  40.9853951  89.0336323 111.5387068  54.6553184
  89.6795187 111.0286022  55.1440409  88.8253474 112.2755750  55.2296609
  97.5539934 105.8027113  40.4077080  97.5418604 106.7468953  40.5645351
  98.4463356 105.6197258  40.1136541 101.3692053 102.3969890  44.6623017
 100.6024449 101.8428376  44.8079699 101.7802758 102.4691758  45.5237168
  93.3733814 108.6854685  58.7528198  94.2365276 108.3291490  58.9631522
  92.7999225 108.3468580  59.4403602  37.3425911   0.0175241  36.2835905
  37.9804321  -0.1018012  35.5799246  37.2246754   0.9656085  36.3423858
  34.1515617  -0.0297331  36.2197430  33.8134129  -0.1456267  35.3317965
  35.0205386  -0.4306166  36.1998436  34.6335400   1.1237520  42.1783636
  34.6224041   0.7290319  41.3064139  34.7956040   0.3903593  42.7717407
  27.5566865   3.3189337  35.0478542  28.3488157   2.9780161  34.6324841
  27.7963515   3.4284312  35.9680695  31.3542662   3.9074632  41.1262820
  31.0632527   4.8120263  41.0109486  31.9899646   3.9491160  41.8406889
  32.2798868   1.2851481  37.7164179  32.8762441   1.0607503  37.0021142
  32.3373840   0.5436226  38.3189627  42.2975607  -2.3198072  34.2622092
  43.0300779  -2.8898856  34.4959922  41.5414962  -2.7076472  34.7028598
  39.8201027  -8.6076498  38.7216701  39.4884352  -7.7381087  38.4977916
  39.2246640  -8.9240214  39.4010731  36.3132547   3.5936048  38.1212613
  36.0133270   4.4961087  38.0128421  35.9683606   3.3268231  38.9733766
  39.7129690  -3.8881412  35.8010051  38.8046568  -3.9566004  35.5068812
  39.6617286  -3.4109467  36.6291876  31.2953326  10.3580368  31.0883581
  31.2177356  11.3088193  31.1672062  30.6914970  10.0126241  31.7458507
  33.7870556  -2.4691766  43.7444948  33.0103890  -1.9097846  43.7347813
  34.4261119  -1.9834983  44.2659818  41.5791337  -5.6864974  37.5787925
  40.9365717  -5.3932440  36.9327719  41.0746265  -5.8012053  38.3841121
  32.0416928   0.3393687  43.3062915  32.7831613   0.8778731  43.0297739
  31.3353914   0.9659976  43.4634467  37.5172268   2.4822827  41.9035076
  37.9255624   2.0405238  41.1589709  36.7949530   1.9075455  42.1569269
  33.8703338  -2.5804566  39.2768633  34.7164533  -2.1565152  39.4203282
  33.8101976  -3.2370942  39.9707197  37.8401083   3.0424018  35.6587365
  37.2109945   3.2069732  34.9563433  37.4526745   3.4565628  36.4298329
  41.7190315   3.9778456  33.0131729  41.0341353   4.3577357  32.4628762
  41.8034164   4.5873783  33.7463677  37.0202783  -4.9200198  40.9349807
  36.7763715  -4.1658137  40.3984083  37.2962714  -4.5414850  41.7697054
  38.9741246   1.6238415  39.6127073  39.1858141   2.2670175  38.9361454
  38.9270995   0.7900731  39.1449003  33.3929045   2.7798426  32.9237450
  33.8567390   3.0586129  32.1342073  33.1285843   1.8781871  32.7410541
  30.2853126   2.3269908  35.8617214  30.8554483   2.7557176  35.2234698
  30.8761238   2.0452492  36.5601399  30.7778292  -2.5066665  44.1078225
  30.1476953  -1.8250384  44.3413622  30.6714380  -2.6183583  43.1631363
  40.0887074   4.5010370  37.7849430  40.9104518   4.0990558  37.5032112
  40.0849477   4.3978604  38.7365546  33.8543678   4.0494414  39.9410140
  33.9188110   4.5114821  40.7768312  33.1454602   3.4191779  40.0692450
  48.1793067   0.8449119  34.1334401  47.4256776   0.2756517  33.9778406
  48.3140608   0.8111783  35.0805036  28.8315977   6.3503715  32.4639799
  29.0082606   7.2721680  32.2760783  29.6272811   6.0362135  32.8934179
  35.1960172   6.3386088  43.9389463  34.7524026   5.5522466  43.6210367
  35.8577385   6.5265238  43.2733354  29.9547293   7.8681889  38.4650141
  30.5054718   7.7398953  37.6927135  29.1158769   8.1676778  38.1145034
  37.2941410   6.6188888  41.9670864  37.2759885   7.4397769  41.4751133
  38.2161330   6.4942963  42.1921005  33.7514464   4.1333017  42.8094373
  34.2842801   3.3721305  42.5793681  33.2228545   3.8406669  43.5518527
  40.0960023   1.4568030  35.4380231  39.4383697   2.1467291  35.5260359
  40.9000422   1.8464462  35.7814217  38.9065481  -0.1887597  33.4884173
  39.4197363   0.4442394  33.9905882  39.5566705  -0.7886402  33.1227533
  35.3846312  -2.7138142  35.7342513  34.4668874  -2.4923195  35.5764201
  35.8006456  -2.6391831  34.8754220  39.6727278   4.7918404  31.6163315
  39.2189605   3.9509314  31.6728506  39.0421244   5.4279802  31.9538095
  38.1160217   6.6294901  32.5513133  38.4083191   7.1899958  31.8325499
  38.6258837   6.9223462  33.3066292  33.0793842   7.4075252  33.6406587
  33.0370021   7.6336098  32.7115119  33.9956541   7.1738626  33.7892388
  36.5259476  -2.1240681  40.5387216  36.8808864  -1.8969207  41.3981682
  37.1731607  -1.7922304  39.9164471  42.2557213   0.9977755  31.2436545
  42.1175111   1.1879351  30.3157734  41.8993432   1.7597138  31.7004596
  42.2826592   3.0654282  36.2547816  42.7163099   2.9729571  37.1030870
  42.9958173   3.0411783  35.6167832  31.1959643   4.2838281  33.4368549
  31.9900241   3.7888601  33.2351124  30.4851335   3.7556144  33.0736255
  36.0154487   6.6656376  37.7880917  36.0691510   7.2347313  38.5558633
  35.1469269   6.8358261  37.4234954  43.1442142   3.1077983  38.7880702
  43.3378032   4.0123793  39.0339977  43.0442760   2.6485402  39.6219287
  38.2057251   3.2584726  44.3621582  38.0542757   3.0295277  43.4451666
  38.1961930   4.2155327  44.3752927  34.9742587   0.8316638  39.3467849
  35.9034647   0.9827798  39.1736816  34.5533617   0.9200659  38.4916495
  33.7730919   4.8567303  37.1166386  33.6342005   4.4886087  37.9892324
  32.9845515   5.3714942  36.9450344  34.3679071   9.9576399  28.4591923
  34.5430827   9.4864443  29.2737546  33.6811859  10.5842166  28.6873184
  35.3236134   4.2348906  34.5055224  34.9885967   4.1949676  35.4012874
  34.8240080   3.5693622  34.0325634  29.2980378  -0.3583464  40.0307805
  29.1600176  -1.0903226  40.6319344  30.2085301  -0.4474564  39.7491993
  31.9262679  -0.6463505  39.5191485  32.6362297  -1.2870313  39.4778103
  31.8831987  -0.3950610  40.4417666  39.9149457   6.2903848  42.4398064
  39.8562003   5.6063068  41.7728647  40.3168976   7.0322838  41.9878690
  28.9340156  13.1065762  35.2331783  29.1736754  13.7384286  35.9110802
  28.0909353  12.7553802  35.5197142  39.9166865   4.2543432  40.6712044
  39.0293643   3.9169354  40.7938443  40.4865416   3.5226463  40.9080809
  33.4468018   8.9144885  37.6373287  33.3738189   9.7199856  38.1492592
  33.0045411   9.1136850  36.8121308  33.2357798   8.1516655  31.1476109
  32.4525319   8.6938335  31.2414333  33.9350543   8.6690634  31.5470350
  44.3984205  -0.3348350  35.4328606  44.3874081   0.5476365  35.0622539
  43.5301585  -0.6876800  35.2383143  35.9066701   8.8131719  39.7931446
  36.6194674   9.4479183  39.7207347  35.4156730   8.9095585  38.9771448
  37.6284228   2.7182971  31.3648737  36.6940507   2.8384434  31.1953442
  37.8060897   1.8155438  31.1008747  41.0156780  -1.4399709  31.8998772
  41.4817232  -0.6071718  31.8259074  41.4664280  -1.9054728  32.6044030
  30.9578615   6.5626162  40.6137017  31.6588075   7.1962645  40.7666411
  30.4873730   6.9040894  39.8532656  38.7579901  -0.8829230  38.4389567
  38.1051351  -0.6353323  37.7842020  39.1360281  -1.6965092  38.1052044
  35.7187075   9.1530463  32.5417737  35.9009469   8.3352119  33.0045490
  36.5420061   9.3698155  32.1042627  36.0529240   8.0798648  29.8032786
  36.5817007   7.5691102  29.1902948  36.3157460   7.7641178  30.6678319
  34.8067474  -0.1409419  44.9255604  34.1308111  -0.2415290  45.5957979
  35.6295108  -0.2970206  45.3891601  26.5546333   6.0962517  37.5468119
  27.1399770   5.3506205  37.6796023  26.3571172   6.4066474  38.4304783
  29.4084988   9.1313764  32.5630562  28.7395364   9.6159892  32.0794602
  29.2697858   9.3782985  33.4773940  33.5490257  11.1657508  39.1613220
  34.1008565  11.3289130  39.9262305  33.8896450  11.7561946  38.4893245
  38.4001131   5.9918766  45.0161874  38.9441035   6.6048724  44.5216829
  37.8187976   6.5498344  45.5328887  36.6858644   9.1139484  36.1476902
  36.5609784   8.3129223  35.6387848  37.3437735   9.6085677  35.6590872
  38.7493553   6.9148504  37.7756452  37.8023888   6.7953855  37.7034779
  39.0976326   6.0271002  37.8582714  35.7539986   6.7101220  33.9760804
  35.6064948   5.7817927  34.1568374  36.5793479   6.7321311  33.4917880
  39.3574108   7.5329779  35.0625677  40.2820655   7.3272640  34.9250128
  39.1889411   7.2846180  35.9715019  39.1469424   8.0515446  30.4187769
  39.3206301   7.4861869  29.6661621  39.6398315   8.8516341  30.2367259
  45.0008815   0.8151869  32.0378068  45.4439961   0.0659194  31.6397192
  44.1235325   0.8062005  31.6551800  40.1344596   7.3682210  27.5184667
  40.8295501   7.9888903  27.7371982  40.4767747   6.5177562  27.7937045
  42.0336020   4.8181916  29.0471998  42.5587344   5.1569189  28.3221318
  41.9458372   3.8828931  28.8635132  33.6956068   8.7315990  41.1761874
  34.0043195   8.4865136  42.0484574  34.4931550   8.9362628  40.6880745
  33.7176680  10.8853899  33.4067251  33.2781671  10.3930278  34.1000108
  34.4684797  10.3426867  33.1659326  26.1969019   7.0765440  33.4091879
  27.0227039   6.7769212  33.0290523  25.8463071   6.3073063  33.8581668
  31.1650552   6.4291908  35.4789553  30.5430562   5.7662613  35.1791780
  31.8355419   6.4553040  34.7963200  41.7229926   5.4514820  44.3523196
  40.9325469   5.4338958  43.8127695  41.4863280   5.9903113  45.1072232
  41.8427801   2.3007286  41.6655924  41.8925806   2.1357293  42.6071447
  41.7341724   1.4334545  41.2753805  39.1331563  -1.7161786  42.9815231
  40.0341426  -1.8555321  42.6899229  39.2079538  -1.5507331  43.9213408
  33.4674368  -4.3394931  41.8268417  32.5977678  -4.0461365  41.5551006
  33.7033849  -3.7554486  42.5475681  43.3445997   4.7204227  41.9097946
  43.0530806   5.0834208  42.7461407  42.7318129   4.0071236  41.7311278
  44.5441680   2.2857107  34.4300516  45.3788571   2.7246911  34.5938076
  44.6800809   1.8095760  33.6108762  41.5933186  -0.1563158  40.3778004
  42.0687307   0.0364488  39.5696855  40.6698751  -0.1003972  40.1321387
  40.2934855  -3.2797398  38.6106309  41.2452278  -3.1799300  38.6318533
  40.1238305  -4.0719129  39.1204394  38.3149234  -6.1941815  38.7965710
  37.7199166  -5.9136802  38.1012199  38.0298931  -5.7047914  39.5682451
  42.7722932  -0.0591278  37.7248609  42.7399253  -0.9975277  37.9108293
  43.3823556   0.0192759  36.9914434  42.9217421  -3.2680235  37.7706892
  42.4056470  -4.0521778  37.5836821  43.8057369  -3.5961518  37.9353412
  48.5899482   1.0024729  36.8654646  49.3202871   0.7410017  37.4262349
  47.9806428   0.2653451  36.9056714  46.6714779  -0.8567409  37.4629097
  45.9447943  -0.9911444  36.8545589  46.2562066  -0.5490580  38.2685815
  34.4944956   2.8622521  45.2276470  35.4147965   3.0401120  45.4216517
  34.4594539   1.9178566  45.0756169  27.4907028   0.7723556  37.8699251
  27.7093038   1.7040663  37.8887285  27.9032802   0.4131530  38.6554055
  32.3634894  -3.6543239  47.2602000  32.2631621  -2.7048882  47.1914091
  32.1456436  -3.9825000  46.3878070  32.2266164  -0.2246100  46.0767062
  31.7433246   0.5754260  46.2830951  32.3127103  -0.2138155  45.1234506
  28.1539501   3.6658435  38.1135496  29.1082755   3.6342377  38.0465427
  27.9552025   3.2049059  38.9285721  28.7438883   2.2359551  40.6806293
  29.5631772   2.7303630  40.7041130  29.0175691   1.3191519  40.6523861
  41.8520016  -5.3483176  33.7588588  42.6280406  -4.8586723  34.0313205
  41.1268150  -4.9225122  34.2160457  44.2892574  -4.6355556  34.8162529
  44.8837065  -4.8759821  34.1055837  44.3619158  -5.3548426  35.4436065
  26.5089730   9.2078054  35.1305693  26.3744198   8.4478455  34.5643691
  26.0921792   9.9318954  34.6634482  46.5963647  -1.3289356  33.5905950
  46.0363205  -1.2596166  34.3637512  45.9907150  -1.5048371  32.8705446
  29.6658856  10.1047371  35.3424136  29.5491240  11.0492804  35.2402826
  28.8451302   9.8020933  35.7309935  36.5227190   3.6378532  46.8790631
  37.3918349   3.8119185  46.5177266  36.0433941   4.4572949  46.7566360
  30.6913370  10.7575633  38.5580064  31.5940617  10.7899244  38.8746559
  30.4650740   9.8276084  38.5726400  32.4466972   9.5106620  35.2190143
  31.4962603   9.5108482  35.1054515  32.7499458   8.7639354  34.7026178
  48.1819666  15.3467158  36.2835905  48.8198076  15.2273906  35.5799246
  48.0640508  16.2948002  36.3423858  44.9909372  15.2994586  36.2197430
  44.6527883  15.1835651  35.3317965  45.8599140  14.8985751  36.1998436
  40.8496188  17.1530063  32.2094321  40.2861053  17.0620000  31.4410609
  40.7348583  16.3329967  32.6896814  45.4729155  16.4529438  42.1783636
  45.4617796  16.0582236  41.3064139  45.6349794  15.7195511  42.7717407
  38.3960619  18.6481254  35.0478542  39.1881911  18.3072079  34.6324841
  38.6357270  18.7576229  35.9680695  46.4295746  20.8201031  27.5208786
  45.7783726  21.4055111  27.1342800  47.2240109  21.3507225  27.5803824
  40.3551373  17.9090168  27.9195920  41.1282249  17.3619155  27.7808796
  40.7076772  18.7734417  28.1310382  42.1936416  19.2366550  41.1262820
  41.9026282  20.1412181  41.0109486  42.8293400  19.2783078  41.8406889
  43.1192623  16.6143398  37.7164179  43.7156195  16.3899421  37.0021142
  43.1767594  15.8728144  38.3189627  42.6917651  14.0682834  25.5514370
  42.9443172  13.5464355  24.7897833  41.7542210  13.9048979  25.6541054
  47.7360934  13.0718612  33.3589114  48.5224023  12.6538035  33.0079531
  47.9999638  13.9764704  33.5270762  47.9071011  18.5091462  28.0577770
  47.2716844  18.5826089  28.7698675  47.5768418  19.0985061  27.3796850
  53.1369361  13.0093845  34.2622092  53.8694533  12.4393062  34.4959922
  52.3808717  12.6215446  34.7028598  42.4113940  15.9710940  27.7538745
  42.2950198  15.2955843  28.4219830  42.5216200  15.4843314  26.9370898
  44.7545481  15.4321087  31.4585435  44.3903688  14.9051708  32.1698356
  45.6112597  15.0419556  31.2851920  50.6594782   6.7215419  38.7216701
  50.3278106   7.5910830  38.4977916  50.0640395   6.4051703  39.4010731
  44.3950968  10.4610987  26.4546783  44.5625370  11.3291223  26.8217254
  44.2048137  10.6238268  25.5308072  47.1526301  18.9227965  38.1212613
  46.8527024  19.8253004  38.0128421  46.8077361  18.6560149  38.9733766
  40.6038783  15.3741762  34.1549318  39.6789279  15.2417976  34.3627010
  40.8523196  16.1535982  34.6519260  50.5523445  11.4410506  35.8010051
  49.6440322  11.3725914  35.5068812  50.5011041  11.9182451  36.6291876
  44.3740189  12.9168644  27.4393450  44.2539814  13.3625695  28.2778930
  43.6792777  13.2653962  26.8806988  37.9647594  15.0175036  34.9893107
  38.0939975  15.2709515  35.9032519  37.2845045  15.6102744  34.6697762
  42.1347081  25.6872286  31.0883581  42.0571111  26.6380111  31.1672062
  41.5308724  25.3418158  31.7458507  44.6264311  12.8600151  43.7444948
  43.8497645  13.4194071  43.7347813  45.2654874  13.3456934  44.2659818
  52.4185091   9.6426944  37.5787925  51.7759472   9.9359477  36.9327719
  51.9140020   9.5279864  38.3841121  50.0725255  13.3890117  28.2673784
  50.9843111  13.6217504  28.0921481  49.5634902  13.9727161  27.7048862
  42.8810683  15.6685605  43.3062915  43.6225367  16.2070649  43.0297739
  42.1747668  16.2951893  43.4634467  48.3566023  17.8114745  41.9035076
  48.7649379  17.3697156  41.1589709  47.6343284  17.2367373  42.1569269
  44.7097093  12.7487352  39.2768633  45.5558288  13.1726765  39.4203282
  44.6495730  12.0920976  39.9707197  48.6794837  18.3715936  35.6587365
  48.0503700  18.5361650  34.9563433  48.2920499  18.7857545  36.4298329
  52.5584069  19.3070374  33.0131729  51.8735107  19.6869275  32.4628762
  52.6427918  19.9165700  33.7463677  47.8596538  10.4091720  40.9349807
  47.6157470  11.1633781  40.3984083  48.1356468  10.7877068  41.7697054
  49.8135001  16.9530333  39.6127073  50.0251896  17.5962092  38.9361454
  49.7664749  16.1192649  39.1449003  47.4161230   9.5648153  36.5163645
  46.5545709   9.8629407  36.8080382  47.4423664   9.7818552  35.5844677
  44.2322799  18.1090344  32.9237450  44.6961145  18.3878047  32.1342073
  43.9679597  17.2073788  32.7410541  41.1246880  17.6561825  35.8617214
  41.6948237  18.0849094  35.2234698  41.7154992  17.3744410  36.5601399
  43.1691685  14.2313496  29.7327016  43.8715729  14.6834540  30.2000942
  42.8372314  13.5897315  30.3606909  41.6172047  12.8225253  44.1078225
  40.9870707  13.5041534  44.3413622  41.5108135  12.7108334  43.1631363
  36.9117019  12.4897049  35.0344149  36.1216073  12.7454577  34.5584260
  37.4028267  13.3045387  35.1396190  50.9280829  19.8302288  37.7849430
  51.7498272  19.4282475  37.5032112  50.9243232  19.7270522  38.7365546
  38.8631765  12.8541628  31.9927626  38.0662928  12.9660322  32.5111122
  38.6357357  13.1928280  31.1268516  44.6937432  19.3786331  39.9410140
  44.7581865  19.8406738  40.7768312  43.9848356  18.7483696  40.0692450
  35.1954722  12.7427539  37.4659140  35.4462761  13.6274549  37.7316716
  35.7314271  12.5632141  36.6934232  59.0186822  16.1741036  34.1334401
  58.2650530  15.6048435  33.9778406  59.1534363  16.1403701  35.0805036
  44.4085450  21.0454439  29.8089121  44.2731125  21.8905974  30.2373969
  44.9495262  21.2473716  29.0455055  40.8952789   7.1246019  46.4703476
  40.5019735   6.5712217  47.1451120  41.7118930   7.4356597  46.8609994
  37.8614847  18.5629877  30.3817046  38.3739368  19.3573127  30.5322611
  38.5137560  17.8656167  30.3150647  39.6709732  21.6795633  32.4639799
  39.8476360  22.6013598  32.2760783  40.4666565  21.3654052  32.8934179
  43.8120750   8.5403898  44.0623733  44.5530464   9.1411051  43.9828195
  44.0438673   7.7981535  43.5041775  38.9562088  13.7260265  42.3401962
  38.8415604  12.8245522  42.6409061  38.1006606  13.9723962  41.9886779
  46.0353926  21.6678005  43.9389463  45.5917780  20.8814384  43.6210367
  46.6971140  21.8557156  43.2733354  40.7941047  23.1973807  38.4650141
  41.3448472  23.0690870  37.6927135  39.9552523  23.4968696  38.1145034
  48.1335164  21.9480805  41.9670864  48.1153640  22.7689686  41.4751133
  49.0555084  21.8234880  42.1921005  44.5908218  19.4624935  42.8094373
  45.1236555  18.7013223  42.5793681  44.0622299  19.1698586  43.5518527
  47.7577913   4.5685001  38.3388014  47.4142183   5.4586642  38.2627125
  48.1256876   4.3786658  37.4757599  35.8263764  16.8918531  31.1576616
  36.6638986  17.3015539  30.9410324  36.0042032  15.9517973  31.1276810
  47.7228196  14.5593612  26.8460449  47.2074820  15.3298216  27.0848837
  47.4505505  13.8858748  27.4693511  45.3075307   9.4043313  31.9045688
  44.4516903   9.0150163  31.7251326  45.7202259   9.4835273  31.0445473
  46.8374454   6.9389656  36.3037248  46.3339249   6.9019791  35.4905053
  47.1305061   7.8482399  36.3633904  43.0817340   7.0228386  35.3103429
  43.9470336   6.8271194  34.9509319  43.1494849   6.7938737  36.2372786
  52.6962470  17.3125966  28.7813623  51.9191913  16.9737126  28.3368785
  53.3753951  17.3178590  28.1068588  47.5114499  12.4320704  28.6720231
  47.2064635  12.7466853  29.5230374  48.4644941  12.5102124  28.7147564
  45.9560931  18.5910927  30.3213185  45.4282293  17.8563687  30.0086422
  45.4548434  19.3685603  30.0753153  50.9353777  16.7859948  35.4380231
  50.2777452  17.4759209  35.5260359  51.7394176  17.1756380  35.7814217
  40.6879659   9.2530593  32.6819796  41.2623411   9.0305775  31.9492989
  41.2750641   9.3219288  33.4348397  49.7459236  15.1404320  33.4884173
  50.2591118  15.7734312  33.9905882  50.3960460  14.5405516  33.1227533
  41.0149246  11.2835054  26.7015681  40.1786558  11.6209741  27.0224956
  40.8754015  11.1484034  25.7642818  42.9902326   6.1271842  31.4094865
  42.3366739   5.8120860  30.7851480  42.9482801   5.5047583  32.1354688
  44.1013531  16.4091137  23.3248158  43.1940593  16.1780391  23.5239307
  44.5984563  15.6128757  23.5122139  47.0081610  25.1188645  26.2444844
  46.3343309  25.4220341  26.8529802  47.3947432  25.9217725  25.8950301
  46.2240067  12.6153776  35.7342513  45.3062628  12.8368723  35.5764201
  46.6400210  12.6900086  34.8754220  47.0075115  14.0145192  30.8645193
  47.7546933  14.5266589  30.5552315  47.2766704  13.6929244  31.7249587
  45.2801765  16.5103732  27.8472148  44.3712984  16.2262765  27.9444617
  45.3096849  16.9302811  26.9875455  50.5121032  20.1210322  31.6163315
  50.0583359  19.2801232  31.6728506  49.8814999  20.7571720  31.9538095
  49.4553952  11.0502308  32.8463983  48.7176708  10.5379694  33.1774225
  49.7080725  10.6102689  32.0347260  48.9553971  21.9586818  32.5513133
  49.2476946  22.5191876  31.8325499  49.4652592  22.2515379  33.3066292
  49.5565579   3.8278560  33.4405752  49.8624456   2.9675923  33.1531667
  50.2818184   4.4196180  33.2404746  35.8489935  14.2309246  31.8287350
  35.6514335  13.6378607  31.1038416  35.2936599  13.9261457  32.5463289
  43.8286659  14.1232353  33.9481943  43.8835269  13.1706189  33.8724420
  43.0177861  14.2791792  34.4323241  44.9777853  18.0512476  25.1860226
  44.5397282  17.3348335  24.7265864  45.7188293  18.2788591  24.6245318
  41.7679019  12.7409413  31.7072322  40.9546884  13.0403583  32.1137514
  42.2638013  12.3465101  32.4246804  43.9187597  22.7367170  33.6406587
  43.8763775  22.9628016  32.7115119  44.8350295  22.5030544  33.7892388
  47.3653230  13.2051237  40.5387216  47.7202618  13.4322710  41.3981682
  48.0125362  13.5369614  39.9164471  53.0950967  16.3269673  31.2436545
  52.9568866  16.5171269  30.3157734  52.7387186  17.0889056  31.7004596
  41.2593093  10.3127768  37.3233557  41.8992473  10.1716527  36.6256520
  40.4270624  10.0262282  36.9472159  53.1220347  18.3946200  36.2547816
  53.5556854  18.3021489  37.1030870  53.8351928  18.3703700  35.6167832
  42.0353397  19.6130199  33.4368549  42.8293996  19.1180519  33.2351124
  41.3245090  19.0848062  33.0736255  46.8548242  21.9948294  37.7880917
  46.9085264  22.5639230  38.5558633  45.9863023  22.1650179  37.4234954
  38.3436161  13.7573280  29.5128302  37.4133749  13.6957736  29.7298264
  38.4393633  13.2349233  28.7164943  38.2621710  10.2828093  32.1006544
  38.5228527  11.1973426  31.9915704  39.0838882   9.8152536  32.2503156
  39.7346635  11.6965850  39.2705368  40.4069689  11.4883212  38.6218017
  38.9076422  11.4987936  38.8310600  53.9835896  18.4369901  38.7880702
  54.1771787  19.3415711  39.0339977  53.8836515  17.9777320  39.6219287
  45.6372207   8.3227791  41.2871029  44.9900122   9.0217741  41.1935505
  46.4073223   8.7563935  41.6547277  49.0451005  18.5876643  44.3621582
  48.8936512  18.3587195  43.4451666  49.0355685  19.5447245  44.3752927
  45.8136342  16.1608556  39.3467849  46.7428402  16.3119716  39.1736816
  45.3927372  16.2492577  38.4916495  44.6124673  20.1859221  37.1166386
  44.4735759  19.8178005  37.9892324  43.8239270  20.7006860  36.9450344
  45.2072825  25.2868317  28.4591923  45.3824581  24.8156360  29.2737546
  44.5205613  25.9134083  28.6873184  46.1629888  19.5640823  34.5055224
  45.8279721  19.5241593  35.4012874  45.6633834  18.8985539  34.0325634
  40.1374132  14.9708453  40.0307805  39.9993930  14.2388692  40.6319344
  41.0479056  14.8817353  39.7491993  49.0989080  16.9096858  24.7792284
  48.4818251  16.1843686  24.6825337  48.6305569  17.6706218  24.4359358
  42.7656433  14.6828413  39.5191485  43.4756052  14.0421605  39.4778103
  42.7225741  14.9341307  40.4417666  50.7543212  21.6195766  42.4398064
  50.6955758  20.9354986  41.7728647  51.1562730  22.3614756  41.9878690
  41.4785367  11.6693630  41.3387124  40.9422724  11.2184369  41.9908721
  40.8902076  11.8039539  40.5957589  39.7733911  28.4357680  35.2331783
  40.0130509  29.0676204  35.9110802  38.9303107  28.0845720  35.5197142
  50.7560619  19.5835350  40.6712044  49.8687398  19.2461272  40.7938443
  51.3259170  18.8518381  40.9080809  32.4089766  15.9159442  33.9955095
  33.0960806  15.6021172  33.4076111  32.2537895  16.8200806  33.7222347
  37.2124488  10.8049638  38.4240119  37.1282677  10.1975308  37.6890529
  36.3907195  11.2958657  38.4249615  44.2861772  24.2436802  37.6373287
  44.2131944  25.0491774  38.1492592  43.8439166  24.4428768  36.8121308
  44.0751552  23.4808572  31.1476109  43.2919074  24.0230252  31.2414333
  44.7744297  23.9982552  31.5470350  47.3848202   9.2903202  33.7910314
  47.8816902   8.5373164  33.4711384  46.6135184   9.3267518  33.2253523
  55.2377960  14.9943567  35.4328606  55.2267836  15.8768283  35.0622539
  54.3695339  14.6415118  35.2383143  46.7460456  24.1423636  39.7931446
  47.4588428  24.7771101  39.7207347  46.2550485  24.2387502  38.9771448
  48.4677983  18.0474889  31.3648737  47.5334262  18.1676351  31.1953442
  48.6454651  17.1447356  31.1008747  43.9683171  11.4320585  33.5181999
  43.5980958  10.8791625  34.2062904  44.4642263  10.8278718  32.9656999
  51.8550534  13.8892208  31.8998772  52.3210986  14.7220200  31.8259074
  52.3058035  13.4237190  32.6044030  41.7972370  21.8918080  40.6137017
  42.4981829  22.5254563  40.7666411  41.3267485  22.2332811  39.8532656
  49.9226765  20.2336030  28.8984924  50.1986609  20.1192624  29.8078798
  49.0531264  19.8353514  28.8597097  49.8267197   6.2572795  35.9389673
  48.9130277   6.4877022  36.1071880  50.2560298   6.3411239  36.7903705
  49.5973655  14.4462687  38.4389567  48.9445106  14.6938595  37.7842020
  49.9754035  13.6326825  38.1052044  46.5580829  24.4822380  32.5417737
  46.7403224  23.6644036  33.0045490  47.3813815  24.6990073  32.1042627
  46.8922995  23.4090565  29.8032786  47.4210761  22.8983020  29.1902948
  47.1551214  23.0933096  30.6678319  45.6461229  15.1882498  44.9255604
  44.9701866  15.0876628  45.5957979  46.4688862  15.0321712  45.3891601
  37.3940088  21.4254435  37.5468119  37.9793524  20.6798123  37.6796023
  37.1964926  21.7358391  38.4304783  40.2478743  24.4605682  32.5630562
  39.5789118  24.9451810  32.0794602  40.1091612  24.7074903  33.4773940
  31.9857742  13.9960035  36.2672562  32.0241842  13.4623626  37.0609680
  31.4798035  13.4695241  35.6483540  44.3884011  26.4949426  39.1613220
  44.9402319  26.6581047  39.9262305  44.7290205  27.0853864  38.4893245
  39.3648505   8.8424575  39.7635105  39.4289831   9.7039406  39.3512502
  39.3015625   8.2298577  39.0307463  38.8400777  10.9147708  43.4108139
  39.4672816  10.5324785  44.0245663  37.9828696  10.6961910  43.7763831
  49.2394886  21.3210683  45.0161874  49.7834790  21.9340641  44.5216829
  48.6581731  21.8790262  45.5328887  35.6166320  12.7224137  29.3426494
  35.9119761  11.8134816  29.2893547  34.7154356  12.7011877  29.0207496
  47.5252399  24.4431401  36.1476902  47.4003538  23.6421141  35.6387848
  48.1831490  24.9377595  35.6590872  39.1460567  10.7980134  35.3254042
  38.4247153  11.4116101  35.1861516  39.9353823  11.3337899  35.2470688
  49.5887307  22.2440421  37.7756452  48.6417643  22.1245772  37.7034779
  49.9370080  21.3562919  37.8582714  41.9486880   8.1334560  41.5994694
  42.4721282   8.3796857  42.3621003  41.7299214   8.9654595  41.1797831
  37.3454161  10.4038235  29.4665819  37.0166868   9.5235614  29.2840925
  37.6993532  10.3485903  30.3542208  46.5933740  22.0393138  33.9760804
  46.4458703  21.1109845  34.1568374  47.4187234  22.0613228  33.4917880
  40.4595985  10.6911205  29.8341297  40.7992057  11.2197126  29.1119905
  40.9068105  11.0291611  30.6099863  50.1967862  22.8621696  35.0625677
  51.1214410  22.6564558  34.9250128  50.0283166  22.6138097  35.9715019
  43.1539425   9.0748255  39.2844365  42.8136246   8.2756068  39.6865045
  42.4478432   9.3749966  38.7121198  43.8055897   6.1597568  37.7371688
  44.6281967   5.6858046  37.6150578  44.0493961   6.9388052  38.2370374
  42.4464132   9.1885826  28.0334589  43.1672494   9.5667079  27.5298306
  41.8229436   9.9074703  28.1369567  46.5895255   9.8930975  28.9692922
  46.8058869  10.7755613  28.6681750  46.1089322   9.5017189  28.2398564
  41.3294476  12.8516688  35.5463666  41.1839057  13.1656991  36.4387948
  40.8519680  13.4701589  34.9934565  43.1890859   9.8419236  35.5944556
  43.1752428   8.9460330  35.2576854  43.9063287   9.8489900  36.2282842
  45.0416990  10.2756577  37.6397683  44.7834767  11.1973647  37.6382014
  44.5102030   9.8787011  38.3298147  49.9863178  23.3807364  30.4187769
  50.1600056  22.8153786  29.6661621  50.4792070  24.1808259  30.2367259
  35.8040138  15.3922033  38.4851327  35.2593606  16.1681841  38.6171602
  36.6819488  15.7392837  38.3270449  42.5927755   8.7233617  30.8632126
  42.7143666   7.7950263  31.0623013  42.3029797   8.7372303  29.9510441
  45.4618945   6.4088527  33.9998846  45.4840642   6.4727860  33.0450825
  45.8787004   5.5693036  34.1939352  55.8402570  16.1443787  32.0378068
  56.2833716  15.3951112  31.6397192  54.9629080  16.1353923  31.6551800
  50.9738351  22.6974128  27.5184667  51.6689256  23.3180821  27.7371982
  51.3161501  21.8469479  27.7937045  36.5906160  14.5191929  41.3781484
  35.8487896  14.6674564  41.9646115  36.2698904  14.7800195  40.5148234
  52.8729774  20.1473834  29.0471998  53.3981098  20.4861106  28.3221318
  52.7852127  19.2120849  28.8635132  44.5349823  24.0607907  41.1761874
  44.8436949  23.8157054  42.0484574  45.3325305  24.2654546  40.6880745
  44.5570435  26.2145817  33.4067251  44.1175425  25.7222196  34.1000108
  45.3078552  25.6718785  33.1659326  37.0362774  22.4057358  33.4091879
  37.8620794  22.1061130  33.0290523  36.6856826  21.6364980  33.8581668
  42.0044307  21.7583826  35.4789553  41.3824316  21.0954531  35.1791780
  42.6749174  21.7844958  34.7963200  35.2371379  20.3243684  34.3680813
  34.4003287  19.8965859  34.1864814  35.2095024  20.5176128  35.3051604
  42.0768834  10.2365614  45.0722059  42.1256990  11.1127737  44.6899828
  42.6191349   9.6943007  44.4993702  52.5623680  20.7806737  44.3523196
  51.7719224  20.7630876  43.8127695  52.3257035  21.3195031  45.1072232
  52.6821555  17.6299204  41.6655924  52.7319560  17.4649211  42.6071447
  52.5735478  16.7626463  41.2753805  41.5657814  20.3087749  28.9548013
  41.7145934  20.9923214  28.3014686  42.3724257  20.2892839  29.4697469
  49.9725318  13.6130132  42.9815231  50.8735180  13.4736597  42.6899229
  50.0473292  13.7784587  43.9213408  44.3068123  10.9896986  41.8268417
  43.4371432  11.2830552  41.5551006  44.5427603  11.5737431  42.5475681
  54.1839752  20.0496145  41.9097946  53.8924560  20.4126126  42.7461407
  53.5711883  19.3363153  41.7311278  55.3835434  17.6149025  34.4300516
  56.2182326  18.0538829  34.5938076  55.5194563  17.1387678  33.6108762
  52.4326940  15.1728760  40.3778004  52.9081062  15.3656406  39.5696855
  51.5092506  15.2287946  40.1321387  39.3210447  16.3352927  29.9609082
  39.0756489  15.4315257  30.1589292  39.4906361  16.3370077  29.0188560
  47.0107157   7.2076603  39.3433838  47.5289101   7.9437630  39.0180326
  46.6562289   7.5140597  40.1780597  38.5906094  12.0681285  27.4595243
  37.8975339  12.1425640  26.8035279  38.3457846  11.3041628  27.9816760
  47.2619751   3.6276886  34.8634734  47.5421505   2.9600075  35.4895161
  48.0470358   3.8205982  34.3509398  45.0653219  22.8035880  26.4259761
  44.4927186  23.4226067  25.9730232  45.6386013  23.3535241  26.9599682
  51.1328609  12.0494520  38.6106309  52.0846032  12.1492618  38.6318533
  50.9632060  11.2572788  39.1204394  49.1542989   9.1350103  38.7965710
  48.5592921   9.4155116  38.1012199  48.8692685   9.6244004  39.5682451
  48.2850479  23.0873030  27.5568343  49.2181152  23.0218592  27.7601218
  48.1973692  23.9229297  27.0982875  50.9138496  22.4038900  24.5172290
  50.8352127  22.0698764  25.4108048  51.7348163  22.8960668  24.5163763
  53.6116687  15.2700640  37.7248609  53.5793007  14.3316640  37.9108293
  54.2217311  15.3484676  36.9914434  45.4500018  14.1396693  23.7675813
  46.3959123  14.0102901  23.8364231  45.0714263  13.4011354  24.2445241
  53.7611175  12.0611683  37.7706892  53.2450224  11.2770140  37.5836821
  54.6451124  11.7330400  37.9353412  51.4221902   5.8052699  33.7302705
  51.2246724   5.4967787  34.6146037  52.0321608   6.5314337  33.8600635
  59.4293237  16.3316646  36.8654646  60.1596625  16.0701935  37.4262349
  58.8200182  15.5945368  36.9056714  57.5108534  14.4724509  37.4629097
  56.7841698  14.3380474  36.8545589  57.0955821  14.7801338  38.2685815
  45.3338710  18.1914439  45.2276470  46.2541720  18.3693038  45.4216517
  45.2988293  17.2470484  45.0756169  43.6342935  12.0646669  23.7030698
  42.7274390  11.7679782  23.7793412  43.9118916  11.7676487  22.8364984
  34.5520875  13.3853032  34.1529745  34.2323660  12.5318341  33.8604119
  34.0054304  13.6001610  34.9087712  38.3300783  16.1015473  37.8699251
  38.5486793  17.0332581  37.8887285  38.7426557  15.7423448  38.6554055
  45.2505001   6.6083559  29.8574940  44.4405729   6.2630644  30.2330186
  45.9389418   6.2991102  30.4462551  47.1795549   5.6861605  31.4799236
  47.7326588   6.1057059  32.1389259  47.4165635   4.7597354  31.5222192
  43.2028648  11.6748679  47.2602000  43.1025375  12.6243036  47.1914091
  42.9850190  11.3466918  46.3878070  34.4209135  17.0055944  36.1222866
  33.7272607  16.5909897  35.6092821  35.1682126  17.0476480  35.5256285
  50.5574356   7.7962131  30.9877900  49.9773025   8.4546935  30.6055953
  50.2910289   6.9739475  30.5765318  49.0077922   7.1967188  33.1899221
  49.5077701   7.3083723  32.3813540  49.6513530   6.8928241  33.8300029
  43.0659918  15.1045818  46.0767062  42.5827000  15.9046178  46.2830951
  43.1520857  15.1153763  45.1234506  36.3345878  16.9374198  33.9988881
  36.3116566  17.0361885  33.0470764  36.6446514  17.7839348  34.3206047
  38.9933256  18.9950353  38.1135496  39.9476509  18.9634295  38.0465427
  38.7945779  18.5340976  38.9285721  39.5832638  17.5651469  40.6806293
  40.4025527  18.0595547  40.7041130  39.8569446  16.6483437  40.6523861
  49.3399234   9.9562221  30.0434249  48.4525089  10.2411872  29.8254443
  49.7553223   9.7955984  29.1961526  52.6913770   9.9808742  33.7588588
  53.4674160  10.4705194  34.0313205  51.9661904  10.4066796  34.2160457
  55.1286329  10.6936361  34.8162529  55.7230820  10.4532097  34.1055837
  55.2012913   9.9743492  35.4436065  37.3483485  24.5369972  35.1305693
  37.2137952  23.7770373  34.5643691  36.9315547  25.2610872  34.6634482
  48.4842448  19.7206896  24.1382269  49.1878298  19.9256898  24.7539924
  47.7605096  20.2883658  24.4031352  49.3140258  15.4716757  30.2584539
  49.2575459  15.9285308  29.4192171  49.8668600  14.7107442  30.0807382
  53.1245064  11.2606489  31.0834658  52.8681998  10.8603124  31.9142866
  52.4997932  11.9750283  30.9584798  57.4357402  14.0002562  33.5905950
  56.8756960  14.0695751  34.3637512  56.8300905  13.8243547  32.8705446
  40.5052610  25.4339289  35.3424136  40.3884995  26.3784722  35.2402826
  39.6845057  25.1312851  35.7309935  50.3929145  20.1589425  26.1880729
  51.2274749  19.7270623  26.0058204  50.2313488  19.9871439  27.1157623
  50.0475037  16.6621538  27.5537068  49.9923841  16.4965810  26.6125512
  49.4221092  17.3697571  27.7099258  34.8367552  11.8989603  41.3798490
  35.4826416  11.3888557  41.8685715  34.6284703  12.6358284  41.9541916
  47.3620944  18.9670450  46.8790631  48.2312104  19.1411102  46.5177266
  46.8827696  19.7864867  46.7566360  43.3571163   6.1629647  27.1322386
  43.3449832   7.1071487  27.2890657  44.2494584   5.9799793  26.8381848
  41.5307125  26.0867551  38.5580064  42.4334371  26.1191161  38.8746559
  41.3044495  25.1568002  38.5726400  43.2860727  24.8398538  35.2190143
  42.3356358  24.8400399  35.1054515  43.5893213  24.0931272  34.7026178
  47.1723282   2.7572424  31.3868323  46.4055678   2.2030911  31.5325006
  47.5833987   2.8294293  32.2482475  39.1765043   9.0457220  45.4773504
  40.0396505   8.6894024  45.6876829  38.6030454   8.7071114  46.1648909
  59.0213420  30.6759076  36.2835905  59.6591830  30.5565823  35.5799246
  58.9034263  31.6239920  36.3423858  55.8303126  30.6286504  36.2197430
  55.4921638  30.5127569  35.3317965  56.6992895  30.2277669  36.1998436
  51.6889942  32.4821980  32.2094321  51.1254807  32.3911917  31.4410609
  51.5742337  31.6621885  32.6896814  56.3122909  31.7821356  42.1783636
  56.3011550  31.3874154  41.3064139  56.4743549  31.0487428  42.7717407
  49.2354374  33.9773172  35.0478542  50.0275666  33.6363997  34.6324841
  49.4751024  34.0868147  35.9680695  57.2689501  36.1492948  27.5208786
  56.6177481  36.7347029  27.1342800  58.0633864  36.6799143  27.5803824
  51.1945128  33.2382085  27.9195920  51.9676004  32.6911072  27.7808796
  51.5470527  34.1026335  28.1310382  53.0330170  34.5658468  41.1262820
  52.7420036  35.4704098  41.0109486  53.6687155  34.6074995  41.8406889
  53.9586377  31.9435316  37.7164179  54.5549950  31.7191339  37.0021142
  54.0161349  31.2020062  38.3189627  53.5311406  29.3974751  25.5514370
  53.7836926  28.8756273  24.7897833  52.5935965  29.2340897  25.6541054
  58.5754689  28.4010530  33.3589114  59.3617778  27.9829953  33.0079531
  58.8393393  29.3056622  33.5270762  58.7464766  33.8383380  28.0577770
  58.1110599  33.9118007  28.7698675  58.4162172  34.4276979  27.3796850
  63.9763116  28.3385763  34.2622092  64.7088288  27.7684980  34.4959922
  63.2202471  27.9507363  34.7028598  53.2507694  31.3002857  27.7538745
  53.1343953  30.6247761  28.4219830  53.3609954  30.8135231  26.9370898
  55.5939235  30.7613005  31.4585435  55.2297443  30.2343625  32.1698356
  56.4506351  30.3711474  31.2851920  55.2344722  25.7902904  26.4546783
  55.4019125  26.6583141  26.8217254  55.0441891  25.9530186  25.5308072
  57.9920056  34.2519883  38.1212613  57.6920779  35.1544922  38.0128421
  57.6471115  33.9852066  38.9733766  51.4432537  30.7033680  34.1549318
  50.5183034  30.5709894  34.3627010  51.6916950  31.4827899  34.6519260
  61.3917199  26.7702423  35.8010051  60.4834077  26.7017832  35.5068812
  61.3404795  27.2474368  36.6291876  55.2133943  28.2460562  27.4393450
  55.0933568  28.6917612  28.2778930  54.5186532  28.5945879  26.8806988
  48.8041348  30.3466954  34.9893107  48.9333729  30.6001432  35.9032519
  48.1238799  30.9394662  34.6697762  52.9740835  41.0164203  31.0883581
  52.8964865  41.9672029  31.1672062  52.3702479  40.6710076  31.7458507
  55.4658065  28.1892069  43.7444948  54.6891399  28.7485989  43.7347813
  56.1048628  28.6748852  44.2659818  60.9119009  28.7182035  28.2673784
  61.8236866  28.9509422  28.0921481  60.4028656  29.3019079  27.7048862
  53.7204437  30.9977522  43.3062915  54.4619122  31.5362566  43.0297739
  53.0141423  31.6243811  43.4634467  55.5490847  28.0779269  39.2768633
  56.3952042  28.5018683  39.4203282  55.4889485  27.4212894  39.9707197
  59.5188592  33.7007853  35.6587365  58.8897454  33.8653567  34.9563433
  59.1314254  34.1149463  36.4298329  58.2554984  24.8940071  36.5163645
  57.3939463  25.1921324  36.8080382  58.2817419  25.1110470  35.5844677
  55.0716554  33.4382261  32.9237450  55.5354899  33.7169964  32.1342073
  54.8073352  32.5365706  32.7410541  51.9640635  32.9853743  35.8617214
  52.5341992  33.4141011  35.2234698  52.5548747  32.7036328  36.5601399
  54.0085440  29.5605414  29.7327016  54.7109483  30.0126457  30.2000942
  53.6766068  28.9189233  30.3606909  52.4565801  28.1517170  44.1078225
  51.8264462  28.8333451  44.3413622  52.3501889  28.0400252  43.1631363
  47.7510774  27.8188966  35.0344149  46.9609828  28.0746495  34.5584260
  48.2422021  28.6337304  35.1396190  49.7025519  28.1833546  31.9927626
  48.9056682  28.2952240  32.5111122  49.4751111  28.5220198  31.1268516
  55.5331187  34.7078249  39.9410140  55.5975619  35.1698656  40.7768312
  54.8242111  34.0775614  40.0692450  46.0348477  28.0719457  37.4659140
  46.2856515  28.9566467  37.7316716  46.5708025  27.8924058  36.6934232
  55.2479204  36.3746356  29.8089121  55.1124879  37.2197892  30.2373969
  55.7889017  36.5765634  29.0455055  51.7346544  22.4537936  46.4703476
  51.3413489  21.9004135  47.1451120  52.5512684  22.7648515  46.8609994
  48.7008602  33.8921794  30.3817046  49.2133122  34.6865045  30.5322611
  49.3531315  33.1948085  30.3150647  50.5103486  37.0087551  32.4639799
  50.6870115  37.9305515  32.2760783  51.3060320  36.6945970  32.8934179
  54.6514505  23.8695815  44.0623733  55.3924218  24.4702969  43.9828195
  54.8832428  23.1273453  43.5041775  49.7955843  29.0552183  42.3401962
  49.6809358  28.1537440  42.6409061  48.9400361  29.3015879  41.9886779
  56.8747681  36.9969923  43.9389463  56.4311535  36.2106301  43.6210367
  57.5364894  37.1849073  43.2733354  51.6334802  38.5265725  38.4650141
  52.1842227  38.3982788  37.6927135  50.7946278  38.8260614  38.1145034
  58.9728919  37.2772723  41.9670864  58.9547394  38.0981604  41.4751133
  59.8948839  37.1526798  42.1921005  55.4301973  34.7916852  42.8094373
  55.9630310  34.0305141  42.5793681  54.9016054  34.4990504  43.5518527
  58.5971668  19.8976918  38.3388014  58.2535937  20.7878560  38.2627125
  58.9650630  19.7078576  37.4757599  46.6657518  32.2210449  31.1576616
  47.5032740  32.6307457  30.9410324  46.8435786  31.2809891  31.1276810
  58.5621951  29.8885529  26.8460449  58.0468574  30.6590134  27.0848837
  58.2899259  29.2150666  27.4693511  56.1469062  24.7335230  31.9045688
  55.2910658  24.3442081  31.7251326  56.5596013  24.8127191  31.0445473
  57.6768208  22.2681573  36.3037248  57.1733004  22.2311709  35.4905053
  57.9698815  23.1774316  36.3633904  53.9211094  22.3520303  35.3103429
  54.7864091  22.1563112  34.9509319  53.9888603  22.1230655  36.2372786
  58.3508254  27.7612622  28.6720231  58.0458389  28.0758771  29.5230374
  59.3038696  27.8394041  28.7147564  56.7954686  33.9202845  30.3213185
  56.2676047  33.1855604  30.0086422  56.2942188  34.6977521  30.0753153
  51.5273413  24.5822511  32.6819796  52.1017165  24.3597693  31.9492989
  52.1144396  24.6511206  33.4348397  51.8543000  26.6126972  26.7015681
  51.0180313  26.9501659  27.0224956  51.7147770  26.4775952  25.7642818
  53.8296081  21.4563760  31.4094865  53.1760493  21.1412777  30.7851480
  53.7876555  20.8339500  32.1354688  54.9407286  31.7383055  23.3248158
  54.0334348  31.5072309  23.5239307  55.4378318  30.9420674  23.5122139
  57.8475365  40.4480562  26.2444844  57.1737063  40.7512259  26.8529802
  58.2341187  41.2509643  25.8950301  57.0633821  27.9445694  35.7342513
  56.1456383  28.1660641  35.5764201  57.4793965  28.0192004  34.8754220
  57.8468869  29.3437109  30.8645193  58.5940688  29.8558506  30.5552315
  58.1160459  29.0221162  31.7249587  56.1195519  31.8395650  27.8472148
  55.2106738  31.5554683  27.9444617  56.1490603  32.2594729  26.9875455
  60.2947706  26.3794225  32.8463983  59.5570463  25.8671612  33.1774225
  60.5474480  25.9394607  32.0347260  59.7947726  37.2878736  32.5513133
  60.0870700  37.8483793  31.8325499  60.3046346  37.5807297  33.3066292
  60.3959334  19.1570477  33.4405752  60.7018210  18.2967841  33.1531667
  61.1211938  19.7488098  33.2404746  46.6883690  29.5601164  31.8287350
  46.4908089  28.9670525  31.1038416  46.1330354  29.2553374  32.5463289
  54.6680413  29.4524271  33.9481943  54.7229023  28.4998107  33.8724420
  53.8571615  29.6083710  34.4323241  55.8171607  33.3804394  25.1860226
  55.3791037  32.6640253  24.7265864  56.5582048  33.6080508  24.6245318
  52.6072773  28.0701330  31.7072322  51.7940639  28.3695501  32.1137514
  53.1031767  27.6757019  32.4246804  54.7581351  38.0659087  33.6406587
  54.7157530  38.2919934  32.7115119  55.6744050  37.8322462  33.7892388
  58.2046985  28.5343155  40.5387216  58.5596373  28.7614628  41.3981682
  58.8519116  28.8661532  39.9164471  52.0986848  25.6419686  37.3233557
  52.7386227  25.5008445  36.6256520  51.2664378  25.3554199  36.9472159
  52.8747152  34.9422116  33.4368549  53.6687750  34.4472436  33.2351124
  52.1638844  34.4139979  33.0736255  57.6941996  37.3240212  37.7880917
  57.7479019  37.8931148  38.5558633  56.8256778  37.4942097  37.4234954
  49.1829915  29.0865198  29.5128302  48.2527503  29.0249653  29.7298264
  49.2787387  28.5641151  28.7164943  49.1015464  25.6120011  32.1006544
  49.3622282  26.5265344  31.9915704  49.9232637  25.1444453  32.2503156
  50.5740390  27.0257768  39.2705368  51.2463443  26.8175130  38.6218017
  49.7470176  26.8279854  38.8310600  56.4765962  23.6519709  41.2871029
  55.8293877  24.3509659  41.1935505  57.2466977  24.0855853  41.6547277
  59.8844760  33.9168561  44.3621582  59.7330266  33.6879113  43.4451666
  59.8749439  34.8739162  44.3752927  56.6530096  31.4900474  39.3467849
  57.5822156  31.6411633  39.1736816  56.2321126  31.5784495  38.4916495
  55.4518428  35.5151138  37.1166386  55.3129514  35.1469923  37.9892324
  54.6633024  36.0298778  36.9450344  56.0466580  40.6160235  28.4591923
  56.2218335  40.1448278  29.2737546  55.3599368  41.2426001  28.6873184
  57.0023643  34.8932741  34.5055224  56.6673476  34.8533511  35.4012874
  56.5027589  34.2277457  34.0325634  50.9767887  30.3000371  40.0307805
  50.8387685  29.5680610  40.6319344  51.8872810  30.2109271  39.7491993
  59.9382835  32.2388775  24.7792284  59.3212005  31.5135603  24.6825337
  59.4699323  32.9998136  24.4359358  53.6050188  30.0120330  39.5191485
  54.3149806  29.3713522  39.4778103  53.5619496  30.2633225  40.4417666
  61.5936966  36.9487684  42.4398064  61.5349512  36.2646904  41.7728647
  61.9956485  37.6906674  41.9878690  52.3179122  26.9985548  41.3387124
  51.7816479  26.5476287  41.9908721  51.7295830  27.1331457  40.5957589
  50.6127665  43.7649597  35.2331783  50.8524263  44.3968122  35.9110802
  49.7696862  43.4137637  35.5197142  51.7281381  26.4574200  23.9013588
  50.8510847  26.3363000  23.5375835  52.2039134  25.6660278  23.6492477
  43.2483521  31.2451359  33.9955095  43.9354561  30.9313089  33.4076111
  43.0931649  32.1492724  33.7222347  48.0518243  26.1341556  38.4240119
  47.9676432  25.5267225  37.6890529  47.2300949  26.6250574  38.4249615
  55.1255527  39.5728720  37.6373287  55.0525698  40.3783691  38.1492592
  54.6832920  39.7720686  36.8121308  54.9145307  38.8100490  31.1476109
  54.1312828  39.3522170  31.2414333  55.6138052  39.3274470  31.5470350
  58.2241957  24.6195119  33.7910314  58.7210656  23.8665082  33.4711384
  57.4528938  24.6559436  33.2253523  57.5854210  39.4715554  39.7931446
  58.2982183  40.1063019  39.7207347  57.0944239  39.5679420  38.9771448
  59.3071737  33.3766807  31.3648737  58.3728016  33.4968269  31.1953442
  59.4848406  32.4739273  31.1008747  54.8076925  26.7612502  33.5181999
  54.4374713  26.2083543  34.2062904  55.3036018  26.1570636  32.9656999
  52.6366124  37.2209997  40.6137017  53.3375583  37.8546480  40.7666411
  52.1661239  37.5624729  39.8532656  60.6660951  21.5864713  35.9389673
  59.7524031  21.8168940  36.1071880  61.0954053  21.6703157  36.7903705
  57.3974584  39.8114298  32.5417737  57.5796978  38.9935954  33.0045490
  58.2207570  40.0281990  32.1042627  57.7316749  38.7382483  29.8032786
  58.2604516  38.2274938  29.1902948  57.9944969  38.4225013  30.6678319
  56.4854983  30.5174416  44.9255604  55.8095620  30.4168545  45.5957979
  57.3082617  30.3613630  45.3891601  48.2333842  36.7546352  37.5468119
  48.8187279  36.0090040  37.6796023  48.0358681  37.0650309  38.4304783
  51.0872497  39.7897600  32.5630562  50.4182873  40.2743727  32.0794602
  50.9485367  40.0366820  33.4773940  42.8251497  29.3251953  36.2672562
  42.8635596  28.7915543  37.0609680  42.3191790  28.7987158  35.6483540
  55.2277766  41.8241343  39.1613220  55.7796074  41.9872965  39.9262305
  55.5683959  42.4145781  38.4893245  50.2042259  24.1716493  39.7635105
  50.2683586  25.0331324  39.3512502  50.1409379  23.5590495  39.0307463
  49.6794532  26.2439626  43.4108139  50.3066570  25.8616703  44.0245663
  48.8222450  26.0253828  43.7763831  60.0788640  36.6502601  45.0161874
  60.6228544  37.2632559  44.5216829  59.4975485  37.2082179  45.5328887
  46.4560074  28.0516055  29.3426494  46.7513515  27.1426733  29.2893547
  45.5548110  28.0303794  29.0207496  58.3646153  39.7723319  36.1476902
  58.2397293  38.9713059  35.6387848  59.0225244  40.2669512  35.6590872
  49.9854321  26.1272051  35.3254042  49.2640907  26.7408019  35.1861516
  50.7747577  26.6629816  35.2470688  60.4281062  37.5732339  37.7756452
  59.4811397  37.4537690  37.7034779  60.7763835  36.6854837  37.8582714
  52.7880635  23.4626478  41.5994694  53.3115037  23.7088774  42.3621003
  52.5692968  24.2946513  41.1797831  48.1847916  25.7330152  29.4665819
  47.8560622  24.8527531  29.2840925  48.5387287  25.6777821  30.3542208
  57.4327495  37.3685055  33.9760804  57.2852457  36.4401763  34.1568374
  58.2580988  37.3905146  33.4917880  51.2989739  26.0203122  29.8341297
  51.6385812  26.5489044  29.1119905  51.7461860  26.3583528  30.6099863
  53.9933180  24.4040173  39.2844365  53.6530000  23.6047986  39.6865045
  53.2872186  24.7041884  38.7121198  54.6449652  21.4889485  37.7371688
  55.4675721  21.0149964  37.6150578  54.8887715  22.2679969  38.2370374
  53.2857886  24.5177744  28.0334589  54.0066249  24.8958997  27.5298306
  52.6623190  25.2366621  28.1369567  57.4289009  25.2222893  28.9692922
  57.6452624  26.1047531  28.6681750  56.9483076  24.8309106  28.2398564
  52.1688231  28.1808606  35.5463666  52.0232811  28.4948909  36.4387948
  51.6913434  28.7993506  34.9934565  54.0284613  25.1711154  35.5944556
  54.0146182  24.2752247  35.2576854  54.7457042  25.1781818  36.2282842
  55.8810744  25.6048494  37.6397683  55.6228522  26.5265565  37.6382014
  55.3495785  25.2078929  38.3298147  46.6433893  30.7213950  38.4851327
  46.0987361  31.4973758  38.6171602  47.5213243  31.0684755  38.3270449
  53.4321509  24.0525534  30.8632126  53.5537421  23.1242181  31.0623013
  53.1423552  24.0664220  29.9510441  56.3012700  21.7380445  33.9998846
  56.3234397  21.8019778  33.0450825  56.7180759  20.8984953  34.1939352
  47.4299915  29.8483847  41.3781484  46.6881651  29.9966482  41.9646115
  47.1092659  30.1092112  40.5148234  55.3743577  39.3899825  41.1761874
  55.6830704  39.1448972  42.0484574  56.1719059  39.5946463  40.6880745
  55.3964189  41.5437735  33.4067251  54.9569180  41.0514113  34.1000108
  56.1472306  41.0010702  33.1659326  47.8756528  37.7349275  33.4091879
  48.7014548  37.4353047  33.0290523  47.5250580  36.9656898  33.8581668
  52.8438061  37.0875744  35.4789553  52.2218071  36.4246449  35.1791780
  53.5142928  37.1136876  34.7963200  46.0765133  35.6535602  34.3680813
  45.2397042  35.2257776  34.1864814  46.0488779  35.8468045  35.3051604
  52.9162589  25.5657532  45.0722059  52.9650744  26.4419655  44.6899828
  53.4585103  25.0234925  44.4993702  52.4051568  35.6379667  28.9548013
  52.5539689  36.3215131  28.3014686  53.2118012  35.6184757  29.4697469
  55.1461877  26.3188904  41.8268417  54.2765187  26.6122470  41.5551006
  55.3821358  26.9029349  42.5475681  50.1604201  31.6644845  29.9609082
  49.9150243  30.7607175  30.1589292  50.3300116  31.6661995  29.0188560
  57.8500911  22.5368521  39.3433838  58.3682855  23.2729548  39.0180326
  57.4956044  22.8432514  40.1780597  49.4299849  27.3973202  27.4595243
  48.7369094  27.4717557  26.8035279  49.1851601  26.6333546  27.9816760
  58.1013505  18.9568804  34.8634734  58.3815259  18.2891993  35.4895161
  58.8864112  19.1497899  34.3509398  55.9046974  38.1327797  26.4259761
  55.3320941  38.7517985  25.9730232  56.4779768  38.6827159  26.9599682
  59.9936743  24.4642021  38.7965710  59.3986675  24.7447033  38.1012199
  59.7086440  24.9535922  39.5682451  59.1244234  38.4164948  27.5568343
  60.0574907  38.3510509  27.7601218  59.0367446  39.2521214  27.0982875
  61.7532250  37.7330818  24.5172290  61.6745882  37.3990682  25.4108048
  62.5741917  38.2252586  24.5163763  56.2893772  29.4688610  23.7675813
  57.2352877  29.3394818  23.8364231  55.9108017  28.7303272  24.2445241
  62.2615657  21.1344616  33.7302705  62.0640478  20.8259704  34.6146037
  62.8715362  21.8606255  33.8600635  56.1732465  33.5206356  45.2276470
  57.0935474  33.6984955  45.4216517  56.1382048  32.5762402  45.0756169
  54.4736689  27.3938587  23.7030698  53.5668145  27.0971699  23.7793412
  54.7512670  27.0968405  22.8364984  45.3914630  28.7144950  34.1529745
  45.0717414  27.8610258  33.8604119  44.8448058  28.9293528  34.9087712
  49.1694537  31.4307391  37.8699251  49.3880547  32.3624499  37.8887285
  49.5820311  31.0715365  38.6554055  56.0898755  21.9375476  29.8574940
  55.2799484  21.5922561  30.2330186  56.7783172  21.6283020  30.4462551
  58.0189303  21.0153523  31.4799236  58.5720342  21.4348977  32.1389259
  58.2559390  20.0889271  31.5222192  54.0422403  27.0040597  47.2602000
  53.9419130  27.9534954  47.1914091  53.8243945  26.6758836  46.3878070
  53.2435474  24.2525522  23.8442677  54.1054638  24.5780420  24.1038495
  53.4285818  23.4657018  23.3315743  45.2602890  32.3347861  36.1222866
  44.5666361  31.9201814  35.6092821  46.0075881  32.3768398  35.5256285
  61.3968111  23.1254048  30.9877900  60.8166780  23.7838852  30.6055953
  61.1304043  22.3031393  30.5765318  59.8471677  22.5259106  33.1899221
  60.3471455  22.6375641  32.3813540  60.4907285  22.2220159  33.8300029
  53.9053673  30.4337736  46.0767062  53.4220754  31.2338096  46.2830951
  53.9914612  30.4445680  45.1234506  47.1739632  32.2666115  33.9988881
  47.1510321  32.3653803  33.0470764  47.4840269  33.1131266  34.3206047
  49.8327010  34.3242270  38.1135496  50.7870264  34.2926213  38.0465427
  49.6339534  33.8632894  38.9285721  50.4226392  32.8943386  40.6806293
  51.2419281  33.3887465  40.7041130  50.6963200  31.9775354  40.6523861
  60.1792989  25.2854139  30.0434249  59.2918844  25.5703789  29.8254443
  60.5946978  25.1247902  29.1961526  63.5307525  25.3100660  33.7588588
  64.3067915  25.7997112  34.0313205  62.8055659  25.7358714  34.2160457
  65.9680083  26.0228279  34.8162529  66.5624574  25.7824015  34.1055837
  66.0406667  25.3035409  35.4436065  48.1877239  39.8661890  35.1305693
  48.0531707  39.1062291  34.5643691  47.7709301  40.5902790  34.6634482
  59.3236202  35.0498813  24.1382269  60.0272052  35.2548816  24.7539924
  58.5998851  35.6175575  24.4031352  60.1534012  30.8008675  30.2584539
  60.0969214  31.2577226  29.4192171  60.7062355  30.0399359  30.0807382
  63.9638818  26.5898406  31.0834658  63.7075752  26.1895042  31.9142866
  63.3391686  27.3042200  30.9584798  51.3446365  40.7631207  35.3424136
  51.2278749  41.7076639  35.2402826  50.5238811  40.4604768  35.7309935
  61.2322899  35.4881343  26.1880729  62.0668503  35.0562541  26.0058204
  61.0707242  35.3163356  27.1157623  60.8868792  31.9913456  27.5537068
  60.8317595  31.8257727  26.6125512  60.2614847  32.6989489  27.7099258
  45.6761307  27.2281520  41.3798490  46.3220170  26.7180474  41.8685715
  45.4678458  27.9650202  41.9541916  58.2014699  34.2962368  46.8790631
  59.0705858  34.4703020  46.5177266  57.7221450  35.1156785  46.7566360
  54.1964917  21.4921565  27.1322386  54.1843587  22.4363405  27.2890657
  55.0888339  21.3091710  26.8381848  52.3700879  41.4159469  38.5580064
  53.2728126  41.4483079  38.8746559  52.1438249  40.4859920  38.5726400
  54.1254481  40.1690455  35.2190143  53.1750112  40.1692317  35.1054515
  54.4286967  39.4223190  34.7026178  58.0117037  18.0864341  31.3868323
  57.2449432  17.5322828  31.5325006  58.4227742  18.1586210  32.2482475
  50.0158798  24.3749137  45.4773504  50.8790259  24.0185942  45.6876829
  49.4424208  24.0363032  46.1648909  68.1083255  51.4784866  27.5208786
  67.4571235  52.0638946  27.1342800  68.9027618  52.0091061  27.5803824
  62.0338882  48.5674003  27.9195920  62.8069758  48.0202990  27.7808796
  62.3864281  49.4318252  28.1310382  64.3705160  44.7266669  25.5514370
  64.6230681  44.2048190  24.7897833  63.4329719  44.5632815  25.6541054
  66.0738477  41.1194822  26.4546783  66.2412879  41.9875058  26.8217254
  65.8835646  41.2822104  25.5308072  66.0527698  43.5752479  27.4393450
  65.9327323  44.0209530  28.2778930  65.3580286  43.9237797  26.8806988
  63.8134590  56.3456121  31.0883581  63.7358620  57.2963946  31.1672062
  63.2096233  56.0001994  31.7458507  58.5904528  43.1480884  35.0344149
  57.8003582  43.4038413  34.5584260  59.0815775  43.9629222  35.1396190
  60.5419273  43.5125463  31.9927626  59.7450437  43.6244158  32.5111122
  60.3144866  43.8512116  31.1268516  56.8742231  43.4011375  37.4659140
  57.1250270  44.2858385  37.7316716  57.4101779  43.2215976  36.6934232
  66.0872959  51.7038274  29.8089121  65.9518634  52.5489810  30.2373969
  66.6282771  51.9057552  29.0455055  59.5402356  49.2213712  30.3817046
  60.0526877  50.0156962  30.5322611  60.1925069  48.5240003  30.3150647
  57.5051273  47.5502366  31.1576616  58.3426495  47.9599375  30.9410324
  57.6829541  46.6101809  31.1276810  62.6936755  41.9418890  26.7015681
  61.8574067  42.2793576  27.0224956  62.5541524  41.8067870  25.7642818
  65.7801040  47.0674973  23.3248158  64.8728102  46.8364226  23.5239307
  66.2772072  46.2712592  23.5122139  68.6869119  55.7772480  26.2444844
  68.0130818  56.0804177  26.8529802  69.0734941  56.5801560  25.8950301
  57.5277444  44.8893082  31.8287350  57.3301844  44.2962442  31.1038416
  56.9724108  44.5845292  32.5463289  66.6565362  48.7096311  25.1860226
  66.2184791  47.9932170  24.7265864  67.3975802  48.9372426  24.6245318
  63.4466528  43.3993248  31.7072322  62.6334393  43.6987419  32.1137514
  63.9425522  43.0048937  32.4246804  60.0223670  44.4157116  29.5128302
  59.0921258  44.3541571  29.7298264  60.1181142  43.8933068  28.7164943
  59.9409219  40.9411928  32.1006544  60.2016036  41.8557262  31.9915704
  60.7626391  40.4736371  32.2503156  66.8860334  55.9452152  28.4591923
  67.0612090  55.4740196  29.2737546  66.1993122  56.5717919  28.6873184
  61.4521420  59.0941515  35.2331783  61.6918018  59.7260039  35.9110802
  60.6090616  58.7429555  35.5197142  62.5675135  41.7866117  23.9013588
  61.6904601  41.6654918  23.5375835  63.0432888  40.9952196  23.6492477
  54.0877275  46.5743277  33.9955095  54.7748315  46.2605007  33.4076111
  53.9325404  47.4784642  33.7222347  58.8911997  41.4633474  38.4240119
  58.8070186  40.8559143  37.6890529  58.0694704  41.9542492  38.4249615
  65.7539061  54.1392408  31.1476109  64.9706583  54.6814088  31.2414333
  66.4531806  54.6566387  31.5470350  61.9266252  55.1189518  32.5630562
  61.2576627  55.6035645  32.0794602  61.7879121  55.3658738  33.4773940
  53.6645251  44.6543870  36.2672562  53.7029351  44.1207461  37.0609680
  53.1585544  44.1279076  35.6483540  66.0671520  57.1533261  39.1613220
  66.6189828  57.3164883  39.9262305  66.4077714  57.7437699  38.4893245
  61.0436014  39.5008411  39.7635105  61.1077340  40.3623242  39.3512502
  60.9803134  38.8882412  39.0307463  57.2953829  43.3807973  29.3426494
  57.5907270  42.4718651  29.2893547  56.3941865  43.3595712  29.0207496
  60.8248076  41.4563969  35.3254042  60.1034662  42.0699937  35.1861516
  61.6141332  41.9921734  35.2470688  59.0241670  41.0622070  29.4665819
  58.6954377  40.1819449  29.2840925  59.3781041  41.0069739  30.3542208
  62.1383494  41.3495040  29.8341297  62.4779566  41.8780961  29.1119905
  62.5855614  41.6875446  30.6099863  64.1251641  39.8469662  28.0334589
  64.8460003  40.2250914  27.5298306  63.5016945  40.5658538  28.1369567
  66.2137332  54.7191743  41.1761874  66.5224458  54.4740889  42.0484574
  67.0112814  54.9238381  40.6880745  66.2357944  56.8729652  33.4067251
  65.7962934  56.3806031  34.1000108  66.9866061  56.3302620  33.1659326
  58.7150283  53.0641193  33.4091879  59.5408303  52.7644965  33.0290523
  58.3644335  52.2948816  33.8581668  56.9158888  50.9827520  34.3680813
  56.0790796  50.5549694  34.1864814  56.8882533  51.1759963  35.3051604
  63.2445323  50.9671585  28.9548013  63.3933443  51.6507049  28.3014686
  64.0511766  50.9476675  29.4697469  60.9997956  46.9936762  29.9609082
  60.7543998  46.0899092  30.1589292  61.1693870  46.9953913  29.0188560
  60.2693603  42.7265120  27.4595243  59.5762848  42.8009475  26.8035279
  60.0245355  41.9625464  27.9816760  66.7440728  53.4619715  26.4259761
  66.1714695  54.0809902  25.9730232  67.3173522  54.0119077  26.9599682
  72.5926005  53.0622736  24.5172290  72.5139636  52.7282599  25.4108048
  73.4135672  53.5544504  24.5163763  67.1287527  44.7980528  23.7675813
  68.0746632  44.6686736  23.8364231  66.7501772  44.0595190  24.2445241
  65.3130444  42.7230504  23.7030698  64.4061899  42.4263617  23.7793412
  65.5906425  42.4260322  22.8364984  56.2308384  44.0436868  34.1529745
  55.9111169  43.1902176  33.8604119  55.6841813  44.2585446  34.9087712
  64.0829229  39.5817440  23.8442677  64.9448393  39.9072338  24.1038495
  64.2679573  38.7948935  23.3315743  59.0270994  55.1953807  35.1305693
  58.8925461  54.4354208  34.5643691  58.6103056  55.9194707  34.6634482
  70.1629957  50.3790731  24.1382269  70.8665807  50.5840734  24.7539924
  69.4392605  50.9467493  24.4031352  62.1840119  56.0923125  35.3424136
  62.0672504  57.0368557  35.2402826  61.3632566  55.7896686  35.7309935
  72.0716654  50.8173260  26.1880729  72.9062258  50.3854459  26.0058204
  71.9100997  50.6455274  27.1157623  56.5155061  42.5573438  41.3798490
  57.1613925  42.0472392  41.8685715  56.3072212  43.2942120  41.9541916
  65.0358672  36.8213483  27.1322386  65.0237341  37.7655322  27.2890657
  65.9282093  36.6383628  26.8381848  63.2094634  56.7451386  38.5580064
  64.1121880  56.7774997  38.8746559  62.9832004  55.8151837  38.5726400
  64.9648236  55.4982373  35.2190143  64.0143867  55.4984235  35.1054515
  65.2680722  54.7515108  34.7026178  70.9141883  64.6357007  35.0478542
  71.7063175  64.2947832  34.6324841  71.1538533  64.7451982  35.9680695
  72.8732637  63.8965921  27.9195920  73.6463513  63.3494908  27.7808796
  73.2258036  64.7610170  28.1310382  75.2098915  60.0558587  25.5514370
  75.4624435  59.5340108  24.7897833  74.2723474  59.8924732  25.6541054
  74.9295203  61.9586693  27.7538745  74.8131462  61.2831596  28.4219830
  75.0397463  61.4719067  26.9370898  70.3796111  64.5505630  30.3817046
  70.8920631  65.3448880  30.5322611  71.0318823  63.8531920  30.3150647
  72.1890995  67.6671386  32.4639799  72.3657624  68.5889351  32.2760783
  72.9847829  67.3529805  32.8934179  68.3445027  62.8794284  31.1576616
  69.1820249  63.2891292  30.9410324  68.5223295  61.9393726  31.1276810
  80.2409460  60.5469365  26.8460449  79.7256083  61.3173969  27.0848837
  79.9686768  59.8734501  27.4693511  73.5330509  57.2710807  26.7015681
  72.6967822  57.6085494  27.0224956  73.3935279  57.1359787  25.7642818
  76.6194795  62.3966890  23.3248158  75.7121856  62.1656144  23.5239307
  77.1165827  61.6004510  23.5122139  79.5262874  71.1064398  26.2444844
  78.8524572  71.4096094  26.8529802  79.9128696  71.9093478  25.8950301
  77.7983028  62.4979485  27.8472148  76.8894247  62.2138518  27.9444617
  77.8278112  62.9178564  26.9875455  68.3671199  60.2184999  31.8287350
  68.1695598  59.6254360  31.1038416  67.8117863  59.9137210  32.5463289
  77.4959116  64.0388229  25.1860226  77.0578546  63.3224088  24.7265864
  78.2369557  64.2664344  24.6245318  74.5534661  65.6005952  33.4368549
  75.3475259  65.1056272  33.2351124  73.8426353  65.0723815  33.0736255
  70.8617424  59.7449033  29.5128302  69.9315012  59.6833489  29.7298264
  70.9574896  59.2224986  28.7164943  72.2915174  74.4233433  35.2331783
  72.5311772  75.0551957  35.9110802  71.4484371  74.0721473  35.5197142
  73.4068890  57.1158035  23.9013588  72.5298356  56.9946836  23.5375835
  73.8826643  56.3244113  23.6492477  64.9271030  61.9035195  33.9955095
  65.6142069  61.5896925  33.4076111  64.7719158  62.8076559  33.7222347
  69.9121351  67.4130188  37.5468119  70.4974788  66.6673876  37.6796023
  69.7146189  67.7234145  38.4304783  64.5039006  59.9835788  36.2672562
  64.5423105  59.4499379  37.0609680  63.9979299  59.4570994  35.6483540
  68.1347583  58.7099890  29.3426494  68.4301024  57.8010569  29.2893547
  67.2335619  58.6887630  29.0207496  83.4919614  68.6849881  27.5184667
  84.1870519  69.3056574  27.7371982  83.8342764  67.8345232  27.7937045
  69.5544037  68.3933111  33.4091879  70.3802057  68.0936883  33.0290523
  69.2038089  67.6240733  33.8581668  67.7552642  66.3119437  34.3680813
  66.9184551  65.8841612  34.1864814  67.7276288  66.5051881  35.3051604
  74.0839077  66.2963502  28.9548013  74.2327198  66.9798967  28.3014686
  74.8905521  66.2768592  29.4697469  71.8391710  62.3228680  29.9609082
  71.5937752  61.4191010  30.1589292  72.0087625  62.3245830  29.0188560
  71.1087358  58.0557038  27.4595243  70.4156603  58.1301393  26.8035279
  70.8639110  57.2917381  27.9816760  77.5834483  68.7911633  26.4259761
  77.0108450  69.4101820  25.9730232  78.1567276  69.3410995  26.9599682
  83.4319759  68.3914653  24.5172290  83.3533391  68.0574517  25.4108048
  84.2529426  68.8836421  24.5163763  77.9681281  60.1272446  23.7675813
  78.9140386  59.9978654  23.8364231  77.5895526  59.3887107  24.2445241
  76.1524198  58.0522422  23.7030698  75.2455654  57.7555535  23.7793412
  76.4300179  57.7552240  22.8364984  74.9222983  54.9109357  23.8442677
  75.7842147  55.2364255  24.1038495  75.1073327  54.1240853  23.3315743
  66.9390399  62.9931697  36.1222866  66.2453870  62.5785650  35.6092821
  67.6863390  63.0352233  35.5256285  68.8527141  62.9249951  33.9988881
  68.8297829  63.0237638  33.0470764  69.1627778  63.7715101  34.3206047
  69.8664748  70.5245725  35.1305693  69.7319216  69.7646126  34.5643691
  69.4496810  71.2486625  34.6634482  81.0023711  65.7082649  24.1382269
  81.7059561  65.9132651  24.7539924  80.2786360  66.2759411  24.4031352
  82.9110408  66.1465178  26.1880729  83.7456012  65.7146376  26.0058204
  82.7494751  65.9747192  27.1157623  91.5394684  76.6634829  36.2835905
  92.1773093  76.5441576  35.5799246  91.4215526  77.6115673  36.3423858
  88.3484390  76.6162257  36.2197430  88.0102901  76.5003322  35.3317965
  89.2174158  76.2153422  36.1998436  84.2071206  78.4697734  32.2094321
  83.6436071  78.3787670  31.4410609  84.0923601  77.6497638  32.6896814
  88.8304173  77.7697109  42.1783636  88.8192814  77.3749907  41.3064139
  88.9924812  77.0363181  42.7717407  81.7535637  79.9648925  35.0478542
  82.5456929  79.6239750  34.6324841  81.9932288  80.0743900  35.9680695
  89.7870764  82.1368701  27.5208786  89.1358744  82.7222782  27.1342800
  90.5815127  82.6674896  27.5803824  83.7126391  79.2257838  27.9195920
  84.4857267  78.6786825  27.7808796  84.0651790  80.0902088  28.1310382
  85.5511434  80.5534221  41.1262820  85.2601300  81.4579851  41.0109486
  86.1868418  80.5950748  41.8406889  86.4767641  77.9311069  37.7164179
  87.0731213  77.7067092  37.0021142  86.5342612  77.1895815  38.3189627
  86.0492669  75.3850504  25.5514370  86.3018190  74.8632026  24.7897833
  85.1117228  75.2216650  25.6541054  91.0935952  74.3886283  33.3589114
  91.8799041  73.9705706  33.0079531  91.3574656  75.2932375  33.5270762
  91.2646029  79.8259133  28.0577770  90.6291862  79.8993760  28.7698675
  90.9343436  80.4152732  27.3796850  96.4944379  74.3261516  34.2622092
  97.2269551  73.7560733  34.4959922  95.7383735  73.9383117  34.7028598
  85.7688958  77.2878610  27.7538745  85.6525216  76.6123514  28.4219830
  85.8791218  76.8010984  26.9370898  88.1120499  76.7488758  31.4585435
  87.7478706  76.2219379  32.1698356  88.9687615  76.3587227  31.2851920
  87.7525986  71.7778657  26.4546783  87.9200388  72.6458894  26.8217254
  87.5623155  71.9405939  25.5308072  90.5101319  80.2395636  38.1212613
  90.2102042  81.1420675  38.0128421  90.1652379  79.9727819  38.9733766
  83.9613801  76.6909433  34.1549318  83.0364297  76.5585647  34.3627010
  84.2098214  77.4703652  34.6519260  87.7315207  74.2336315  27.4393450
  87.6114832  74.6793366  28.2778930  87.0367795  74.5821632  26.8806988
  81.3222612  76.3342707  34.9893107  81.4514993  76.5877185  35.9032519
  80.6420063  76.9270415  34.6697762  85.4922099  87.0039957  31.0883581
  85.4146129  87.9547782  31.1672062  84.8883742  86.6585829  31.7458507
  93.4300273  74.7057788  28.2673784  94.3418129  74.9385175  28.0921481
  92.9209920  75.2894832  27.7048862  86.2385701  76.9853275  43.3062915
  86.9800385  77.5238319  43.0297739  85.5322686  77.6119564  43.4634467
  91.7141041  79.1282416  41.9035076  92.1224397  78.6864826  41.1589709
  90.9918302  78.5535043  42.1569269  92.0369855  79.6883606  35.6587365
  91.4078718  79.8529321  34.9563433  91.6495517  80.1025216  36.4298329
  95.9159087  80.6238044  33.0131729  95.2310125  81.0036946  32.4628762
  96.0002936  81.2333371  33.7463677  93.1710019  78.2698003  39.6127073
  93.3826914  78.9129763  38.9361454  93.1239767  77.4360320  39.1449003
  87.5897817  79.4258014  32.9237450  88.0536163  79.7045717  32.1342073
  87.3254615  78.5241459  32.7410541  84.4821898  78.9729496  35.8617214
  85.0523255  79.4016764  35.2234698  85.0730010  78.6912081  36.5601399
  86.5266703  75.5481167  29.7327016  87.2290746  76.0002211  30.2000942
  86.1947332  74.9064986  30.3606909  94.2855847  81.1469959  37.7849430
  95.1073290  80.7450146  37.5032112  94.2818250  81.0438193  38.7365546
  82.2206782  74.1709299  31.9927626  81.4237946  74.2827993  32.5111122
  81.9932375  74.5095951  31.1268516  88.0512450  80.6954002  39.9410140
  88.1156883  81.1574409  40.7768312  87.3423374  80.0651367  40.0692450
 102.3761840  77.4908707  34.1334401 101.6225548  76.9216105  33.9778406
 102.5109381  77.4571372  35.0805036  87.7660468  82.3622109  29.8089121
  87.6306143  83.2073645  30.2373969  88.3070280  82.5641387  29.0455055
  81.2189865  79.8797547  30.3817046  81.7314386  80.6740798  30.5322611
  81.8712578  79.1823838  30.3150647  83.0284750  82.9963304  32.4639799
  83.2051378  83.9181268  32.2760783  83.8241583  82.6821723  32.8934179
  89.3928944  82.9845676  43.9389463  88.9492798  82.1982055  43.6210367
  90.0546158  83.1724826  43.2733354  84.1516065  84.5141478  38.4650141
  84.7023490  84.3858541  37.6927135  83.3127541  84.8136367  38.1145034
  91.4910182  83.2648476  41.9670864  91.4728658  84.0857357  41.4751133
  92.4130102  83.1402551  42.1921005  87.9483236  80.7792605  42.8094373
  88.4811573  80.0180894  42.5793681  87.4197317  80.4866257  43.5518527
  79.1838782  78.2086202  31.1576616  80.0214004  78.6183210  30.9410324
  79.3617050  77.2685644  31.1276810  91.0803214  75.8761282  26.8460449
  90.5649837  76.6465887  27.0848837  90.8080522  75.2026419  27.4693511
  96.0537488  78.6293637  28.7813623  95.2766931  78.2904797  28.3368785
  96.7328969  78.6346260  28.1068588  90.8689517  73.7488375  28.6720231
  90.5639653  74.0634524  29.5230374  91.8219959  73.8269794  28.7147564
  89.3135949  79.9078598  30.3213185  88.7857311  79.1731357  30.0086422
  88.8123452  80.6853274  30.0753153  94.2928795  78.1027618  35.4380231
  93.6352470  78.7926880  35.5260359  95.0969194  78.4924050  35.7814217
  93.1034254  76.4571991  33.4884173  93.6166136  77.0901983  33.9905882
  93.7535478  75.8573187  33.1227533  84.3724264  72.6002725  26.7015681
  83.5361576  72.9377412  27.0224956  84.2329033  72.4651705  25.7642818
  87.4588549  77.7258808  23.3248158  86.5515611  77.4948062  23.5239307
  87.9559581  76.9296427  23.5122139  90.3656628  86.4356315  26.2444844
  89.6918327  86.7388012  26.8529802  90.7522450  87.2385396  25.8950301
  89.5815085  73.9321447  35.7342513  88.6637646  74.1536394  35.5764201
  89.9975228  74.0067757  34.8754220  90.3650133  75.3312862  30.8645193
  91.1121951  75.8434259  30.5552315  90.6341722  75.0096915  31.7249587
  88.6376783  77.8271403  27.8472148  87.7288002  77.5430436  27.9444617
  88.6671866  78.2470482  26.9875455  93.8696050  81.4377992  31.6163315
  93.4158377  80.5968902  31.6728506  93.2390017  82.0739391  31.9538095
  92.3128989  83.2754489  32.5513133  92.6051964  83.8359546  31.8325499
  92.8227610  83.5683050  33.3066292  79.2064953  75.5476917  31.8287350
  79.0089353  74.9546278  31.1038416  78.6511617  75.2429127  32.5463289
  87.1861677  75.4400024  33.9481943  87.2410287  74.4873860  33.8724420
  86.3752879  75.5959463  34.4323241  88.3352870  79.3680147  25.1860226
  87.8972300  78.6516006  24.7265864  89.0763311  79.5956261  24.6245318
  85.1254037  74.0577083  31.7072322  84.3121902  74.3571254  32.1137514
  85.6213031  73.6632772  32.4246804  87.2762615  84.0534840  33.6406587
  87.2338793  84.2795687  32.7115119  88.1925313  83.8198215  33.7892388
  96.4525985  77.6437344  31.2436545  96.3143884  77.8338940  30.3157734
  96.0962204  78.4056727  31.7004596  96.4795365  79.7113871  36.2547816
  96.9131872  79.6189160  37.1030870  97.1926946  79.6871371  35.6167832
  85.3928415  80.9297869  33.4368549  86.1869014  80.4348189  33.2351124
  84.6820108  80.4015732  33.0736255  90.2123260  83.3115965  37.7880917
  90.2660282  83.8806901  38.5558633  89.3438041  83.4817850  37.4234954
  81.7011179  75.0740951  29.5128302  80.7708767  75.0125407  29.7298264
  81.7968651  74.5516904  28.7164943  97.3410914  79.7537571  38.7880702
  97.5346805  80.6583382  39.0339977  97.2411533  79.2944990  39.6219287
  92.4026023  79.9044314  44.3621582  92.2511530  79.6754866  43.4451666
  92.3930703  80.8614916  44.3752927  89.1711360  77.4776227  39.3467849
  90.1003420  77.6287386  39.1736816  88.7502390  77.5660248  38.4916495
  87.9699691  81.5026891  37.1166386  87.8310777  81.1345676  37.9892324
  87.1814288  82.0174531  36.9450344  88.5647843  86.6035988  28.4591923
  88.7399599  86.1324031  29.2737546  87.8780631  87.2301754  28.6873184
  89.5204906  80.8808494  34.5055224  89.1854739  80.8409264  35.4012874
  89.0208852  80.2153210  34.0325634  83.4949150  76.2876124  40.0307805
  83.3568948  75.5556363  40.6319344  84.4054074  76.1985024  39.7491993
  92.4564098  78.2264528  24.7792284  91.8393269  77.5011356  24.6825337
  91.9880587  78.9873889  24.4359358  86.1231451  75.9996083  39.5191485
  86.8331070  75.3589276  39.4778103  86.0800759  76.2508978  40.4417666
  94.1118230  82.9363437  42.4398064  94.0530776  82.2522657  41.7728647
  94.5137748  83.6782427  41.9878690  83.1308929  89.7525351  35.2331783
  83.3705527  90.3843875  35.9110802  82.2878125  89.4013391  35.5197142
  84.2462644  72.4449953  23.9013588  83.3692110  72.3238753  23.5375835
  84.7220397  71.6536031  23.6492477  94.1135637  80.9003021  40.6712044
  93.2262416  80.5628942  40.7938443  94.6834188  80.1686052  40.9080809
  75.7664784  77.2327112  33.9955095  76.4535824  76.9188842  33.4076111
  75.6112913  78.1368477  33.7222347  87.6436790  85.5604473  37.6373287
  87.5706962  86.3659444  38.1492592  87.2014184  85.7596439  36.8121308
  87.4326570  84.7976243  31.1476109  86.6494092  85.3397923  31.2414333
  88.1319315  85.3150223  31.5470350  98.5952978  76.3111238  35.4328606
  98.5842854  77.1935953  35.0622539  97.7270357  75.9582789  35.2383143
  90.1035474  85.4591307  39.7931446  90.8163446  86.0938772  39.7207347
  89.6125503  85.5555173  38.9771448  91.8253001  79.3642560  31.3648737
  90.8909280  79.4844022  31.1953442  92.0029669  78.4615026  31.1008747
  87.3258189  72.7488255  33.5181999  86.9555976  72.1959296  34.2062904
  87.8217281  72.1446389  32.9656999  95.2125552  75.2059879  31.8998772
  95.6786004  76.0387871  31.8259074  95.6633053  74.7404861  32.6044030
  85.1547387  83.2085750  40.6137017  85.8556847  83.8422233  40.7666411
  84.6842502  83.5500482  39.8532656  93.2801783  81.5503700  28.8984924
  93.5561627  81.4360295  29.8078798  92.4106282  81.1521185  28.8597097
  89.9155847  85.7990051  32.5417737  90.0978242  84.9811707  33.0045490
  90.7388833  86.0157743  32.1042627  90.2498013  84.7258236  29.8032786
  90.7785779  84.2150691  29.1902948  90.5126232  84.4100766  30.6678319
  89.0036246  76.5050169  44.9255604  88.3276883  76.4044298  45.5957979
  89.8263880  76.3489383  45.3891601  80.7515106  82.7422105  37.5468119
  81.3368542  81.9965793  37.6796023  80.5539944  83.0526062  38.4304783
  83.6053761  85.7773353  32.5630562  82.9364136  86.2619481  32.0794602
  83.4666630  86.0242573  33.4773940  75.3432760  75.3127706  36.2672562
  75.3816860  74.7791296  37.0609680  74.8373053  74.7862911  35.6483540
  87.7459029  87.8117096  39.1613220  88.2977337  87.9748718  39.9262305
  88.0865223  88.4021534  38.4893245  92.5969904  82.6378354  45.0161874
  93.1409808  83.2508312  44.5216829  92.0156749  83.1957932  45.5328887
  78.9741338  74.0391808  29.3426494  79.2694779  73.1302486  29.2893547
  78.0729374  74.0179547  29.0207496  90.8827417  85.7599072  36.1476902
  90.7578556  84.9588812  35.6387848  91.5406508  86.2545265  35.6590872
  92.9462325  83.5608092  37.7756452  91.9992661  83.4413443  37.7034779
  93.2945098  82.6730590  37.8582714  80.7029179  71.7205906  29.4665819
  80.3741886  70.8403284  29.2840925  81.0568550  71.6653574  30.3542208
  89.9508758  83.3560808  33.9760804  89.8033721  82.4277516  34.1568374
  90.7762252  83.3780899  33.4917880  93.5542880  84.1789367  35.0625677
  94.4789428  83.9732228  34.9250128  93.3858184  83.9305768  35.9715019
  85.8039150  70.5053497  28.0334589  86.5247512  70.8834750  27.5298306
  85.1804454  71.2242374  28.1369567  84.6869494  74.1684359  35.5463666
  84.5414075  74.4824662  36.4387948  84.2094698  74.7869259  34.9934565
  93.3438196  84.6975034  30.4187769  93.5175074  84.1321457  29.6661621
  93.8367088  85.4975929  30.2367259  79.1615156  76.7089703  38.4851327
  78.6168624  77.4849511  38.6171602  80.0394506  77.0560508  38.3270449
  99.1977588  77.4611457  32.0378068  99.6408734  76.7118783  31.6397192
  98.3204098  77.4521594  31.6551800  94.3313369  84.0141799  27.5184667
  95.0264273  84.6348491  27.7371982  94.6736519  83.1637150  27.7937045
  96.2304792  81.4641504  29.0471998  96.7556116  81.8028777  28.3221318
  96.1427145  80.5288520  28.8635132  87.8924841  85.3775578  41.1761874
  88.2011967  85.1324725  42.0484574  88.6900323  85.5822216  40.6880745
  87.9145453  87.5313488  33.4067251  87.4750443  87.0389866  34.1000108
  88.6653570  86.9886455  33.1659326  80.3937792  83.7225028  33.4091879
  81.2195812  83.4228800  33.0290523  80.0431844  82.9532651  33.8581668
  85.3619325  83.0751497  35.4789553  84.7399334  82.4122202  35.1791780
  86.0324192  83.1012629  34.7963200  78.5946397  81.6411355  34.3680813
  77.7578305  81.2133529  34.1864814  78.5670042  81.8343798  35.3051604
  95.9198698  82.0974408  44.3523196  95.1294242  82.0798547  43.8127695
  95.6832053  82.6362702  45.1072232  96.0396573  78.9466874  41.6655924
  96.0894578  78.7816882  42.6071447  95.9310496  78.0794133  41.2753805
  84.9232832  81.6255420  28.9548013  85.0720952  82.3090884  28.3014686
  85.7299275  81.6060510  29.4697469  97.5414770  81.3663816  41.9097946
  97.2499578  81.7293796  42.7461407  96.9286901  80.6530824  41.7311278
  98.7410452  78.9316696  34.4300516  99.5757344  79.3706500  34.5938076
  98.8769581  78.4555349  33.6108762  95.7901958  76.4896430  40.3778004
  96.2656080  76.6824077  39.5696855  94.8667524  76.5455616  40.1321387
  82.6785465  77.6520598  29.9609082  82.4331507  76.7482928  30.1589292
  82.8481379  77.6537748  29.0188560  81.9481112  73.3848955  27.4595243
  81.2550357  73.4593310  26.8035279  81.7032864  72.6209299  27.9816760
  88.4228237  84.1203550  26.4259761  87.8502204  84.7393738  25.9730232
  88.9961031  84.6702912  26.9599682  91.6425497  84.4040701  27.5568343
  92.5756170  84.3386262  27.7601218  91.5548710  85.2396967  27.0982875
  94.2713514  83.7206571  24.5172290  94.1927145  83.3866435  25.4108048
  95.0923181  84.2128339  24.5163763  96.9691705  76.5868310  37.7248609
  96.9368025  75.6484311  37.9108293  97.5792329  76.6652347  36.9914434
  88.8075036  75.4564363  23.7675813  89.7534141  75.3270571  23.8364231
  88.4289281  74.7179025  24.2445241 102.7868255  77.6484317  36.8654646
 103.5171643  77.3869605  37.4262349 102.1775200  76.9113039  36.9056714
 100.8683552  75.7892180  37.4629097 100.1416715  75.6548145  36.8545589
 100.4530839  76.0969008  38.2685815  88.6913728  79.5082109  45.2276470
  89.6116738  79.6860708  45.4216517  88.6563311  78.5638155  45.0756169
  86.9917953  73.3814340  23.7030698  86.0849408  73.0847452  23.7793412
  87.2693934  73.0844158  22.8364984  77.9095893  74.7020703  34.1529745
  77.5898678  73.8486011  33.8604119  77.3629322  74.9169281  34.9087712
  81.6875801  77.4183144  37.8699251  81.9061811  78.3500252  37.8887285
  82.1001575  77.0591118  38.6554055  85.7616738  70.2401275  23.8442677
  86.6235902  70.5656173  24.1038495  85.9467082  69.4532771  23.3315743
  77.7784153  78.3223615  36.1222866  77.0847625  77.9077567  35.6092821
  78.5257144  78.3644151  35.5256285  79.6920896  78.2541868  33.9988881
  79.6691584  78.3529556  33.0470764  80.0021532  79.1007019  34.3206047
  82.3508274  80.3118023  38.1135496  83.3051527  80.2801966  38.0465427
  82.1520797  79.8508647  38.9285721  82.9407656  78.8819139  40.6806293
  83.7600545  79.3763218  40.7041130  83.2144464  77.9651108  40.6523861
  96.0488788  71.2976413  33.7588588  96.8249178  71.7872865  34.0313205
  95.3236922  71.7234467  34.2160457  98.4861347  72.0104032  34.8162529
  99.0805838  71.7699768  34.1055837  98.5587931  71.2911162  35.4436065
  80.7058503  85.8537643  35.1305693  80.5712970  85.0938044  34.5643691
  80.2890565  86.5778543  34.6634482  91.8417466  81.0374566  24.1382269
  92.5453316  81.2424569  24.7539924  91.1180114  81.6051328  24.4031352
  92.6715276  76.7884428  30.2584539  92.6150477  77.2452979  29.4192171
  93.2243618  76.0275112  30.0807382  96.4820082  72.5774159  31.0834658
  96.2257016  72.1770795  31.9142866  95.8572950  73.2917953  30.9584798
 100.7932420  75.3170233  33.5905950 100.2331978  75.3863422  34.3637512
 100.1875923  75.1411217  32.8705446  83.8627628  86.7506960  35.3424136
  83.7460013  87.6952392  35.2402826  83.0420075  86.4480521  35.7309935
  93.7504163  81.4757096  26.1880729  94.5849767  81.0438294  26.0058204
  93.5888506  81.3039109  27.1157623  93.4050055  77.9789209  27.5537068
  93.3498859  77.8133480  26.6125512  92.7796110  78.6865242  27.7099258
  90.7195962  80.2838121  46.8790631  91.5887122  80.4578773  46.5177266
  90.2402714  81.1032538  46.7566360  86.7146181  67.4797318  27.1322386
  86.7024850  68.4239158  27.2890657  87.6069602  67.2967463  26.8381848
  84.8882143  87.4035222  38.5580064  85.7909389  87.4358832  38.8746559
  84.6619513  86.4735673  38.5726400  86.6435745  86.1566208  35.2190143
  85.6931376  86.1568070  35.1054515  86.9468231  85.4098943  34.7026178
 102.3788438  91.9926747  36.2835905 103.0166848  91.8733494  35.5799246
 102.2609281  92.9407591  36.3423858  99.1878144  91.9454175  36.2197430
  98.8496656  91.8295239  35.3317965 100.0567913  91.5445340  36.1998436
  95.0464960  93.7989651  32.2094321  94.4829825  93.7079588  31.4410609
  94.9317355  92.9789556  32.6896814  99.6697927  93.0989027  42.1783636
  99.6586568  92.7041825  41.3064139  99.8318567  92.3655099  42.7717407
  92.5929392  95.2940843  35.0478542  93.3850684  94.9531667  34.6324841
  92.8326042  95.4035818  35.9680695 100.6264519  97.4660619  27.5208786
  99.9752498  98.0514699  27.1342800 101.4208882  97.9966814  27.5803824
  94.5520146  94.5549756  27.9195920  95.3251022  94.0078743  27.7808796
  94.9045545  95.4194005  28.1310382  96.3905188  95.8826138  41.1262820
  96.0995054  96.7871769  41.0109486  97.0262173  95.9242666  41.8406889
  97.3161395  93.2602987  37.7164179  97.9124968  93.0359009  37.0021142
  97.3736367  92.5187732  38.3189627  96.8886424  90.7142422  25.5514370
  97.1411944  90.1923943  24.7897833  95.9510983  90.5508568  25.6541054
 101.9329707  89.7178201  33.3589114 102.7192796  89.2997624  33.0079531
 102.1968411  90.6224293  33.5270762 102.1039784  95.1551051  28.0577770
 101.4685617  95.2285677  28.7698675 101.7737190  95.7444650  27.3796850
 107.3338134  89.6553434  34.2622092 108.0663306  89.0852651  34.4959922
 106.5777489  89.2675034  34.7028598  96.6082712  92.6170528  27.7538745
  96.4918971  91.9415432  28.4219830  96.7184972  92.1302902  26.9370898
  98.9514253  92.0780675  31.4585435  98.5872461  91.5511296  32.1698356
  99.8081369  91.6879144  31.2851920 104.8563554  83.3675008  38.7216701
 104.5246879  84.2370419  38.4977916 104.2609167  83.0511292  39.4010731
  98.5919740  87.1070575  26.4546783  98.7594143  87.9750811  26.8217254
  98.4016909  87.2697857  25.5308072 101.3495074  95.5687554  38.1212613
 101.0495797  96.4712593  38.0128421 101.0046133  95.3019737  38.9733766
  94.8007555  92.0201351  34.1549318  93.8758051  91.8877565  34.3627010
  95.0491968  92.7995570  34.6519260 104.7492217  88.0870094  35.8010051
 103.8409095  88.0185502  35.5068812 104.6979813  88.5642039  36.6291876
  98.5708961  89.5628232  27.4393450  98.4508586  90.0085283  28.2778930
  97.8761550  89.9113550  26.8806988  92.1616366  91.6634624  34.9893107
  92.2908747  91.9169103  35.9032519  91.4813817  92.2562332  34.6697762
  96.3315853 102.3331874  31.0883581  96.2539883 103.2839699  31.1672062
  95.7277497 101.9877747  31.7458507  98.8233083  89.5059740  43.7444948
  98.0466417  90.0653660  43.7347813  99.4623646  89.9916523  44.2659818
 106.6153864  86.2886532  37.5787925 105.9728244  86.5819066  36.9327719
 106.1108792  86.1739453  38.3841121 104.2694027  90.0349706  28.2673784
 105.1811883  90.2677092  28.0921481 103.7603674  90.6186750  27.7048862
  97.0779455  92.3145193  43.3062915  97.8194140  92.8530237  43.0297739
  96.3716441  92.9411482  43.4634467 102.5534795  94.4574333  41.9035076
 102.9618151  94.0156744  41.1589709 101.8312057  93.8826961  42.1569269
  98.9065865  89.3946940  39.2768633  99.7527060  89.8186354  39.4203282
  98.8464503  88.7380565  39.9707197 102.8763610  95.0175524  35.6587365
 102.2472472  95.1821238  34.9563433 102.4889272  95.4317134  36.4298329
 106.7552842  95.9529962  33.0131729 106.0703880  96.3328863  32.4628762
 106.8396691  96.5625289  33.7463677 102.0565310  87.0551309  40.9349807
 101.8126242  87.8093369  40.3984083 102.3325241  87.4336656  41.7697054
 104.0103773  93.5989921  39.6127073 104.2220668  94.2421681  38.9361454
 103.9633521  92.7652237  39.1449003 101.6130002  86.2107742  36.5163645
 100.7514481  86.5088995  36.8080382 101.6392437  86.4278140  35.5844677
  98.4291572  94.7549932  32.9237450  98.8929917  95.0337635  32.1342073
  98.1648370  93.8533377  32.7410541  95.3215653  94.3021414  35.8617214
  95.8917010  94.7308682  35.2234698  95.9123764  94.0203998  36.5601399
  97.3660458  90.8773085  29.7327016  98.0684501  91.3294128  30.2000942
  97.0341086  90.2356903  30.3606909  95.8140819  89.4684841  44.1078225
  95.1839480  90.1501122  44.3413622  95.7076907  89.3567923  43.1631363
  91.1085792  89.1356637  35.0344149  90.3184846  89.3914166  34.5584260
  91.5997039  89.9504975  35.1396190 105.1249601  96.4761876  37.7849430
 105.9467045  96.0742064  37.5032112 105.1212004  96.3730111  38.7365546
  93.0600537  89.5001216  31.9927626  92.2631700  89.6119911  32.5111122
  92.8326129  89.8387869  31.1268516  98.8906205  96.0245920  39.9410140
  98.9550637  96.4866327  40.7768312  98.1817128  95.3943285  40.0692450
  89.3923495  89.3887128  37.4659140  89.6431533  90.2734138  37.7316716
  89.9283043  89.2091729  36.6934232 113.2155594  92.8200625  34.1334401
 112.4619303  92.2508023  33.9778406 113.3503135  92.7863289  35.0805036
  98.6054222  97.6914027  29.8089121  98.4699897  98.5365563  30.2373969
  99.1464035  97.8933305  29.0455055  95.0921562  83.7705607  46.4703476
  94.6988507  83.2171806  47.1451120  95.9087702  84.0816185  46.8609994
  92.0583620  95.2089465  30.3817046  92.5708140  96.0032715  30.5322611
  92.7106332  94.5115756  30.3150647  93.8678504  98.3255221  32.4639799
  94.0445133  99.2473186  32.2760783  94.6635338  98.0113641  32.8934179
  98.0089523  85.1863486  44.0623733  98.7499236  85.7870639  43.9828195
  98.2407446  84.4441124  43.5041775  93.1530861  90.3719853  42.3401962
  93.0384376  89.4705111  42.6409061  92.2975379  90.6183550  41.9886779
 100.2322699  98.3137594  43.9389463  99.7886553  97.5273972  43.6210367
 100.8939912  98.5016744  43.2733354  94.9909820  99.8433395  38.4650141
  95.5417245  99.7150459  37.6927135  94.1521296 100.1428284  38.1145034
 102.3303937  98.5940394  41.9670864 102.3122412  99.4149275  41.4751133
 103.2523857  98.4694469  42.1921005  98.7876991  96.1084523  42.8094373
  99.3205328  95.3472811  42.5793681  98.2591072  95.8158175  43.5518527
 101.9546686  81.2144589  38.3388014 101.6110955  82.1046231  38.2627125
 102.3225648  81.0246247  37.4757599  90.0232536  93.5378119  31.1576616
  90.8607758  93.9475128  30.9410324  90.2010804  92.5977562  31.1276810
 101.9196969  91.2053200  26.8460449 101.4043592  91.9757805  27.0848837
 101.6474277  90.5318336  27.4693511  99.5044080  86.0502901  31.9045688
  98.6485676  85.6609751  31.7251326  99.9171031  86.1294862  31.0445473
 101.0343226  83.5849244  36.3037248 100.5308022  83.5479379  35.4905053
 101.3273833  84.4941987  36.3633904  97.2786112  83.6687974  35.3103429
  98.1439109  83.4730783  34.9509319  97.3463621  83.4398326  36.2372786
 106.8931243  93.9585555  28.7813623 106.1160685  93.6196714  28.3368785
 107.5722724  93.9638178  28.1068588 101.7083272  89.0780292  28.6720231
 101.4033407  89.3926441  29.5230374 102.6613714  89.1561712  28.7147564
 100.1529704  95.2370516  30.3213185  99.6251065  94.5023275  30.0086422
  99.6517206  96.0145192  30.0753153 105.1322550  93.4319536  35.4380231
 104.4746224  94.1218797  35.5260359 105.9362949  93.8215968  35.7814217
  94.8848431  85.8990182  32.6819796  95.4592183  85.6765363  31.9492989
  95.4719414  85.9678876  33.4348397 103.9428008  91.7863909  33.4884173
 104.4559890  92.4193901  33.9905882 104.5929232  91.1865104  33.1227533
  95.2118018  87.9294643  26.7015681  94.3755331  88.2669329  27.0224956
  95.0722788  87.7943623  25.7642818  97.1871099  82.7731431  31.4094865
  96.5335511  82.4580448  30.7851480  97.1451573  82.1507171  32.1354688
  98.2982304  93.0550726  23.3248158  97.3909365  92.8239979  23.5239307
  98.7953336  92.2588345  23.5122139 100.4208839  89.2613364  35.7342513
  99.5031401  89.4828311  35.5764201 100.8368983  89.3359675  34.8754220
 101.2043887  90.6604780  30.8645193 101.9515706  91.1726177  30.5552315
 101.4735477  90.3388833  31.7249587  99.4770537  93.1563321  27.8472148
  98.5681756  92.8722353  27.9444617  99.5065621  93.5762399  26.9875455
 104.7089805  96.7669910  31.6163315 104.2552132  95.9260820  31.6728506
 104.0783771  97.4031309  31.9538095 103.6522724  87.6961896  32.8463983
 102.9145481  87.1839282  33.1774225 103.9049498  87.2562278  32.0347260
 103.1522744  98.6046407  32.5513133 103.4445718  99.1651464  31.8325499
 103.6621364  98.8974968  33.3066292 103.7534351  80.4738148  33.4405752
 104.0593228  79.6135512  33.1531667 104.4786956  81.0655768  33.2404746
  90.0458708  90.8768835  31.8287350  89.8483107  90.2838195  31.1038416
  89.4905372  90.5721045  32.5463289  98.0255431  90.7691941  33.9481943
  98.0804041  89.8165778  33.8724420  97.2146633  90.9251380  34.4323241
  99.1746625  94.6972064  25.1860226  98.7366055  93.9807923  24.7265864
  99.9157066  94.9248179  24.6245318  95.9647791  89.3869001  31.7072322
  95.1515657  89.6863172  32.1137514  96.4606785  88.9924690  32.4246804
  98.1156369  99.3826758  33.6406587  98.0732548  99.6087604  32.7115119
  99.0319068  99.1490133  33.7892388 101.5622003  89.8510825  40.5387216
 101.9171391  90.0782299  41.3981682 102.2094134  90.1829202  39.9164471
 107.2919740  92.9729261  31.2436545 107.1537638  93.1630857  30.3157734
 106.9355959  93.7348644  31.7004596  95.4561866  86.9587357  37.3233557
  96.0961245  86.8176116  36.6256520  94.6239396  86.6721870  36.9472159
 107.3189119  95.0405788  36.2547816 107.7525626  94.9481077  37.1030870
 108.0320700  95.0163289  35.6167832  96.2322170  96.2589787  33.4368549
  97.0262768  95.7640107  33.2351124  95.5213862  95.7307650  33.0736255
 101.0517014  98.6407882  37.7880917 101.1054037  99.2098819  38.5558633
 100.1831796  98.8109768  37.4234954  92.5404933  90.4032869  29.5128302
  91.6102521  90.3417324  29.7298264  92.6362405  89.8808821  28.7164943
  92.4590482  86.9287682  32.1006544  92.7197300  87.8433015  31.9915704
  93.2807655  86.4612124  32.2503156  93.9315408  88.3425439  39.2705368
  94.6038461  88.1342801  38.6218017  93.1045194  88.1447525  38.8310600
 108.1804669  95.0829489  38.7880702 108.3740559  95.9875300  39.0339977
 108.0805287  94.6236908  39.6219287  99.8340980  84.9687380  41.2871029
  99.1868895  85.6677329  41.1935505 100.6041995  85.4023524  41.6547277
 103.2419778  95.2336232  44.3621582 103.0905284  95.0046783  43.4451666
 103.2324457  96.1906833  44.3752927 100.0105114  92.8068145  39.3467849
 100.9397174  92.9579304  39.1736816  99.5896144  92.8952165  38.4916495
  98.8093446  96.8318809  37.1166386  98.6704531  96.4637593  37.9892324
  98.0208042  97.3466448  36.9450344  99.4041598 101.9327905  28.4591923
  99.5793353 101.4615949  29.2737546  98.7174386 102.5593672  28.6873184
 100.3598661  96.2100412  34.5055224 100.0248494  96.1701182  35.4012874
  99.8602607  95.5445128  34.0325634  94.3342905  91.6168042  40.0307805
  94.1962703  90.8848280  40.6319344  95.2447828  91.5276942  39.7491993
 103.2957853  93.5556446  24.7792284 102.6787023  92.8303274  24.6825337
 102.8274341  94.3165806  24.4359358  96.9625206  91.3288001  39.5191485
  97.6724824  90.6881193  39.4778103  96.9194514  91.5800896  40.4417666
 104.9511984  98.2655354  42.4398064 104.8924530  97.5814574  41.7728647
 105.3531503  99.0074344  41.9878690  95.6754140  88.3153219  41.3387124
  95.1391497  87.8643957  41.9908721  95.0870848  88.4499128  40.5957589
  93.9702683 105.0817268  35.2331783  94.2099281 105.7135792  35.9110802
  93.1271880 104.7305308  35.5197142  95.0856398  87.7741870  23.9013588
  94.2085865  87.6530671  23.5375835  95.5614152  86.9827949  23.6492477
 104.9529392  96.2294938  40.6712044 104.0656170  95.8920860  40.7938443
 105.5227943  95.4977970  40.9080809  86.6058539  92.5619030  33.9955095
  87.2929578  92.2480760  33.4076111  86.4506667  93.4660395  33.7222347
  91.4093261  87.4509227  38.4240119  91.3251450  86.8434896  37.6890529
  90.5875967  87.9418245  38.4249615  98.4830545 100.8896391  37.6373287
  98.4100716 101.6951362  38.1492592  98.0407938 101.0888356  36.8121308
  98.2720325 100.1268161  31.1476109  97.4887846 100.6689841  31.2414333
  98.9713070 100.6442140  31.5470350 101.5816975  85.9362790  33.7910314
 102.0785674  85.1832752  33.4711384 100.8103956  85.9727107  33.2253523
 109.4346732  91.6403156  35.4328606 109.4236608  92.5227871  35.0622539
 108.5664111  91.2874706  35.2383143 100.9429228 100.7883225  39.7931446
 101.6557201 101.4230689  39.7207347 100.4519257 100.8847091  38.9771448
 102.6646755  94.6934477  31.3648737 101.7303034  94.8135940  31.1953442
 102.8423424  93.7906944  31.1008747  98.1651943  88.0780173  33.5181999
  97.7949731  87.5251213  34.2062904  98.6611036  87.4738307  32.9656999
 106.0519307  90.5351797  31.8998772 106.5179759  91.3679788  31.8259074
 106.5026807  90.0696778  32.6044030  95.9941142  98.5377668  40.6137017
  96.6950601  99.1714151  40.7666411  95.5236257  98.8792400  39.8532656
 104.1195538  96.8795618  28.8984924 104.3955382  96.7652212  29.8078798
 103.2500037  96.4813103  28.8597097 104.0235969  82.9032384  35.9389673
 103.1099049  83.1336610  36.1071880 104.4529071  82.9870828  36.7903705
 103.7942428  91.0922276  38.4389567 103.1413878  91.3398183  37.7842020
 104.1722808  90.2786414  38.1052044 100.7549602 101.1281969  32.5417737
 100.9371996 100.3103625  33.0045490 101.5782588 101.3449661  32.1042627
 101.0891767 100.0550154  29.8032786 101.6179534  99.5442608  29.1902948
 101.3519987  99.7392684  30.6678319  99.8430001  91.8342087  44.9255604
  99.1670638  91.7336216  45.5957979 100.6657635  91.6781300  45.3891601
  91.5908860  98.0714023  37.5468119  92.1762297  97.3257711  37.6796023
  91.3933698  98.3817980  38.4304783  94.4447515 101.1065271  32.5630562
  93.7757891 101.5911398  32.0794602  94.3060385 101.3534491  33.4773940
  86.1826515  90.6419623  36.2672562  86.2210614  90.1083214  37.0609680
  85.6766808  90.1154829  35.6483540  98.5852784 103.1409014  39.1613220
  99.1371092 103.3040636  39.9262305  98.9258977 103.7313452  38.4893245
  93.5617277  85.4884164  39.7635105  93.6258604  86.3498995  39.3512502
  93.4984397  84.8758166  39.0307463  93.0369550  87.5607296  43.4108139
  93.6641588  87.1784374  44.0245663  92.1797468  87.3421498  43.7763831
 103.4363658  97.9670272  45.0161874 103.9803562  98.5800230  44.5216829
 102.8550503  98.5249850  45.5328887  89.8135092  89.3683726  29.3426494
  90.1088533  88.4594404  29.2893547  88.9123128  89.3471465  29.0207496
 101.7221171 101.0890990  36.1476902 101.5972311 100.2880729  35.6387848
 102.3800262 101.5837183  35.6590872  93.3429339  87.4439722  35.3254042
  92.6215925  88.0575690  35.1861516  94.1322595  87.9797487  35.2470688
 103.7856079  98.8900010  37.7756452 102.8386415  98.7705361  37.7034779
 104.1338853  98.0022508  37.8582714  96.1455653  84.7794149  41.5994694
  96.6690055  85.0256445  42.3621003  95.9267986  85.6114183  41.1797831
  91.5422934  87.0497823  29.4665819  91.2135640  86.1695202  29.2840925
  91.8962305  86.9945492  30.3542208 100.7902513  98.6852726  33.9760804
 100.6427475  97.7569433  34.1568374 101.6156006  98.7072817  33.4917880
  94.6564757  87.3370793  29.8341297  94.9960830  87.8656714  29.1119905
  95.1036878  87.6751199  30.6099863 104.3936635  99.5081285  35.0625677
 105.3183182  99.3024146  34.9250128 104.2251938  99.2597686  35.9715019
  97.3508198  85.7207844  39.2844365  97.0105018  84.9215657  39.6865045
  96.6447204  86.0209555  38.7121198  98.0024670  82.8057156  37.7371688
  98.8250739  82.3317634  37.6150578  98.2462733  83.5847640  38.2370374
  96.6432904  85.8345415  28.0334589  97.3641267  86.2126667  27.5298306
  96.0198208  86.5534291  28.1369567 100.7864027  86.5390564  28.9692922
 101.0027641  87.4215201  28.6681750 100.3058094  86.1476777  28.2398564
  95.5263248  89.4976277  35.5463666  95.3807829  89.8116580  36.4387948
  95.0488452  90.1161177  34.9934565  97.3859631  86.4878825  35.5944556
  97.3721200  85.5919918  35.2576854  98.1032059  86.4949489  36.2282842
  99.2385762  86.9216165  37.6397683  98.9803540  87.8433236  37.6382014
  98.7070802  86.5246599  38.3298147 104.1831951 100.0266952  30.4187769
 104.3568828  99.4613375  29.6661621 104.6760842 100.8267847  30.2367259
  90.0008911  92.0381621  38.4851327  89.4562379  92.8141429  38.6171602
  90.8788261  92.3852426  38.3270449  96.7896527  85.3693205  30.8632126
  96.9112438  84.4409851  31.0623013  96.4998570  85.3831891  29.9510441
  99.6587718  83.0548115  33.9998846  99.6809415  83.1187449  33.0450825
 100.0755777  82.2152624  34.1939352 110.0371342  92.7903375  32.0378068
 110.4802488  92.0410700  31.6397192 109.1597852  92.7813511  31.6551800
 105.1707123  99.3433716  27.5184667 105.8658028  99.9640409  27.7371982
 105.5130273  98.4929068  27.7937045  90.7874933  91.1651517  41.3781484
  90.0456669  91.3134153  41.9646115  90.4667677  91.4259783  40.5148234
 107.0698546  96.7933422  29.0471998 107.5949871  97.1320695  28.3221318
 106.9820899  95.8580437  28.8635132  98.7318595 100.7067496  41.1761874
  99.0405722 100.4616642  42.0484574  99.5294077 100.9114134  40.6880745
  98.7539207 102.8605405  33.4067251  98.3144197 102.3681784  34.1000108
  99.5047324 102.3178373  33.1659326  91.2331546  99.0516946  33.4091879
  92.0589566  98.7520718  33.0290523  90.8825598  98.2824569  33.8581668
  96.2013079  98.4043414  35.4789553  95.5793089  97.7414119  35.1791780
  96.8717946  98.4304546  34.7963200  89.4340151  96.9703273  34.3680813
  88.5972060  96.5425447  34.1864814  89.4063797  97.1635716  35.3051604
  96.2737607  86.8825202  45.0722059  96.3225762  87.7587325  44.6899828
  96.8160121  86.3402595  44.4993702 106.7592453  97.4266326  44.3523196
 105.9687996  97.4090465  43.8127695 106.5225807  97.9654619  45.1072232
 106.8790328  94.2758792  41.6655924 106.9288333  94.1108799  42.6071447
 106.7704251  93.4086051  41.2753805  95.7626586  96.9547338  28.9548013
  95.9114707  97.6382802  28.3014686  96.5693030  96.9352428  29.4697469
 104.1694090  90.2589720  42.9815231 105.0703953  90.1196185  42.6899229
 104.2442064  90.4244175  43.9213408  98.5036895  87.6356575  41.8268417
  97.6340205  87.9290141  41.5551006  98.7396376  88.2197020  42.5475681
 108.3808524  96.6955734  41.9097946 108.0893333  97.0585714  42.7461407
 107.7680656  95.9822742  41.7311278 109.5804207  94.2608613  34.4300516
 110.4151098  94.6998417  34.5938076 109.7163336  93.7847267  33.6108762
 106.6295713  91.8188348  40.3778004 107.1049834  92.0115994  39.5696855
 105.7061278  91.8747534  40.1321387  93.5179219  92.9812515  29.9609082
  93.2725261  92.0774845  30.1589292  93.6875134  92.9829666  29.0188560
 101.2075929  83.8536192  39.3433838 101.7257873  84.5897219  39.0180326
 100.8531062  84.1600185  40.1780597  92.7874867  88.7140873  27.4595243
  92.0944112  88.7885228  26.8035279  92.5426619  87.9501217  27.9816760
 101.4588523  80.2736474  34.8634734 101.7390277  79.6059663  35.4895161
 102.2439130  80.4665570  34.3509398  99.2621992  99.4495468  26.4259761
  98.6895959 100.0685655  25.9730232  99.8354785  99.9994830  26.9599682
 105.3297382  88.6954108  38.6106309 106.2814805  88.7952206  38.6318533
 105.1600832  87.9032377  39.1204394 103.3511761  85.7809691  38.7965710
 102.7561693  86.0614704  38.1012199 103.0661458  86.2703592  39.5682451
 102.4819252  99.7332618  27.5568343 103.4149925  99.6678180  27.7601218
 102.3942464 100.5688885  27.0982875 107.8085459  91.9160228  37.7248609
 107.7761780  90.9776229  37.9108293 108.4186083  91.9944265  36.9914434
  99.6468790  90.7856281  23.7675813 100.5927895  90.6562489  23.8364231
  99.2683035  90.0470943  24.2445241 107.9579948  88.7071271  37.7706892
 107.4418997  87.9229728  37.5836821 108.8419896  88.3789988  37.9353412
 105.6190675  82.4512287  33.7302705 105.4215496  82.1427375  34.6146037
 106.2290380  83.1773926  33.8600635 113.6262009  92.9776235  36.8654646
 114.3565398  92.7161523  37.4262349 113.0168955  92.2404957  36.9056714
 111.7077306  91.1184097  37.4629097 110.9810470  90.9840062  36.8545589
 111.2924593  91.4260926  38.2685815  99.5307483  94.8374027  45.2276470
 100.4510492  95.0152626  45.4216517  99.4957066  93.8930072  45.0756169
  97.8311707  88.7106257  23.7030698  96.9243163  88.4139370  23.7793412
  98.1087688  88.4136075  22.8364984  88.7489648  90.0312621  34.1529745
  88.4292432  89.1777929  33.8604119  88.2023076  90.2461199  34.9087712
  92.5269555  92.7475062  37.8699251  92.7455565  93.6792170  37.8887285
  92.9395329  92.3883036  38.6554055  99.4473773  83.2543147  29.8574940
  98.6374501  82.9090232  30.2330186 100.1358190  82.9450691  30.4462551
 101.3764321  82.3321194  31.4799236 101.9295360  82.7516647  32.1389259
 101.6134408  81.4056942  31.5222192  97.3997421  88.3208267  47.2602000
  97.2994148  89.2702624  47.1914091  97.1818963  87.9926506  46.3878070
  96.6010492  85.5693193  23.8442677  97.4629656  85.8948091  24.1038495
  96.7860836  84.7824688  23.3315743  88.6177908  93.6515532  36.1222866
  87.9241379  93.2369485  35.6092821  89.3650899  93.6936069  35.5256285
 104.7543129  84.4421719  30.9877900 104.1741798  85.1006523  30.6055953
 104.4879061  83.6199064  30.5765318 103.2046695  83.8426777  33.1899221
 103.7046473  83.9543311  32.3813540 103.8482303  83.5387830  33.8300029
  97.2628691  91.7505406  46.0767062  96.7795772  92.5505766  46.2830951
  97.3489630  91.7613351  45.1234506  90.5314650  93.5833786  33.9988881
  90.5085338  93.6821473  33.0470764  90.8415287  94.4298937  34.3206047
  93.1902028  95.6409941  38.1135496  94.1445282  95.6093883  38.0465427
  92.9914552  95.1800565  38.9285721  93.7801410  94.2111057  40.6806293
  94.5994299  94.7055136  40.7041130  94.0538218  93.2943025  40.6523861
 103.5368007  86.6021809  30.0434249 102.6493862  86.8871460  29.8254443
 103.9521996  86.4415573  29.1961526 106.8882543  86.6268330  33.7588588
 107.6642933  87.1164783  34.0313205 106.1630677  87.0526385  34.2160457
 109.3255101  87.3395950  34.8162529 109.9199592  87.0991686  34.1055837
 109.3981685  86.6203080  35.4436065  91.5452257 101.1829561  35.1305693
  91.4106725 100.4229961  34.5643691  91.1284319 101.9070460  34.6634482
 102.6811220  96.3666484  24.1382269 103.3847070  96.5716487  24.7539924
 101.9573869  96.9343246  24.4031352 103.5109030  92.1176345  30.2584539
 103.4544232  92.5744897  29.4192171 104.0637373  91.3567030  30.0807382
 107.3213836  87.9066077  31.0834658 107.0650770  87.5062713  31.9142866
 106.6966704  88.6209871  30.9584798 111.6326174  90.6462150  33.5905950
 111.0725732  90.7155340  34.3637512 111.0269677  90.4703135  32.8705446
  94.7021383 102.0798878  35.3424136  94.5853767 103.0244310  35.2402826
  93.8813829 101.7772439  35.7309935 104.5897917  96.8049013  26.1880729
 105.4243521  96.3730212  26.0058204 104.4282260  96.6331027  27.1157623
 104.2443810  93.3081127  27.5537068 104.1892613  93.1425398  26.6125512
 103.6189865  94.0157159  27.7099258  89.0336325  88.5449191  41.3798490
  89.6795188  88.0348145  41.8685715  88.8253476  89.2817873  41.9541916
 101.5589717  95.6130038  46.8790631 102.4280876  95.7870691  46.5177266
 101.0796468  96.4324455  46.7566360  97.5539935  82.8089236  27.1322386
  97.5418605  83.7531075  27.2890657  98.4463357  82.6259381  26.8381848
  95.7275897 102.7327139  38.5580064  96.6303144 102.7650750  38.8746559
  95.5013267 101.8027590  38.5726400  97.4829499 101.4858126  35.2190143
  96.5325130 101.4859988  35.1054515  97.7861985 100.7390861  34.7026178
 101.3692055  79.4032012  31.3868323 100.6024450  78.8490499  31.5325006
 101.7802759  79.4753881  32.2482475  93.3733816  85.6916808  45.4773504
  94.2365277  85.3353613  45.6876829  92.7999226  85.3530703  46.1648909
 113.2182193 107.3218664  36.2835905 113.8560602 107.2025412  35.5799246
 113.1003035 108.2699508  36.3423858 110.0271899 107.2746092  36.2197430
 109.6890410 107.1587157  35.3317965 110.8961667 106.8737258  36.1998436
 110.5091682 108.4280944  42.1783636 110.4980323 108.0333742  41.3064139
 110.6712321 107.6947017  42.7717407 103.4323146 110.6232760  35.0478542
 104.2244438 110.2823585  34.6324841 103.6719797 110.7327736  35.9680695
 107.2298943 111.2118056  41.1262820 106.9388809 112.1163687  41.0109486
 107.8655927 111.2534584  41.8406889 108.1555150 108.5894905  37.7164179
 108.7518722 108.3650927  37.0021142 108.2130121 107.8479650  38.3189627
 112.7723461 105.0470118  33.3589114 113.5586550 104.6289541  33.0079531
 113.0362165 105.9516210  33.5270762 115.6957308  98.6966926  38.7216701
 115.3640633  99.5662336  38.4977916 115.1002922  98.3803210  39.4010731
 112.1888828 110.8979472  38.1212613 111.8889551 111.8004510  38.0128421
 111.8439888 110.6311655  38.9733766 105.6401309 107.3493268  34.1549318
 104.7151806 107.2169482  34.3627010 105.8885723 108.1287488  34.6519260
 115.5885972 103.4162012  35.8010051 114.6802849 103.3477420  35.5068812
 115.5373568 103.8933957  36.6291876 103.0010121 106.9926542  34.9893107
 103.1302502 107.2461021  35.9032519 102.3207572 107.5854250  34.6697762
 109.6626838 104.8351657  43.7444948 108.8860172 105.3945577  43.7347813
 110.3017401 105.3208440  44.2659818 117.4547618 101.6178450  37.5787925
 116.8121998 101.9110983  36.9327719 116.9502547 101.5031370  38.3841121
 107.9173210 107.6437111  43.3062915 108.6587894 108.1822155  43.0297739
 107.2110195 108.2703399  43.4634467 113.3928550 109.7866251  41.9035076
 113.8011906 109.3448662  41.1589709 112.6705811 109.2118879  42.1569269
 109.7459620 104.7238858  39.2768633 110.5920815 105.1478271  39.4203282
 109.6858257 104.0672482  39.9707197 112.8959065 102.3843226  40.9349807
 112.6519997 103.1385287  40.3984083 113.1718995 102.7628574  41.7697054
 114.8497528 108.9281839  39.6127073 115.0614423 109.5713598  38.9361454
 114.8027276 108.0944155  39.1449003 112.4523757 101.5399659  36.5163645
 111.5908236 101.8380913  36.8080382 112.4786191 101.7570058  35.5844677
 106.1609407 109.6313331  35.8617214 106.7310764 110.0600600  35.2234698
 106.7517519 109.3495916  36.5601399 106.6534574 104.7976759  44.1078225
 106.0233234 105.4793040  44.3413622 106.5470662 104.6859840  43.1631363
 101.9479546 104.4648555  35.0344149 101.1578600 104.7206083  34.5584260
 102.4390793 105.2796893  35.1396190 103.8994291 104.8293134  31.9927626
 103.1025455 104.9411828  32.5111122 103.6719884 105.1679786  31.1268516
 109.7299959 111.3537837  39.9410140 109.7944392 111.8158245  40.7768312
 109.0210883 110.7235202  40.0692450 100.2317249 104.7179045  37.4659140
 100.4825287 105.6026055  37.7316716 100.7676797 104.5383647  36.6934232
 105.9315316  99.0997525  46.4703476 105.5382262  98.5463723  47.1451120
 106.7481457  99.4108103  46.8609994 108.8483277 100.5155404  44.0623733
 109.5892991 101.1162557  43.9828195 109.0801200  99.7733042  43.5041775
 103.9924615 105.7011771  42.3401962 103.8778131 104.7997028  42.6409061
 103.1369133 105.9475468  41.9886779 105.8303574 115.1725313  38.4650141
 106.3810999 115.0442376  37.6927135 104.9915050 115.4720202  38.1145034
 109.6270745 111.4376441  42.8094373 110.1599082 110.6764729  42.5793681
 109.0984826 111.1450093  43.5518527 112.7940440  96.5436507  38.3388014
 112.4504710  97.4338148  38.2627125 113.1619403  96.3538164  37.4757599
 100.8626291 108.8670037  31.1576616 101.7001513 109.2767046  30.9410324
 101.0404559 107.9269479  31.1276810 110.3437834 101.3794819  31.9045688
 109.4879430 100.9901669  31.7251326 110.7564786 101.4586779  31.0445473
 111.8736981  98.9141162  36.3037248 111.3701776  98.8771297  35.4905053
 112.1667588  99.8233905  36.3633904 108.1179867  98.9979892  35.3103429
 108.9832863  98.8022700  34.9509319 108.1857375  98.7690243  36.2372786
 105.7242186 101.2282099  32.6819796 106.2985938 101.0057281  31.9492989
 106.3113168 101.2970794  33.4348397 108.0264853  98.1023348  31.4094865
 107.3729266  97.7872366  30.7851480 107.9845328  97.4799089  32.1354688
 111.2602594 104.5905282  35.7342513 110.3425155 104.8120229  35.5764201
 111.6762737 104.6651592  34.8754220 114.5928106  95.8030066  33.4405752
 114.8986983  94.9427429  33.1531667 115.3180711  96.3947686  33.2404746
 100.8852462 106.2060752  31.8287350 100.6876862 105.6130113  31.1038416
 100.3299126 105.9012963  32.5463289 108.8649186 106.0983859  33.9481943
 108.9197795 105.1457695  33.8724420 108.0540388 106.2543298  34.4323241
 106.8041546 104.7160919  31.7072322 105.9909411 105.0155089  32.1137514
 107.3000540 104.3216607  32.4246804 112.4015757 105.1802743  40.5387216
 112.7565145 105.4074216  41.3981682 113.0487889 105.5121120  39.9164471
 106.2955620 102.2879274  37.3233557 106.9355000 102.1468033  36.6256520
 105.4633151 102.0013788  36.9472159 103.2984237 102.2579599  32.1006544
 103.5591054 103.1724932  31.9915704 104.1201409 101.7904042  32.2503156
 104.7709162 103.6717356  39.2705368 105.4432216 103.4634719  38.6218017
 103.9438949 103.4739442  38.8310600 110.6734734 100.2979297  41.2871029
 110.0262649 100.9969247  41.1935505 111.4435750 100.7315441  41.6547277
 110.8498868 108.1360062  39.3467849 111.7790928 108.2871222  39.1736816
 110.4289899 108.2244083  38.4916495 109.6487200 112.1610727  37.1166386
 109.5098286 111.7929511  37.9892324 108.8601797 112.6758366  36.9450344
 105.1736659 106.9459959  40.0307805 105.0356457 106.2140198  40.6319344
 106.0841583 106.8568859  39.7491993 107.8018960 106.6579919  39.5191485
 108.5118579 106.0173111  39.4778103 107.7588268 106.9092814  40.4417666
 106.5147894 103.6445137  41.3387124 105.9785251 103.1935875  41.9908721
 105.9264602 103.7791045  40.5957589  97.4452293 107.8910948  33.9955095
  98.1323333 107.5772678  33.4076111  97.2900422 108.7952312  33.7222347
 102.2487015 102.7801144  38.4240119 102.1645204 102.1726814  37.6890529
 101.4269722 103.2710163  38.4249615 112.4210729 101.2654708  33.7910314
 112.9179429 100.5124670  33.4711384 111.6497711 101.3019024  33.2253523
 109.0045698 103.4072091  33.5181999 108.6343485 102.8543131  34.2062904
 109.5004790 102.8030224  32.9656999 106.8334896 113.8669586  40.6137017
 107.5344356 114.5006069  40.7666411 106.3630011 114.2084317  39.8532656
 114.8629724  98.2324301  35.9389673 113.9492804  98.4628528  36.1071880
 115.2922825  98.3162745  36.7903705 114.6336182 106.4214193  38.4389567
 113.9807633 106.6690101  37.7842020 115.0116562 105.6078331  38.1052044
 110.6823755 107.1634004  44.9255604 110.0064392 107.0628134  45.5957979
 111.5051389 107.0073218  45.3891601 102.4302615 113.4005941  37.5468119
 103.0156051 112.6549629  37.6796023 102.2327453 113.7109898  38.4304783
  97.0220269 105.9711541  36.2672562  97.0604369 105.4375132  37.0609680
  96.5160562 105.4446747  35.6483540 104.4011032 100.8176082  39.7635105
 104.4652358 101.6790912  39.3512502 104.3378152 100.2050083  39.0307463
 103.8763304 102.8899214  43.4108139 104.5035343 102.5076291  44.0245663
 103.0191223 102.6713416  43.7763831 100.6528847 104.6975643  29.3426494
 100.9482288 103.7886322  29.2893547  99.7516883 104.6763383  29.0207496
 104.1823094 102.7731640  35.3254042 103.4609680 103.3867607  35.1861516
 104.9716350 103.3089405  35.2470688 106.9849407 100.1086066  41.5994694
 107.5083809 100.3548363  42.3621003 106.7661741 100.9406101  41.1797831
 102.3816688 102.3789741  29.4665819 102.0529395 101.4987120  29.2840925
 102.7356059 102.3237410  30.3542208 105.4958512 102.6662711  29.8341297
 105.8354584 103.1948632  29.1119905 105.9430632 103.0043117  30.6099863
 108.1901952 101.0499761  39.2844365 107.8498773 100.2507574  39.6865045
 107.4840959 101.3501472  38.7121198 108.8418424  98.1349074  37.7371688
 109.6644494  97.6609552  37.6150578 109.0856488  98.9139558  38.2370374
 106.3657003 104.8268194  35.5463666 106.2201584 105.1408498  36.4387948
 105.8882207 105.4453095  34.9934565 108.2253386 101.8170742  35.5944556
 108.2114955 100.9211836  35.2576854 108.9425814 101.8241406  36.2282842
 110.0779517 102.2508083  37.6397683 109.8197294 103.1725153  37.6382014
 109.5464557 101.8538517  38.3298147 100.8402665 107.3673539  38.4851327
 100.2956133 108.1433347  38.6171602 101.7182015 107.7144343  38.3270449
 107.6290282 100.6985123  30.8632126 107.7506193  99.7701769  31.0623013
 107.3392324 100.7123809  29.9510441 110.4981472  98.3840033  33.9998846
 110.5203169  98.4479366  33.0450825 110.9149531  97.5444542  34.1939352
 101.6268687 106.4943435  41.3781484 100.8850423 106.6426070  41.9646115
 101.3061431 106.7551701  40.5148234 100.2733906 112.2995190  34.3680813
  99.4365814 111.8717365  34.1864814 100.2457551 112.4927634  35.3051604
 107.1131361 102.2117120  45.0722059 107.1619517 103.0879243  44.6899828
 107.6553876 101.6694513  44.4993702 115.0087844 105.5881638  42.9815231
 115.9097707 105.4488103  42.6899229 115.0835819 105.7536093  43.9213408
 109.3430650 102.9648492  41.8268417 108.4733959 103.2582059  41.5551006
 109.5790130 103.5488937  42.5475681 117.4689467 107.1480266  40.3778004
 117.9443589 107.3407912  39.5696855 116.5455033 107.2039452  40.1321387
 112.0469684  99.1828109  39.3433838 112.5651627  99.9189136  39.0180326
 111.6924816  99.4892103  40.1780597 112.2982278  95.6028392  34.8634734
 112.5784032  94.9351581  35.4895161 113.0832885  95.7957488  34.3509398
 116.1691136 104.0246026  38.6106309 117.1208559 104.1244124  38.6318533
 115.9994587 103.2324294  39.1204394 114.1905516 101.1101609  38.7965710
 113.5955448 101.3906622  38.1012199 113.9055212 101.5995510  39.5682451
 118.7973702 104.0363189  37.7706892 118.2812751 103.2521646  37.5836821
 119.6813651 103.7081906  37.9353412 116.4584429  97.7804205  33.7302705
 116.2609250  97.4719293  34.6146037 117.0684135  98.5065844  33.8600635
 110.3701237 110.1665945  45.2276470 111.2904247 110.3444544  45.4216517
 110.3350820 109.2221990  45.0756169  99.5883402 105.3604538  34.1529745
  99.2686187 104.5069847  33.8604119  99.0416830 105.5753117  34.9087712
 103.3663310 108.0766979  37.8699251 103.5849320 109.0084087  37.8887285
 103.7789084 107.7174954  38.6554055 110.2867528  98.5835065  29.8574940
 109.4768256  98.2382150  30.2330186 110.9751945  98.2742608  30.4462551
 112.2158076  97.6613112  31.4799236 112.7689115  98.0808565  32.1389259
 112.4528162  96.7348860  31.5222192 108.2391175 103.6500185  47.2602000
 108.1387902 104.5994542  47.1914091 108.0212717 103.3218424  46.3878070
  99.4571662 108.9807450  36.1222866  98.7635134 108.5661403  35.6092821
 100.2044653 109.0227986  35.5256285 114.0440449  99.1718694  33.1899221
 114.5440228  99.2835229  32.3813540 114.6876057  98.8679747  33.8300029
 108.1022445 107.0797324  46.0767062 107.6189527 107.8797684  46.2830951
 108.1883384 107.0905269  45.1234506 101.3708405 108.9125704  33.9988881
 101.3479093 109.0113391  33.0470764 101.6809041 109.7590854  34.3206047
 104.0295783 110.9701859  38.1135496 104.9839036 110.9385801  38.0465427
 103.8308306 110.5092482  38.9285721 104.6195165 109.5402975  40.6806293
 105.4388054 110.0347053  40.7041130 104.8931973 108.6234943  40.6523861
 117.7276297 101.9560248  33.7588588 118.5036687 102.4456700  34.0313205
 117.0024431 102.3818302  34.2160457  99.8730079 103.8741109  41.3798490
 100.5188943 103.3640063  41.8685715  99.6647230 104.6109790  41.9541916
 112.2085809  94.7323930  31.3868323 111.4418205  94.1782417  31.5325006
 112.6196514  94.8045799  32.2482475 104.2127570 101.0208726  45.4773504
 105.0759032 100.6645531  45.6876829 103.6392981 100.6822621  46.1648909
  46.0353927  -1.3259872  30.6634770  45.5917782  -2.1123494  30.3455674
  46.6971141  -1.1380722  29.9978660  48.1335165  -1.0457072  28.6916171
  48.1153641  -0.2248191  28.1996440  49.0555086  -1.1702997  28.9166312
  49.0451006  -4.4061234  31.0866889  48.8936513  -4.6350682  30.1696973
  49.0355686  -3.4490633  31.0998234  50.7543213  -1.3742111  29.1643371
  50.6955759  -2.0582891  28.4973954  51.1562731  -0.6323121  28.7123997
  49.2394887  -1.6727194  31.7407181  49.7834791  -1.0597236  31.2462136
  48.6581732  -1.1147616  32.2574194  52.5623681  -2.2131140  31.0768502
  51.7719225  -2.2307001  30.5373002  52.3257036  -1.6742846  31.8317539
  54.1839753  -2.9441732  28.6343252  53.8924562  -2.5811752  29.4706713
  53.5711884  -3.6574724  28.4556584  47.3620946  -4.0267427  33.6035937
  48.2312105  -3.8526775  33.2422572  46.8827697  -3.2073011  33.4811667
  59.0213421   7.6821199  23.0081212  59.6591831   7.5627946  22.3044552
  58.9034264   8.6302043  23.0669164  55.8303128   7.6348627  22.9442737
  55.4921639   7.5189691  22.0563272  56.6992896   7.2339792  22.9243743
  56.3122911   8.7883478  28.9028942  56.3011551   8.3936277  28.0309446
  56.4743550   8.0549551  29.4962714  49.2354375  10.9835295  21.7723848
  50.0275667  10.6426119  21.3570148  49.4751025  11.0930270  22.6926002
  53.0330172  11.5720590  27.8508126  52.7420038  12.4766221  27.7354793
  53.6687156  11.6137118  28.5652196  53.9586379   8.9497439  24.4409486
  54.5549951   8.7253461  23.7266449  54.0161350   8.2082184  25.0434934
  63.9763117   5.3447886  20.9867399  64.7088289   4.7747102  21.2205228
  63.2202473   4.9569486  21.4273904  61.4988537  -0.9430540  25.4462007
  61.1671862  -0.0735129  25.2223222  60.9034151  -1.2594256  26.1256038
  57.9920057  11.2582006  24.8457920  57.6920780  12.1607045  24.7373727
  57.6471116  10.9914189  25.6979073  61.3917201   3.7764546  22.5255357
  60.4834078   3.7079954  22.2314118  61.3404796   4.2536491  23.3537183
  52.9740837  18.0226326  17.8128888  52.8964866  18.9734151  17.8917368
  52.3702480  17.6772199  18.4703814  55.4658066   5.1954191  30.4690255
  54.6891400   5.7548112  30.4593119  56.1048629   5.6810974  30.9905125
  63.2578847   1.9780984  24.3033231  62.6153227   2.2713517  23.6573026
  62.7533776   1.8633905  25.1086428  53.7204439   8.0039645  30.0308222
  54.4619123   8.5424689  29.7543045  53.0141424   8.6305934  30.1879773
  59.1959778  10.1468785  28.6280383  59.6043134   9.7051196  27.8835015
  58.4737040   9.5721413  28.8814576  55.5490848   5.0841392  26.0013940
  56.3952044   5.5080806  26.1448589  55.4889486   4.4275016  26.6952503
  59.5188593  10.7069976  22.3832672  58.8897455  10.8715690  21.6808740
  59.1314255  11.1211586  23.1543636  63.3977825  11.6424414  19.7377036
  62.7128863  12.0223315  19.1874069  63.4821674  12.2519740  20.4708984
  58.6990294   2.7445760  27.6595114  58.4551226   3.4987821  27.1229389
  58.9750224   3.1231108  28.4942361  60.6528756   9.2884373  26.3372379
  60.8645652   9.9316133  25.6606760  60.6058505   8.4546689  25.8694309
  55.0716555  10.4444384  19.6482757  55.5354900  10.7232087  18.8587380
  54.8073353   9.5427829  19.4655848  51.9640636   9.9915866  22.5862520
  52.5341993  10.4203134  21.9480005  52.5548748   9.7098450  23.2846706
  52.4565802   5.1579293  30.8323532  51.8264463   5.8395574  31.0658928
  52.3501890   5.0462375  29.8876670  61.7674584  12.1656328  24.5094737
  62.5892028  11.7636516  24.2277418  61.7636987  12.0624562  25.4610852
  55.5331188  11.7140372  26.6655447  55.5975620  12.1760779  27.5013619
  54.8242112  11.0837736  26.7937757  69.8580577   8.5095077  20.8579708
  69.1044286   7.9402475  20.7023713  69.9928119   8.4757741  21.8050343
  51.7346545  -0.5399941  33.1948783  51.3413491  -1.0933743  33.8696427
  52.5512686  -0.2289363  33.5855300  50.5103488  14.0149673  19.1885106
  50.6870116  14.9367638  19.0006090  51.3060321  13.7008093  19.6179485
  54.6514506   0.8757938  30.7869039  55.3924220   1.4765091  30.7073502
  54.8832429   0.1335576  30.2287082  49.7955844   6.0614305  29.0647269
  49.6809359   5.1599562  29.3654368  48.9400362   6.3078002  28.7132085
  56.8747682  14.0032046  30.6634770  56.4311536  13.2168424  30.3455674
  57.5364896  14.1911196  29.9978660  51.6334803  15.5327847  25.1895448
  52.1842228  15.4044910  24.4172442  50.7946279  15.8322736  24.8390341
  58.9728920  14.2834845  28.6916171  58.9547395  15.1043727  28.1996440
  59.8948840  14.1588921  28.9166312  55.4301974  11.7978975  29.5339679
  55.9630311  11.0367263  29.3038987  54.9016055  11.5052627  30.2763834
  61.7747533   9.1213988  22.1625537  61.1171207   9.8113249  22.2505666
  62.5787932   9.5110420  22.5059524  60.5852992   7.4758361  20.2129479
  61.0984873   8.1088352  20.7151189  61.2354216   6.8759556  19.8472839
  57.0633823   4.9507816  22.4587820  56.1456384   5.1722763  22.3009508
  57.4793966   5.0254127  21.5999527  61.3514788  12.4564362  18.3408622
  60.8977115  11.6155272  18.3973812  60.7208755  13.0925760  18.6783402
  59.7947727  14.2940859  19.2758440  60.0870701  14.8545916  18.5570806
  60.3046348  14.5869420  20.0311599  54.7581352  15.0721210  20.3651893
  54.7157531  15.2982056  19.4360425  55.6744051  14.8384584  20.5137694
  58.2046986   5.5405277  27.2632522  58.5596374   5.7676751  28.1226988
  58.8519117   5.8723654  26.6409778  63.9344723   8.6623713  17.9681851
  63.7962622   8.8525309  17.0403041  63.5780942   9.4243096  18.4249903
  63.9614103  10.7300240  22.9793123  64.3950609  10.6375529  23.8276177
  64.6745683  10.7057741  22.3413139  52.8747153  11.9484239  20.1613856
  53.6687752  11.4534559  19.9596431  52.1638845  11.4202102  19.7981561
  57.6941998  14.3302334  24.5126224  57.7479020  14.8993271  25.2803939
  56.8256779  14.5004219  24.1480261  50.5740391   4.0319891  25.9950675
  51.2463444   3.8237253  25.3463324  49.7470177   3.8341977  25.5555907
  64.8229652  10.7723941  25.5126008  65.0165542  11.6769751  25.7585283
  64.7230270  10.3131360  26.3464593  56.4765963   0.6581832  28.0116336
  55.8293878   1.3571781  27.9180812  57.2466978   1.0917975  28.3792584
  59.8844761  10.9230684  31.0866889  59.7330267  10.6941235  30.1696973
  59.8749440  11.8801285  31.0998234  56.6530097   8.4962596  26.0713155
  57.5822157   8.6473756  25.8982123  56.2321127   8.5846617  25.2161802
  55.4518429  12.5213261  23.8411693  55.3129515  12.1532045  24.7137631
  54.6633025  13.0360900  23.6695651  56.0466581  17.6222357  15.1837230
  56.2218337  17.1510400  15.9982852  55.3599369  18.2488123  15.4118490
  57.0023644  11.8994864  21.2300531  56.6673477  11.8595633  22.1258181
  56.5027590  11.2339579  20.7570941  50.9767888   7.3062494  26.7553112
  50.8387686   6.5742732  27.3564651  51.8872812   7.2171394  26.4737300
  53.6050189   7.0182453  26.2436792  54.3149807   6.3775645  26.2023410
  53.5619497   7.2695348  27.1662972  61.5936968  13.9549806  29.1643371
  61.5349514  13.2709026  28.4973954  61.9956486  14.6968796  28.7123997
  52.3179123   4.0047671  28.0632431  51.7816480   3.5538409  28.7154027
  51.7295831   4.1393580  27.3202895  50.6127666  20.7711720  21.9577090
  50.8524265  21.4030244  22.6356108  49.7696863  20.4199760  22.2442449
  61.5954375  11.9189390  27.3957350  60.7081154  11.5815312  27.5183749
  62.1652926  11.1872421  27.6326116  55.1255528  16.5790843  24.3618594
  55.0525700  17.3845814  24.8737898  54.6832921  16.7782808  23.5366615
  54.9145308  15.8162613  17.8721415  54.1312830  16.3584293  17.9659640
  55.6138053  16.3336592  18.2715656  66.0771715   7.3297608  22.1573912
  66.0661592   8.2122323  21.7867845  65.2089095   6.9769158  21.9628449
  57.5854212  16.4777677  26.5176752  58.2982184  17.1125141  26.4452654
  57.0944240  16.5741543  25.7016754  59.3071739  10.3828929  18.0894044
  58.3728017  10.5030392  17.9198748  59.4848407   9.4801396  17.8254054
  62.6944290   6.2246248  18.6244078  63.1604742   7.0574240  18.5504381
  63.1451790   5.7591230  19.3289337  52.6366125  14.2272120  27.3382323
  53.3375585  14.8608603  27.4911717  52.1661240  14.5686852  26.5777962
  60.4367411   6.7816727  25.1634874  59.7838861   7.0292635  24.5087326
  60.8147791   5.9680866  24.8297351  57.3974585  16.8176421  19.2663044
  57.5796980  15.9998077  19.7290796  58.2207571  17.0344113  18.8287934
  57.7316751  15.7444606  16.5278092  58.2604517  15.2337060  15.9148254
  57.9944970  15.4287136  17.3923625  56.4854984   7.5236539  31.6500911
  55.8095621   7.4230668  32.3203286  57.3082618   7.3675752  32.1136908
  48.2333843  13.7608475  24.2713426  48.8187280  13.0152163  24.4041330
  48.0358682  14.0712432  25.1550090  51.0872499  16.7959722  19.2875868
  50.4182874  17.2805850  18.8039908  50.9485368  17.0428943  20.2019247
  55.2277767  18.8303466  25.8858527  55.7796075  18.9935087  26.6507612
  55.5683961  19.4207904  25.2138551  49.6794533   3.2501748  30.1353446
  50.3066572   2.8678826  30.7490970  48.8222452   3.0315950  30.5009138
  60.0788641  13.6564723  31.7407181  60.6228545  14.2694682  31.2462136
  59.4975486  14.2144302  32.2574194  58.3646154  16.7785441  22.8722209
  58.2397294  15.9775181  22.3633154  59.0225246  17.2731635  22.3836179
  60.4281063  14.5794462  24.5001759  59.4811398  14.4599813  24.4280086
  60.7763836  13.6916960  24.5828020  52.7880636   0.4688600  28.3240001
  53.3115038   0.7150897  29.0866310  52.5692969   1.3008635  27.9043138
  57.4327496  14.3747178  20.7006111  57.2852459  13.4463885  20.8813681
  58.2580990  14.3967268  20.2163186  61.0361618  15.1975737  21.7870984
  61.9608165  14.9918598  21.6495435  60.8676921  14.9492138  22.6960325
  53.9933181   1.4102296  26.0089671  53.6530002   0.6110109  26.4110351
  53.2872187   1.7104006  25.4366504  55.8810745   2.6110617  24.3642990
  55.6228523   3.5327687  24.3627320  55.3495786   2.2141051  25.0543454
  60.8256934  15.7161404  17.1433075  60.9993812  15.1507826  16.3906928
  61.3185825  16.5162299  16.9612565  46.6433894   7.7276073  25.2096634
  46.0987362   8.5035881  25.3416908  47.5213244   8.0746878  25.0515756
  66.6796325   8.4797827  18.7623375  67.1227471   7.7305152  18.3642498
  65.8022836   8.4707963  18.3797107  61.8132107  15.0328168  14.2429974
  62.5083011  15.6534861  14.4617288  62.1555257  14.1823520  14.5182351
  47.4299916   6.8545969  28.1026791  46.6881652   7.0028605  28.6891421
  47.1092660   7.1154235  27.2393540  63.7123530  12.4827874  15.7717304
  64.2374854  12.8215147  15.0466624  63.6245882  11.5474889  15.5880439
  55.3743578  16.3961948  27.9007181  55.6830705  16.1511094  28.7729881
  56.1719060  16.6008586  27.4126051  55.3964190  18.5499857  20.1312558
  54.9569181  18.0576236  20.8245414  56.1472307  18.0072825  19.8904633
  47.8756529  14.7411398  20.1337186  48.7014549  14.4415170  19.7535829
  47.5250581  13.9719020  20.5826974  52.8438063  14.0937866  22.2034859
  52.2218072  13.4308571  21.9037087  53.5142930  14.1198998  21.5208507
  52.9162590   2.5719654  31.7967365  52.9650746   3.4481777  31.4145135
  53.4585104   2.0297047  31.2239008  63.4017436  13.1160778  31.0768502
  62.6112980  13.0984916  30.5373002  63.1650790  13.6549071  31.8317539
  63.5215311   9.9653244  28.3901231  63.5713316   9.8003251  29.3316754
  63.4129234   9.0980503  27.9999112  60.8119073   5.9484172  29.7060538
  61.7128936   5.8090637  29.4144535  60.8867048   6.1138627  30.6458715
  55.1461879   3.3251027  28.5513724  54.2765188   3.6184593  28.2796312
  55.3821359   3.9091472  29.2720988  65.0233508  12.3850185  28.6343252
  64.7318316  12.7480166  29.4706713  64.4105639  11.6717194  28.4556584
  66.2229190   9.9503065  21.1545823  67.0576081  10.3892869  21.3183383
  66.3588319   9.4741718  20.3354068  63.2720696   7.5082800  27.1023310
  63.7474818   7.7010446  26.2942162  62.3486261   7.5641986  26.8566694
  57.8500912  -0.4569356  26.0679144  58.3682856   0.2791671  25.7425633
  57.4956045  -0.1505363  26.9025903  61.9722365   4.3848560  25.3351616
  62.9239788   4.4846658  25.3563840  61.8025815   3.5926829  25.8449700
  59.9936744   1.4704143  25.5211017  59.3986677   1.7509156  24.8257506
  59.7086441   1.9598044  26.2927758  64.4510443   7.6054680  24.4493916
  64.4186763   6.6670681  24.6353599  65.0611066   7.6838717  23.7159740
  64.6004931   4.3965723  24.4952199  64.0843980   3.6124180  24.3082128
  65.4844880   4.0684440  24.6598718  70.2686993   8.6670687  23.5899952
  70.9990381   8.4055975  24.1507656  69.6593938   7.9299409  23.6302020
  68.3502290   6.8078549  24.1874404  67.6235453   6.6734514  23.5790895
  67.9349577   7.1155378  24.9931122  56.1732466  10.5268479  31.9521777
  57.0935476  10.7047078  32.1461823  56.1382049   9.5824524  31.8001476
  49.1694539   8.4369514  24.5944558  49.3880548   9.3686621  24.6132592
  49.5820312   8.0777488  25.3799362  54.0422404   4.0102719  33.9847307
  53.9419131   4.9597076  33.9159398  53.8243946   3.6820958  33.1123377
  53.9053674   7.4399858  32.8012368  53.4220756   8.2400218  33.0076257
  53.9914613   7.4507803  31.8479812  49.8327012  11.3304393  24.8380802
  50.7870265  11.2988335  24.7710734  49.6339535  10.8695017  25.6531028
  50.4226394   9.9005509  27.4051600  51.2419283  10.3949588  27.4286437
  50.6963201   8.9837477  27.3769167  63.5307526   2.3162782  20.4833895
  64.3067916   2.8059235  20.7558511  62.8055660   2.7420836  20.9405764
  65.9680085   3.0290401  21.5407835  66.5624575   2.7886137  20.8301143
  66.0406668   2.3097532  22.1681371  48.1877240  16.8724012  21.8551000
  48.0531708  16.1124413  21.2888998  47.7709303  17.5964912  21.3879789
  68.2751157   6.3356602  20.3151256  67.7150715   6.4049792  21.0882818
  67.6694661   6.1597587  19.5950753  51.3446366  17.7693329  22.0669443
  51.2278750  18.7138762  21.9648133  50.5238812  17.4666891  22.4555242
  45.6761308   4.2343643  28.1043797  46.3220172   3.7242597  28.5931022
  45.4678459   4.9712324  28.6787222  58.2014700  11.3024490  33.6035937
  59.0705860  11.4765143  33.2422572  57.7221452  12.1218907  33.4811667
  52.3700880  18.4221591  25.2825371  53.2728127  18.4545202  25.5991866
  52.1438250  17.4922042  25.2971707  54.1254482  17.1752578  21.9435450
  53.1750113  17.1754439  21.8299822  54.4286968  16.4285312  21.4271484
  50.0158799   1.3811260  32.2018811  50.8790260   1.0248065  32.4122136
  49.4424210   1.0425155  32.8894215  69.8607176  23.0113116  23.0081212
  70.4985586  22.8919864  22.3044552  69.7428019  23.9593960  23.0669164
  66.6696882  22.9640544  22.9442737  66.3315394  22.8481609  22.0563272
  67.5386650  22.5631709  22.9243743  62.5283698  24.8176021  18.9339628
  61.9648563  24.7265958  18.1655916  62.4136093  23.9975925  19.4142120
  67.1516665  24.1175396  28.9028942  67.1405306  23.7228194  28.0309446
  67.3137305  23.3841469  29.4962714  60.0748130  26.3127212  21.7723848
  60.8669422  25.9718037  21.3570148  60.3144780  26.4222187  22.6926002
  68.1083257  28.4846988  14.2454093  67.4571236  29.0701069  13.8588106
  68.9027619  29.0153183  14.3049130  62.0338884  25.5736126  14.6441227
  62.8069760  25.0265113  14.5054103  62.3864283  26.4380375  14.8555688
  63.8723926  26.9012508  27.8508126  63.5813792  27.8058139  27.7354793
  64.5080911  26.9429035  28.5652196  64.7980133  24.2789356  24.4409486
  65.3943705  24.0545379  23.7266449  64.8555105  23.5374102  25.0434934
  64.3705161  21.7328792  12.2759677  64.6230682  21.2110313  11.5143140
  63.4329721  21.5694937  12.3786361  69.4148444  20.7364570  20.0834420
  70.2011534  20.3183993  19.7324837  69.6787149  21.6410662  20.2516069
  69.5858522  26.1737420  14.7823077  68.9504355  26.2472047  15.4943982
  69.2555928  26.7631019  14.1042156  74.8156871  20.6739803  20.9867399
  75.5482043  20.1039020  21.2205228  74.0596227  20.2861404  21.4273904
  64.0901450  23.6356898  14.4784052  63.9737708  22.9601801  15.1465136
  64.2003710  23.1489272  13.6616205  66.4332991  23.0967045  18.1830741
  66.0691198  22.5697666  18.8943663  67.2900107  22.7065514  18.0097227
  72.3382292  14.3861377  25.4462007  72.0065617  15.2556788  25.2223222
  71.7427905  14.0697661  26.1256038  66.0738478  18.1256944  13.1792090
  66.2412880  18.9937181  13.5462561  65.8835647  18.2884226  12.2553379
  68.8313811  26.5873923  24.8457920  68.5314534  27.4898962  24.7373727
  68.4864871  26.3206107  25.6979073  62.2826293  23.0387720  20.8794624
  61.3576789  22.9063934  21.0872316  62.5310706  23.8181939  21.3764567
  72.2310955  19.1056464  22.5255357  71.3227832  19.0371872  22.2314118
  72.1798551  19.5828409  23.3537183  66.0527699  20.5814602  14.1638756
  65.9327324  21.0271653  15.0024237  65.3580287  20.9299920  13.6052295
  59.6435104  22.6820994  21.7138414  59.7727485  22.9355473  22.6277825
  58.9632555  23.2748702  21.3943069  63.8134591  33.3518244  17.8128888
  63.7358621  34.3026069  17.8917368  63.2096235  33.0064116  18.4703814
  66.3051821  20.5246109  30.4690255  65.5285155  21.0840029  30.4593119
  66.9442384  21.0102892  30.9905125  74.0972602  17.3072902  24.3033231
  73.4546982  17.6005435  23.6573026  73.5927530  17.1925822  25.1086428
  71.7512765  21.0536075  14.9919091  72.6630621  21.2863462  14.8166788
  71.2422412  21.6373119  14.4294169  64.5598193  23.3331563  30.0308222
  65.3012878  23.8716606  29.7543045  63.8535179  23.9597851  30.1879773
  70.0353533  25.4760703  28.6280383  70.4436889  25.0343114  27.8835015
  69.3130794  24.9013331  28.8814576  66.3884603  20.4133310  26.0013940
  67.2345798  20.8372723  26.1448589  66.3283241  19.7566934  26.6952503
  70.3582347  26.0361894  22.3832672  69.7291210  26.2007608  21.6808740
  69.9708010  26.4503503  23.1543636  74.2371579  26.9716331  19.7377036
  73.5522618  27.3515233  19.1874069  74.3215429  27.5811658  20.4708984
  69.5384048  18.0737678  27.6595114  69.2944980  18.8279739  27.1229389
  69.8143979  18.4523026  28.4942361  71.4922511  24.6176290  26.3372379
  71.7039406  25.2608050  25.6606760  71.4452259  23.7838607  25.8694309
  69.0948740  17.2294111  23.2408951  68.2333219  17.5275365  23.5325689
  69.1211175  17.4464510  22.3089984  65.9110309  25.7736302  19.6482757
  66.3748655  26.0524005  18.8587380  65.6467107  24.8719746  19.4655848
  62.8034390  25.3207783  22.5862520  63.3735747  25.7495052  21.9480005
  63.3942502  25.0390368  23.2846706  64.8479195  21.8959454  16.4572322
  65.5503239  22.3480498  16.9246249  64.5159824  21.2543273  17.0852215
  63.2959557  20.4871211  30.8323532  62.6658218  21.1687492  31.0658928
  63.1895645  20.3754292  29.8876670  58.5904529  20.1543007  21.7589456
  57.8003583  20.4100535  21.2829566  59.0815777  20.9691345  21.8641496
  72.6068339  27.4948246  24.5094737  73.4285783  27.0928433  24.2277418
  72.6030742  27.3916480  25.4610852  60.5419275  20.5187586  18.7172932
  59.7450438  20.6306280  19.2356428  60.3144867  20.8574238  17.8513823
  66.3724942  27.0432289  26.6655447  66.4369375  27.5052696  27.5013619
  65.6635866  26.4129654  26.7937757  56.8742232  20.4073497  24.1904447
  57.1250271  21.2920507  24.4562023  57.4101781  20.2278099  23.4179538
  80.6974332  23.8386994  20.8579708  79.9438040  23.2694392  20.7023713
  80.8321873  23.8049659  21.8050343  66.0872960  28.7100397  16.5334427
  65.9518635  29.5551932  16.9619275  66.6282773  28.9119674  15.7700361
  62.5740300  14.7891977  33.1948783  62.1807245  14.2358175  33.8696427
  63.3906440  15.1002555  33.5855300  59.5402357  26.2275835  17.1062353
  60.0526878  27.0219085  17.2567917  60.1925070  25.5302125  17.0395954
  61.3497242  29.3441591  19.1885106  61.5263870  30.2659556  19.0006090
  62.1454076  29.0300010  19.6179485  65.4908261  16.2049856  30.7869039
  66.2317974  16.8057009  30.7073502  65.7226183  15.4627493  30.2287082
  60.6349599  21.3906223  29.0647269  60.5203114  20.4891480  29.3654368
  59.7794116  21.6369920  28.7132085  62.4728558  30.8619765  25.1895448
  63.0235983  30.7336828  24.4172442  61.6340033  31.1614654  24.8390341
  66.2695729  27.1270893  29.5339679  66.8024065  26.3659181  29.3038987
  65.7409810  26.8344544  30.2763834  69.4365424  12.2330959  25.0633321
  69.0929693  13.1232600  24.9872431  69.8044386  12.0432616  24.2002906
  57.5051274  24.5564489  17.8821923  58.3426496  24.9661497  17.6655631
  57.6829542  23.6163931  17.8522117  69.4015706  22.2239570  13.5705756
  68.8862330  22.9944174  13.8094143  69.1293015  21.5504706  14.1938817
  66.9862817  17.0689270  18.6290994  66.1304414  16.6796121  18.4496633
  67.3989769  17.1481231  17.7690780  68.5161964  14.6035614  23.0282554
  68.0126760  14.5665749  22.2150359  68.8092571  15.5128356  23.0879211
  64.7604850  14.6874343  22.0348736  65.6257847  14.4917152  21.6754625
  64.8282359  14.4584695  22.9618093  74.3749980  24.9771924  15.5058929
  73.5979423  24.6383084  15.0614092  75.0541461  24.9824547  14.8313895
  69.1902009  20.0966662  15.3965537  68.8852145  20.4112811  16.2475680
  70.1432452  20.1748082  15.4392870  67.6348441  26.2556885  17.0458491
  67.1069803  25.5209645  16.7331729  67.1335944  27.0331561  16.7998460
  72.6141287  24.4505906  22.1625537  71.9564962  25.1405167  22.2505666
  73.4181687  24.8402338  22.5059524  62.3667169  16.9176551  19.4065103
  62.9410921  16.6951733  18.6738296  62.9538151  16.9865246  20.1593704
  71.4246746  22.8050278  20.2129479  71.9378628  23.4380270  20.7151189
  72.0747970  22.2051474  19.8472839  62.6936756  18.9481012  13.4260988
  61.8574068  19.2855699  13.7470263  62.5541526  18.8129992  12.4888125
  64.6689837  13.7917800  18.1340172  64.0154249  13.4766817  17.5096787
  64.6270311  13.1693541  18.8599995  65.7801042  24.0737095  10.0493464
  64.8728103  23.8426349  10.2484613  66.2772074  23.2774715  10.2367446
  68.6869120  32.7834603  12.9690150  68.0130819  33.0866299  13.5775108
  69.0734942  33.5863683  12.6195607  67.9027577  20.2799734  22.4587820
  66.9850138  20.5014681  22.3009508  68.3187721  20.3546044  21.5999527
  68.6862625  21.6791150  17.5890500  69.4334444  22.1912547  17.2797622
  68.9554214  21.3575202  18.4494894  66.9589275  24.1749690  14.5717454
  66.0500494  23.8908723  14.6689924  66.9884359  24.5948769  13.7120761
  72.1908542  27.7856280  18.3408622  71.7370869  26.9447190  18.3973812
  71.5602509  28.4217678  18.6783402  71.1341462  18.7148266  19.5709289
  70.3964219  18.2025652  19.9019532  71.3868235  18.2748647  18.7592566
  70.6341482  29.6232776  19.2758440  70.9264456  30.1837834  18.5570806
  71.1440102  29.9161337  20.0311599  71.2353089  11.4924518  20.1651059
  71.5411966  10.6321881  19.8776974  71.9605694  12.0842138  19.9650052
  57.5277445  21.8955204  18.5532657  57.3301845  21.3024565  17.8283723
  56.9724109  21.5907415  19.2708595  65.5074169  21.7878311  20.6727250
  65.5622779  20.8352147  20.5969726  64.6965371  21.9437750  21.1568548
  66.6565363  25.7158434  11.9105533  66.2184793  24.9994293  11.4511170
  67.3975804  25.9434549  11.3490624  63.4466529  20.4055371  18.4317629
  62.6334394  20.7049541  18.8382821  63.9425523  20.0111059  19.1492111
  65.5975107  30.4013128  20.3651893  65.5551286  30.6273974  19.4360425
  66.5137806  30.1676502  20.5137694  69.0440741  20.8697195  27.2632522
  69.3990128  21.0968668  28.1226988  69.6912872  21.2015572  26.6409778
  74.7738478  23.9915631  17.9681851  74.6356376  24.1817227  17.0403041
  74.4174696  24.7535014  18.4249903  62.9380604  17.9773726  24.0478863
  63.5779983  17.8362485  23.3501827  62.1058134  17.6908239  23.6717465
  74.8007857  26.0592158  22.9793123  75.2344364  25.9667447  23.8276177
  75.5139438  26.0349658  22.3413139  63.7140908  27.2776157  20.1613856
  64.5081506  26.7826477  19.9596431  63.0032600  26.7494020  19.7981561
  68.5335752  29.6594252  24.5126224  68.5872774  30.2285188  25.2803939
  67.6650533  29.8296137  24.1480261  60.0223671  21.4219238  16.2373609
  59.0921259  21.3603694  16.4543571  60.1181143  20.8995191  15.4410250
  59.9409220  17.9474051  18.8251850  60.2016037  18.8619384  18.7161011
  60.7626392  17.4798494  18.9748463  61.4134145  19.3611808  25.9950675
  62.0857199  19.1529170  25.3463324  60.5863932  19.1633894  25.5555907
  75.6623407  26.1015859  25.5126008  75.8559297  27.0061669  25.7585283
  75.5624025  25.6423278  26.3464593  67.3159717  15.9873749  28.0116336
  66.6687632  16.6863699  27.9180812  68.0860733  16.4209893  28.3792584
  70.7238515  26.2522601  31.0866889  70.5724022  26.0233153  30.1696973
  70.7143195  27.2093203  31.0998234  67.4923852  23.8254514  26.0713155
  68.4215912  23.9765674  25.8982123  67.0714882  23.9138535  25.2161802
  66.2912184  27.8505179  23.8411693  66.1523269  27.4823963  24.7137631
  65.5026780  28.3652818  23.6695651  66.8860336  32.9514275  15.1837230
  67.0612091  32.4802318  15.9982852  66.1993124  33.5780041  15.4118490
  67.8417399  27.2286781  21.2300531  67.5067231  27.1887551  22.1258181
  67.3421344  26.5631497  20.7570941  61.8161643  22.6354411  26.7553112
  61.6781441  21.9034650  27.3564651  62.7266566  22.5463311  26.4737300
  70.7776590  24.5742816  11.5037590  70.1605761  23.8489644  11.4070643
  70.3093079  25.3352176  11.1604665  64.4443943  22.3474371  26.2436792
  65.1543562  21.7067563  26.2023410  64.4013252  22.5987265  27.1662972
  72.4330722  29.2841724  29.1643371  72.3743268  28.6000944  28.4973954
  72.8350240  30.0260714  28.7123997  63.1572877  19.3339588  28.0632431
  62.6210234  18.8830327  28.7154027  62.5689586  19.4685497  27.3202895
  61.4521421  36.1003638  21.9577090  61.6918019  36.7322162  22.6356108
  60.6090617  35.7491678  22.2442449  72.4348129  27.2481308  27.3957350
  71.5474908  26.9107230  27.5183749  73.0046680  26.5164339  27.6326116
  54.0877276  23.5805400  20.7200402  54.7748316  23.2667130  20.1321417
  53.9325405  24.4846764  20.4467653  58.8911999  18.4695596  25.1485426
  58.8070187  17.8621266  24.4135836  58.0694705  18.9604614  25.1494922
  65.9649283  31.9082760  24.3618594  65.8919454  32.7137732  24.8737898
  65.5226676  32.1074726  23.5366615  65.7539062  31.1454530  17.8721415
  64.9706584  31.6876210  17.9659640  66.4531807  31.6628510  18.2715656
  69.0635712  16.9549160  20.5155621  69.5604412  16.2019122  20.1956691
  68.2922694  16.9913476  19.9498830  76.9165470  22.6589525  22.1573912
  76.9055346  23.5414241  21.7867845  76.0482849  22.3061076  21.9628449
  68.4247966  31.8069594  26.5176752  69.1375938  32.4417059  26.4452654
  67.9337995  31.9033460  25.7016754  70.1465493  25.7120847  18.0894044
  69.2121772  25.8322309  17.9198748  70.3242162  24.8093314  17.8254054
  65.6470681  19.0966543  20.2427305  65.2768469  18.5437583  20.9308211
  66.1429774  18.4924676  19.6902305  73.5338044  21.5538166  18.6244078
  73.9998497  22.3866158  18.5504381  73.9845545  21.0883148  19.3289337
  63.4759880  29.5564038  27.3382323  64.1769339  30.1900521  27.4911717
  63.0054995  29.8978769  26.5777962  71.6014276  27.8981987  15.6230230
  71.8774119  27.7838582  16.5324104  70.7318774  27.4999472  15.5842403
  71.5054707  13.9218753  22.6634980  70.5917787  14.1522980  22.8317186
  71.9347809  14.0057197  23.5149012  71.2761166  22.1108645  25.1634874
  70.6232616  22.3584553  24.5087326  71.6541546  21.2972783  24.8297351
  68.2368340  32.1468338  19.2663044  68.4190734  31.3289994  19.7290796
  69.0601326  32.3636031  18.8287934  68.5710505  31.0736523  16.5278092
  69.0998272  30.5628978  15.9148254  68.8338725  30.7579054  17.3923625
  67.3248739  22.8528456  31.6500911  66.6489376  22.7522586  32.3203286
  68.1476373  22.6967670  32.1136908  59.0727598  29.0900393  24.2713426
  59.6581035  28.3444081  24.4041330  58.8752436  29.4004349  25.1550090
  61.9266253  32.1251640  19.2875868  61.2576628  32.6097768  18.8039908
  61.7879123  32.3720861  20.2019247  53.6645253  21.6605993  22.9917869
  53.7029352  21.1269584  23.7854987  53.1585545  21.1341198  22.3728846
  66.0671522  34.1595384  25.8858527  66.6189830  34.3227005  26.6507612
  66.4077715  34.7499821  25.2138551  61.0436015  16.5070533  26.4880411
  61.1077341  17.3685364  26.0757809  60.9803135  15.8944535  25.7552770
  60.5188287  18.5793666  30.1353446  61.1460326  18.1970743  30.7490970
  59.6616206  18.3607868  30.5009138  57.2953830  20.3870095  16.0671800
  57.5907271  19.4780774  16.0138854  56.3941866  20.3657835  15.7452803
  69.2039909  32.1077359  22.8722209  69.0791048  31.3067099  22.3633154
  69.8619000  32.6023553  22.3836179  60.8248077  18.4626092  22.0499349
  60.1034663  19.0762059  21.9106822  61.6141333  18.9983856  21.9715995
  71.2674817  29.9086379  24.5001759  70.3205153  29.7891730  24.4280086
  71.6157590  29.0208877  24.5828020  63.6274391  15.7980518  28.3240001
  64.1508792  16.0442815  29.0866310  63.4086724  16.6300553  27.9043138
  59.0241672  18.0684193  16.1911126  58.6954378  17.1881572  16.0086231
  59.3781042  18.0131861  17.0787515  68.2721251  29.7039095  20.7006111
  68.1246213  28.7755803  20.8813681  69.0974744  29.7259186  20.2163186
  62.1383495  18.3557163  16.5586603  62.4779567  18.8843084  15.8365212
  62.5855615  18.6937569  17.3345170  71.8755372  30.5267654  21.7870984
  72.8001920  30.3210516  21.6495435  71.7070676  30.2784055  22.6960325
  64.8326936  16.7394213  26.0089671  64.4923756  15.9402026  26.4110351
  64.1265942  17.0395924  25.4366504  65.4843408  13.8243526  24.4616994
  66.3069477  13.3504004  24.3395885  65.7281471  14.6034009  24.9615681
  64.1251642  16.8531784  14.7579896  64.8460005  17.2313037  14.2543613
  63.5016946  17.5720661  14.8614874  68.2682765  17.5576933  15.6938228
  68.4846379  18.4401571  15.3927056  67.7876832  17.1663147  14.9643870
  63.0081986  20.5162646  22.2708973  62.8626567  20.8302949  23.1633254
  62.5307190  21.1347547  21.7179872  64.8678369  17.5065194  22.3189862
  64.8539938  16.6106288  21.9822160  65.5850797  17.5135858  22.9528149
  66.7204500  17.9402535  24.3642990  66.4622278  18.8619605  24.3627320
  66.1889540  17.5432969  25.0543454  71.6650689  31.0453322  17.1433075
  71.8387566  30.4799744  16.3906928  72.1579580  31.8454217  16.9612565
  57.4827648  23.0567991  25.2096634  56.9381117  23.8327799  25.3416908
  58.3606998  23.4038795  25.0515756  64.2715265  16.3879575  17.5877433
  64.3931176  15.4596221  17.7868320  63.9817307  16.4018261  16.6755748
  67.1406455  14.0734485  20.7244152  67.1628152  14.1373818  19.7696132
  67.5574514  13.2338994  20.9184659  77.5190080  23.8089745  18.7623375
  77.9621226  23.0597070  18.3642498  76.6416590  23.7999881  18.3797107
  72.6525861  30.3620086  14.2429974  73.3476766  30.9826779  14.4617288
  72.9949011  29.5115437  14.5182351  58.2693670  22.1837887  28.1026791
  57.5275406  22.3320522  28.6891421  57.9486415  22.4446153  27.2393540
  74.5517284  27.8119792  15.7717304  75.0768608  28.1507064  15.0466624
  74.4639637  26.8766807  15.5880439  66.2357945  33.8791775  20.1312558
  65.7962935  33.3868154  20.8245414  66.9866062  33.3364743  19.8904633
  58.7150284  30.0703316  20.1337186  59.5408304  29.7707088  19.7535829
  58.3644336  29.3010938  20.5826974  63.6831817  29.4229784  22.2034859
  63.0611826  28.7600489  21.9037087  64.3536684  29.4490916  21.5208507
  56.9158889  27.9889642  21.0926119  56.0790797  27.5611817  20.9110120
  56.8882534  28.1822086  22.0296910  63.7556345  17.9011572  31.7967365
  63.8044500  18.7773695  31.4145135  64.2978859  17.3588965  31.2239008
  74.2411190  28.4452695  31.0768502  73.4506734  28.4276834  30.5373002
  74.0044545  28.9840989  31.8317539  74.3609065  25.2945162  28.3901231
  74.4107070  25.1295169  29.3316754  74.2522989  24.4272421  27.9999112
  63.2445324  27.9733707  15.6793320  63.3933444  28.6569172  15.0259992
  64.0511768  27.9538797  16.1942775  71.6512828  21.2776090  29.7060538
  72.5522691  21.1382554  29.4144535  71.7260802  21.4430544  30.6458715
  65.9855633  18.6542944  28.5513724  65.1158942  18.9476510  28.2796312
  66.2215113  19.2383389  29.2720988  75.8627262  27.7142103  28.6343252
  75.5712070  28.0772084  29.4706713  75.2499393  27.0009111  28.4556584
  77.0622944  25.2794983  21.1545823  77.8969836  25.7184787  21.3183383
  77.1982073  24.8033636  20.3354068  74.1114450  22.8374718  27.1023310
  74.5868572  23.0302364  26.2942162  73.1880016  22.8933904  26.8566694
  60.9997957  23.9998885  16.6854389  60.7543999  23.0961215  16.8834599
  61.1693872  24.0016035  15.7433867  68.6894667  14.8722561  26.0679144
  69.2076611  15.6083588  25.7425633  68.3349800  15.1786555  26.9025903
  60.2693605  19.7327243  14.1840550  59.5762850  19.8071597  13.5280586
  60.0245356  18.9687586  14.7062067  68.9407261  11.2922844  21.5880041
  69.2209015  10.6246033  22.2140467  69.7257868  11.4851939  21.0754705
  66.7440730  30.4681838  13.1505067  66.1714697  31.0872025  12.6975539
  67.3173523  31.0181199  13.6844989  72.8116119  19.7140478  25.3351616
  73.7633542  19.8138575  25.3563840  72.6419570  18.9218746  25.8449700
  70.8330499  16.7996061  25.5211017  70.2380431  17.0801074  24.8257506
  70.5480196  17.2889962  26.2927758  69.9637989  30.7518988  14.2813649
  70.8968663  30.6864550  14.4846525  69.8761202  31.5875255  13.8228182
  72.5926006  30.0684858  11.2417597  72.5139638  29.7344722  12.1353355
  73.4135673  30.5606626  11.2409069  75.2904197  22.9346598  24.4493916
  75.2580517  21.9962598  24.6353599  75.9004821  23.0130634  23.7159740
  67.1287528  21.8042650  10.4921120  68.0746633  21.6748859  10.5609538
  66.7501773  21.0657312  10.9690548  75.4398686  19.7257641  24.4952199
  74.9237734  18.9416098  24.3082128  76.3238634  19.3976358  24.6598718
  73.1009413  13.4698657  20.4548011  72.9034234  13.1613745  21.3391343
  73.7109118  14.1960295  20.5845941  81.1080747  23.9962604  23.5899952
  81.8384136  23.7347892  24.1507656  80.4987693  23.2591326  23.6302020
  79.1896044  22.1370467  24.1874404  78.4629208  22.0026432  23.5790895
  78.7743331  22.4447296  24.9931122  67.0126221  25.8560397  31.9521777
  67.9329230  26.0338996  32.1461823  66.9775804  24.9116442  31.8001476
  65.3130445  19.7292627  10.4276005  64.4061901  19.4325740  10.5038718
  65.5906426  19.4322445   9.5610291  56.2308386  21.0498990  20.8775051
  55.9111170  20.1964298  20.5849425  55.6841814  21.2647568  21.6333019
  60.0088293  23.7661431  24.5944558  60.2274303  24.6978539  24.6132592
  60.4214067  23.4069406  25.3799362  66.9292511  14.2729517  16.5820246
  66.1193239  13.9276602  16.9575492  67.6176928  13.9637060  17.1707858
  68.8583059  13.3507563  18.2044543  69.4114098  13.7703017  18.8634566
  69.0953146  12.4243312  18.2467499  64.8816158  19.3394637  33.9847307
  64.7812885  20.2888994  33.9159398  64.6637701  19.0112876  33.1123377
  56.0996646  24.6701902  22.8468173  55.4060117  24.2555855  22.3338127
  56.8469637  24.7122438  22.2501592  72.2361866  15.4608089  17.7123207
  71.6560535  16.1192893  17.3301259  71.9697799  14.6385433  17.3010625
  70.6865433  14.8613146  19.9144527  71.1865211  14.9729681  19.1058846
  71.3301041  14.5574199  20.5545336  64.7447429  22.7691776  32.8012368
  64.2614510  23.5692136  33.0076257  64.8308368  22.7799721  31.8479812
  58.0133388  24.6020156  20.7234188  57.9904076  24.7007843  19.7716071
  58.3234025  25.4485306  21.0451354  60.6720766  26.6596311  24.8380802
  61.6264020  26.6280253  24.7710734  60.4733290  26.1986934  25.6531028
  61.2620148  25.2297427  27.4051600  62.0813037  25.7241505  27.4286437
  61.5356956  24.3129395  27.3769167  71.0186744  17.6208179  16.7679555
  70.1312599  17.9057830  16.5499750  71.4340733  17.4601942  15.9206832
  74.3701280  17.6454700  20.4833895  75.1461671  18.1351152  20.7558511
  73.6449415  18.0712754  20.9405764  76.8073839  18.3582319  21.5407835
  77.4018330  18.1178055  20.8301143  76.8800423  17.6389450  22.1681371
  59.0270995  32.2015930  21.8551000  58.8925463  31.4416331  21.2888998
  58.6103057  32.9256830  21.3879789  70.1629958  27.3852854  10.8627575
  70.8665808  27.5902856  11.4785231  69.4392607  27.9529616  11.1276659
  70.9927768  23.1362715  16.9829845  70.9362969  23.5931266  16.1437478
  71.5456111  22.3753399  16.8052688  74.8032574  18.9252447  17.8079965
  74.5469508  18.5249082  18.6388173  74.1785442  19.6396241  17.6830104
  79.1144912  21.6648520  20.3151256  78.5544470  21.7341709  21.0882818
  78.5088415  21.4889505  19.5950753  62.1840121  33.0985247  22.0669443
  62.0672505  34.0430680  21.9648133  61.3632567  32.7958809  22.4555242
  72.0716655  27.8235383  12.9126035  72.9062259  27.3916581  12.7303510
  71.9100998  27.6517397  13.8402930  71.7262547  24.3267496  14.2782375
  71.6711351  24.1611768  13.3370819  71.1008603  25.0343529  14.4344564
  56.5155062  19.5635561  28.1043797  57.1613926  19.0534514  28.5931022
  56.3072214  20.3004242  28.6787222  69.0408455  26.6316408  33.6035937
  69.9099614  26.8057060  33.2422572  68.5615206  27.4510825  33.4811667
  65.0358673  13.8275605  13.8567693  65.0237343  14.7717445  14.0135964
  65.9282095  13.6445751  13.5627154  63.2094635  33.7513509  25.2825371
  64.1121882  33.7837119  25.5991866  62.9832005  32.8213960  25.2971707
  64.9648237  32.5044496  21.9435450  64.0143868  32.5046357  21.8299822
  65.2680723  31.7577230  21.4271484  68.8510792  10.4218382  18.1113630
  68.0843188   9.8676868  18.2570312  69.2621497  10.4940251  18.9727781
  60.8552553  16.7103178  32.2018811  61.7184015  16.3539982  32.4122136
  60.2817964  16.3717072  32.8894215  73.3677452  40.1467938  18.9339628
  72.8042317  40.0557875  18.1655916  73.2529847  39.3267843  19.4142120
  70.9141884  41.6419130  21.7723848  71.7063176  41.3009955  21.3570148
  71.1538534  41.7514105  22.6926002  78.9477011  43.8138906  14.2454093
  78.2964991  44.3992987  13.8588106  79.7421374  44.3445101  14.3049130
  72.8732638  40.9028043  14.6441227  73.6463514  40.3557030  14.5054103
  73.2258037  41.7672293  14.8555688  75.2098916  37.0620709  12.2759677
  75.4624437  36.5402231  11.5143140  74.2723475  36.8986855  12.3786361
  80.2542199  36.0656488  20.0834420  81.0405288  35.6475911  19.7324837
  80.5180903  36.9702580  20.2516069  80.4252276  41.5029338  14.7823077
  79.7898109  41.5763965  15.4943982  80.0949683  42.0922937  14.1042156
  85.6550626  36.0031721  20.9867399  86.3875798  35.4330938  21.2205228
  84.8989982  35.6153321  21.4273904  74.9295205  38.9648815  14.4784052
  74.8131463  38.2893719  15.1465136  75.0397465  38.4781189  13.6616205
  77.2726746  38.4258962  18.1830741  76.9084953  37.8989583  18.8943663
  78.1293862  38.0357432  18.0097227  83.1776046  29.7153295  25.4462007
  82.8459371  30.5848706  25.2223222  82.5821660  29.3989579  26.1256038
  76.9132233  33.4548862  13.1792090  77.0806635  34.3229099  13.5462561
  76.7229402  33.6176144  12.2553379  73.1220047  38.3679638  20.8794624
  72.1970544  38.2355852  21.0872316  73.3704460  39.1473857  21.3764567
  83.0704710  34.4348381  22.5255357  82.1621587  34.3663790  22.2314118
  83.0192305  34.9120326  23.3537183  76.8921454  35.9106520  14.1638756
  76.7721079  36.3563570  15.0024237  76.1974042  36.2591837  13.6052295
  70.4828858  38.0112911  21.7138414  70.6121239  38.2647390  22.6277825
  69.8026310  38.6040619  21.3943069  74.6528346  48.6810161  17.8128888
  74.5752375  49.6317987  17.8917368  74.0489989  48.3356034  18.4703814
  84.9366356  32.6364820  24.3033231  84.2940736  32.9297353  23.6573026
  84.4321285  32.5217740  25.1086428  82.5906520  36.3827993  14.9919091
  83.5024376  36.6155380  14.8166788  82.0816167  36.9665037  14.4294169
  85.0765334  42.3008249  19.7377036  84.3916372  42.6807151  19.1874069
  85.1609183  42.9103576  20.4708984  79.9342494  32.5586029  23.2408951
  79.0726973  32.8567282  23.5325689  79.9604929  32.7756428  22.3089984
  76.7504064  41.1028219  19.6482757  77.2142409  41.3815922  18.8587380
  76.4860862  40.2011664  19.4655848  73.6428145  40.6499701  22.5862520
  74.2129502  41.0786969  21.9480005  74.2336257  40.3682286  23.2846706
  75.6872950  37.2251372  16.4572322  76.3896993  37.6772415  16.9246249
  75.3553578  36.5835191  17.0852215  69.4298284  35.4834924  21.7589456
  68.6397338  35.7392453  21.2829566  69.9209531  36.2983262  21.8641496
  71.3813029  35.8479504  18.7172932  70.5844193  35.9598198  19.2356428
  71.1538621  36.1866156  17.8513823  67.7135987  35.7365415  24.1904447
  67.9644025  36.6212425  24.4562023  68.2495535  35.5570016  23.4179538
  91.5368086  39.1678912  20.8579708  90.7831795  38.5986310  20.7023713
  91.6715628  39.1341577  21.8050343  76.9266715  44.0392314  16.5334427
  76.7912389  44.8843850  16.9619275  77.4676527  44.2411592  15.7700361
  70.3796112  41.5567752  17.1062353  70.8920632  42.3511003  17.2567917
  71.0318825  40.8594043  17.0395954  72.1890997  44.6733509  19.1885106
  72.3657625  45.5951473  19.0006090  72.9847830  44.3591928  19.6179485
  80.2759178  27.5622876  25.0633321  79.9323447  28.4524518  24.9872431
  80.6438141  27.3724534  24.2002906  68.3445029  39.8856407  17.8821923
  69.1820251  40.2953415  17.6655631  68.5223296  38.9455849  17.8522117
  80.2409461  37.5531487  13.5705756  79.7256084  38.3236092  13.8094143
  79.9686769  36.8796624  14.1938817  77.8256572  32.3981188  18.6290994
  76.9698168  32.0088039  18.4496633  78.2383524  32.4773149  17.7690780
  79.3555718  29.9327531  23.0282554  78.8520514  29.8957667  22.2150359
  79.6486325  30.8420274  23.0879211  75.5998604  30.0166261  22.0348736
  76.4651601  29.8209070  21.6754625  75.6676113  29.7876613  22.9618093
  85.2143735  40.3063842  15.5058929  84.4373178  39.9675002  15.0614092
  85.8935216  40.3116465  14.8313895  80.0295764  35.4258579  15.3965537
  79.7245900  35.7404729  16.2475680  80.9826206  35.5039999  15.4392870
  78.4742196  41.5848803  17.0458491  77.9463557  40.8501562  16.7331729
  77.9729699  42.3623479  16.7998460  73.2060923  32.2468469  19.4065103
  73.7804675  32.0243651  18.6738296  73.7931906  32.3157164  20.1593704
  73.5330511  34.2772930  13.4260988  72.6967823  34.6147617  13.7470263
  73.3935280  34.1421910  12.4888125  75.5083591  29.1209718  18.1340172
  74.8548003  28.8058735  17.5096787  75.4664065  28.4985458  18.8599995
  76.6194796  39.4029013  10.0493464  75.7121858  39.1718266  10.2484613
  77.1165828  38.6066632  10.2367446  79.5262875  48.1126520  12.9690150
  78.8524574  48.4158217  13.5775108  79.9128697  48.9155601  12.6195607
  78.7421332  35.6091652  22.4587820  77.8243893  35.8306599  22.3009508
  79.1581475  35.6837962  21.5999527  79.5256379  37.0083067  17.5890500
  80.2728198  37.5204464  17.2797622  79.7947969  36.6867120  18.4494894
  77.7983029  39.5041608  14.5717454  76.8894249  39.2200641  14.6689924
  77.8278113  39.9240686  13.7120761  83.0302297  43.1148197  18.3408622
  82.5764624  42.2739107  18.3973812  82.3996264  43.7509596  18.6783402
  81.9735216  34.0440183  19.5709289  81.2357973  33.5317570  19.9019532
  82.2261990  33.6040565  18.7592566  81.4735236  44.9524694  19.2758440
  81.7658210  45.5129751  18.5570806  81.9833857  45.2453255  20.0311599
  82.0746844  26.8216435  20.1651059  82.3805721  25.9613799  19.8776974
  82.7999449  27.4134056  19.9650052  68.3671200  37.2247122  18.5532657
  68.1695600  36.6316483  17.8283723  67.8117864  36.9199332  19.2708595
  76.3467923  37.1170229  20.6727250  76.4016533  36.1644065  20.5969726
  75.5359126  37.2729668  21.1568548  77.4959117  41.0450352  11.9105533
  77.0578547  40.3286211  11.4511170  78.2369558  41.2726466  11.3490624
  74.2860283  35.7347288  18.4317629  73.4728149  36.0341459  18.8382821
  74.7819278  35.3402977  19.1492111  76.4368861  45.7305045  20.3651893
  76.3945040  45.9565891  19.4360425  77.3531560  45.4968420  20.5137694
  85.6132232  39.3207549  17.9681851  85.4750131  39.5109145  17.0403041
  85.2568451  40.0826931  18.4249903  74.5534662  42.6068074  20.1613856
  75.3475261  42.1118394  19.9596431  73.8426354  42.0785937  19.7981561
  70.8617426  36.7511156  16.2373609  69.9315014  36.6895611  16.4543571
  70.9574898  36.2287109  15.4410250  70.7802975  33.2765969  18.8251850
  71.0409792  34.1911302  18.7161011  71.6020147  32.8090411  18.9748463
  77.7254090  48.2806193  15.1837230  77.9005846  47.8094236  15.9982852
  77.0386878  48.9071959  15.4118490  78.6811153  42.5578699  21.2300531
  78.3460986  42.5179469  22.1258181  78.1815099  41.8923415  20.7570941
  81.6170345  39.9034733  11.5037590  80.9999515  39.1781561  11.4070643
  81.1486833  40.6644094  11.1604665  72.2915175  51.4295555  21.9577090
  72.5311774  52.0614080  22.6356108  71.4484372  51.0783595  22.2442449
  73.4068891  34.1220158  10.6258895  72.5298357  34.0008958  10.2621141
  73.8826644  33.3306236  10.3737783  64.9271031  38.9097317  20.7200402
  65.6142071  38.5959047  20.1321417  64.7719160  39.8138682  20.4467653
  69.7305753  33.7987514  25.1485426  69.6463942  33.1913183  24.4135836
  68.9088459  34.2896532  25.1494922  76.8043037  47.2374678  24.3618594
  76.7313209  48.0429649  24.8737898  76.3620430  47.4366644  23.5366615
  76.5932817  46.4746448  17.8721415  75.8100339  47.0168128  17.9659640
  77.2925562  46.9920428  18.2715656  79.9029467  32.2841077  20.5155621
  80.3998166  31.5311040  20.1956691  79.1316448  32.3205394  19.9498830
  87.7559224  37.9881443  22.1573912  87.7449101  38.8706158  21.7867845
  86.8876604  37.6352994  21.9628449  80.9859248  41.0412765  18.0894044
  80.0515526  41.1614227  17.9198748  81.1635916  40.1385231  17.8254054
  76.4864436  34.4258460  20.2427305  76.1162223  33.8729501  20.9308211
  76.9823528  33.8216594  19.6902305  84.3731799  36.8830084  18.6244078
  84.8392251  37.7158075  18.5504381  84.8239299  36.4175065  19.3289337
  82.4408030  43.2273905  15.6230230  82.7167874  43.1130500  16.5324104
  81.5712529  42.8291390  15.5842403  82.3448462  29.2510671  22.6634980
  81.4311542  29.4814898  22.8317186  82.7741563  29.3349115  23.5149012
  79.0762094  47.4760256  19.2663044  79.2584489  46.6581912  19.7290796
  79.8995080  47.6927948  18.8287934  79.4104260  46.4028441  16.5278092
  79.9392026  45.8920896  15.9148254  79.6732479  46.0870971  17.3923625
  72.7660008  47.4543558  19.2875868  72.0970383  47.9389685  18.8039908
  72.6272877  47.7012778  20.2019247  64.5039007  36.9897911  22.9917869
  64.5423107  36.4561501  23.7854987  63.9979300  36.4633116  22.3728846
  71.8829769  31.8362451  26.4880411  71.9471096  32.6977282  26.0757809
  71.8196890  31.2236453  25.7552770  68.1347585  35.7162013  16.0671800
  68.4301026  34.8072691  16.0138854  67.2335620  35.6949752  15.7452803
  71.6641832  33.7918009  22.0499349  70.9428417  34.4053977  21.9106822
  72.4535087  34.3275774  21.9715995  69.8635426  33.3976110  16.1911126
  69.5348132  32.5173489  16.0086231  70.2174797  33.3423779  17.0787515
  79.1115005  45.0331013  20.7006111  78.9639967  44.1047721  20.8813681
  79.9368499  45.0551104  20.2163186  72.9777249  33.6849080  16.5586603
  73.3173322  34.2135001  15.8365212  73.4249370  34.0229486  17.3345170
  82.7149127  45.8559572  21.7870984  83.6395674  45.6502433  21.6495435
  82.5464430  45.6075973  22.6960325  76.3237162  29.1535443  24.4616994
  77.1463231  28.6795922  24.3395885  76.5675226  29.9325927  24.9615681
  74.9645397  32.1823702  14.7579896  75.6853759  32.5604955  14.2543613
  74.3410701  32.9012579  14.8614874  79.1076519  32.8868851  15.6938228
  79.3240134  33.7693489  15.3927056  78.6270587  32.4955064  14.9643870
  73.8475741  35.8454564  22.2708973  73.7020321  36.1594867  23.1633254
  73.3700944  36.4639464  21.7179872  75.7072124  32.8357112  22.3189862
  75.6933692  31.9398205  21.9822160  76.4244552  32.8427776  22.9528149
  82.5044443  46.3745239  17.1433075  82.6781321  45.8091662  16.3906928
  82.9973334  47.1746134  16.9612565  75.1109020  31.7171492  17.5877433
  75.2324931  30.7888138  17.7868320  74.8211062  31.7310178  16.6755748
  77.9800210  29.4026403  20.7244152  78.0021907  29.4665736  19.7696132
  78.3968269  28.5630911  20.9184659  88.3583834  39.1381662  18.7623375
  88.8014980  38.3888987  18.3642498  87.4810345  39.1291799  18.3797107
  83.4919616  45.6912004  14.2429974  84.1870520  46.3118696  14.4617288
  83.8342766  44.8407355  14.5182351  85.3911039  43.1411709  15.7717304
  85.9162363  43.4798982  15.0466624  85.3033391  42.2058725  15.5880439
  77.0751699  49.2083693  20.1312558  76.6356690  48.7160071  20.8245414
  77.8259816  48.6656660  19.8904633  69.5544038  45.3995233  20.1337186
  70.3802058  45.0999005  19.7535829  69.2038090  44.6302856  20.5826974
  74.5225572  44.7521702  22.2034859  73.9005581  44.0892407  21.9037087
  75.1930439  44.7782834  21.5208507  67.7552644  43.3181560  21.0926119
  66.9184552  42.8903734  20.9110120  67.7276289  43.5114003  22.0296910
  74.0839079  43.3025625  15.6793320  74.2327199  43.9861089  15.0259992
  74.8905522  43.2830715  16.1942775  87.9016699  40.6086901  21.1545823
  88.7363590  41.0476705  21.3183383  88.0375828  40.1325554  20.3354068
  71.8391712  39.3290803  16.6854389  71.5937753  38.4253133  16.8834599
  72.0087626  39.3307953  15.7433867  79.5288421  30.2014479  26.0679144
  80.0470365  30.9375506  25.7425633  79.1743554  30.5078472  26.9025903
  71.1087359  35.0619160  14.1840550  70.4156604  35.1363515  13.5280586
  70.8639111  34.2979504  14.7062067  79.7801016  26.6214762  21.5880041
  80.0602769  25.9537951  22.2140467  80.5651622  26.8143857  21.0754705
  77.5834484  45.7973755  13.1505067  77.0108451  46.4163943  12.6975539
  78.1567278  46.3473117  13.6844989  80.8031744  46.0810906  14.2813649
  81.7362417  46.0156467  14.4846525  80.7154957  46.9167172  13.8228182
  83.4319761  45.3976776  11.2417597  83.3533392  45.0636639  12.1353355
  84.2529427  45.8898544  11.2409069  77.9681283  37.1334568  10.4921120
  78.9140387  37.0040776  10.5609538  77.5895528  36.3949230  10.9690548
  83.9403167  28.7990574  20.4548011  83.7427988  28.4905662  21.3391343
  84.5502873  29.5252213  20.5845941  91.9474502  39.3254522  23.5899952
  92.6777890  39.0639810  24.1507656  91.3381447  38.5883244  23.6302020
  90.0289799  37.4662385  24.1874404  89.3022962  37.3318350  23.5790895
  89.6137086  37.7739213  24.9931122  76.1524200  35.0584545  10.4276005
  75.2455655  34.7617657  10.5038718  76.4300181  34.7614363   9.5610291
  67.0702140  36.3790908  20.8775051  66.7504924  35.5256216  20.5849425
  66.5235568  36.5939486  21.6333019  77.7686265  29.6021434  16.5820246
  76.9586994  29.2568519  16.9575492  78.4570682  29.2928978  17.1707858
  79.6976814  28.6799481  18.2044543  80.2507852  29.0994934  18.8634566
  79.9346900  27.7535229  18.2467499  74.9222984  31.9171480  10.5687984
  75.7842148  32.2426378  10.8283801  75.1073329  31.1302976  10.0561050
  66.9390400  39.9993819  22.8468173  66.2453872  39.5847772  22.3338127
  67.6863391  40.0414356  22.2501592  83.0755621  30.7900006  17.7123207
  82.4954290  31.4484810  17.3301259  82.8091554  29.9677351  17.3010625
  81.5259187  30.1905064  19.9144527  82.0258966  30.3021598  19.1058846
  82.1694795  29.8866117  20.5545336  68.8527143  39.9312073  20.7234188
  68.8297831  40.0299761  19.7716071  69.1627779  40.7777224  21.0451354
  81.8580499  32.9500097  16.7679555  80.9706354  33.2349747  16.5499750
  82.2734488  32.7893860  15.9206832  85.2095035  32.9746618  20.4833895
  85.9855425  33.4643070  20.7558511  84.4843169  33.4004672  20.9405764
  87.6467594  33.6874237  21.5407835  88.2412084  33.4469973  20.8301143
  87.7194177  32.9681367  22.1681371  69.8664749  47.5307848  21.8551000
  69.7319217  46.7708249  21.2888998  69.4496812  48.2548748  21.3879789
  81.0023712  42.7144771  10.8627575  81.7059562  42.9194774  11.4785231
  80.2786361  43.2821533  11.1276659  81.8321523  38.4654633  16.9829845
  81.7756724  38.9223184  16.1437478  82.3849865  37.7045317  16.8052688
  85.6426328  34.2544364  17.8079965  85.3863263  33.8541000  18.6388173
  85.0179197  34.9688158  17.6830104  89.9538666  36.9940438  20.3151256
  89.3938224  37.0633627  21.0882818  89.3482170  36.8181422  19.5950753
  73.0233875  48.4277165  22.0669443  72.9066259  49.3722597  21.9648133
  72.2026321  48.1250726  22.4555242  82.9110410  43.1527300  12.9126035
  83.7456014  42.7208499  12.7303510  82.7494753  42.9809314  13.8402930
  82.5656302  39.6559414  14.2782375  82.5105106  39.4903685  13.3370819
  81.9402357  40.3635447  14.4344564  75.8752427  29.1567523  13.8567693
  75.8631097  30.1009363  14.0135964  76.7675849  28.9737668  13.5627154
  75.8041991  47.8336413  21.9435450  74.8537622  47.8338275  21.8299822
  76.1074477  47.0869148  21.4271484  79.6904547  25.7510299  18.1113630
  78.9236943  25.1968786  18.2570312  80.1015252  25.8232168  18.9727781
  84.2071207  55.4759856  18.9339628  83.6436072  55.3849793  18.1655916
  84.0923602  54.6559761  19.4142120  81.7535639  56.9711048  21.7723848
  82.5456931  56.6301872  21.3570148  81.9932289  57.0806023  22.6926002
  89.7870766  59.1430824  14.2454093  89.1358745  59.7284904  13.8588106
  90.5815128  59.6737019  14.3049130  83.7126393  56.2319961  14.6441227
  84.4857269  55.6848948  14.5054103  84.0651792  57.0964210  14.8555688
  86.0492670  52.3912627  12.2759677  86.3018191  51.8694148  11.5143140
  85.1117230  52.2278773  12.3786361  91.0935953  51.3948405  20.0834420
  91.8799043  50.9767829  19.7324837  91.3574658  52.2994498  20.2516069
  91.2646031  56.8321256  14.7823077  90.6291864  56.9055882  15.4943982
  90.9343437  57.4214855  14.1042156  96.4944380  51.3323639  20.9867399
  97.2269552  50.7622855  21.2205228  95.7383736  50.9445239  21.4273904
  85.7688959  54.2940733  14.4784052  85.6525217  53.6185636  15.1465136
  85.8791219  53.8073107  13.6616205  88.1120500  53.7550880  18.1830741
  87.7478707  53.2281501  18.8943663  88.9687616  53.3649349  18.0097227
  94.0169801  45.0445213  25.4462007  93.6853126  45.9140624  25.2223222
  93.4215414  44.7281497  26.1256038  87.7525987  48.7840780  13.1792090
  87.9200389  49.6521016  13.5462561  87.5623156  48.9468062  12.2553379
  83.9613802  53.6971556  20.8794624  83.0364298  53.5647770  21.0872316
  84.2098215  54.4765775  21.3764567  93.9098464  49.7640299  22.5255357
  93.0015341  49.6955707  22.2314118  93.8586060  50.2412244  23.3537183
  87.7315208  51.2398437  14.1638756  87.6114833  51.6855488  15.0024237
  87.0367796  51.5883755  13.6052295  81.3222613  53.3404829  21.7138414
  81.4514994  53.5939308  22.6277825  80.6420064  53.9332537  21.3943069
  85.4922100  64.0102079  17.8128888  85.4146130  64.9609904  17.8917368
  84.8883744  63.6647952  18.4703814  95.7760110  47.9656737  24.3033231
  95.1334491  48.2589270  23.6573026  95.2715039  47.8509658  25.1086428
  93.4300274  51.7119911  14.9919091  94.3418130  51.9447297  14.8166788
  92.9209921  52.2956955  14.4294169  95.9159088  57.6300167  19.7377036
  95.2310127  58.0099068  19.1874069  96.0002938  58.2395493  20.4708984
  91.2171557  48.7321513  27.6595114  90.9732489  49.4863574  27.1229389
  91.4931488  49.1106861  28.4942361  90.7736249  47.8877946  23.2408951
  89.9120728  48.1859200  23.5325689  90.7998684  48.1048345  22.3089984
  87.5897818  56.4320137  19.6482757  88.0536164  56.7107840  18.8587380
  87.3254616  55.5303582  19.4655848  86.5266704  52.5543289  16.4572322
  87.2290748  53.0064333  16.9246249  86.1947333  51.9127108  17.0852215
  80.2692038  50.8126842  21.7589456  79.4791092  51.0684371  21.2829566
  80.7603286  51.6275180  21.8641496  82.2206784  51.1771421  18.7172932
  81.4237947  51.2890116  19.2356428  81.9932376  51.5158074  17.8513823
 102.3761841  54.4970830  20.8579708 101.6225549  53.9278228  20.7023713
 102.5109382  54.4633494  21.8050343  87.7660469  59.3684232  16.5334427
  87.6306144  60.2135768  16.9619275  88.3070282  59.5703510  15.7700361
  81.2189866  56.8859670  17.1062353  81.7314387  57.6802920  17.2567917
  81.8712579  56.1885961  17.0395954  83.0284751  60.0025426  19.1885106
  83.2051379  60.9243391  19.0006090  83.8241585  59.6883846  19.6179485
  91.1152933  42.8914794  25.0633321  90.7717202  43.7816436  24.9872431
  91.4831895  42.7016452  24.2002906  79.1838783  55.2148324  17.8821923
  80.0214005  55.6245333  17.6655631  79.3617051  54.2747767  17.8522117
  91.0803215  52.8823405  13.5705756  90.5649839  53.6528010  13.8094143
  90.8080524  52.2088541  14.1938817  88.6650326  47.7273106  18.6290994
  87.8091923  47.3379956  18.4496633  89.0777278  47.8065067  17.7690780
  90.1949473  45.2619449  23.0282554  89.6914269  45.2249584  22.2150359
  90.4880080  46.1712192  23.0879211  86.4392359  45.3458179  22.0348736
  87.3045356  45.1500987  21.6754625  86.5069868  45.1168531  22.9618093
  96.0537489  55.6355760  15.5058929  95.2766932  55.2966919  15.0614092
  96.7328970  55.6408383  14.8313895  90.8689518  50.7550497  15.3965537
  90.5639654  51.0696646  16.2475680  91.8219961  50.8331917  15.4392870
  89.3135950  56.9140720  17.0458491  88.7857312  56.1793480  16.7331729
  88.8123453  57.6915397  16.7998460  94.2928796  55.1089741  22.1625537
  93.6352471  55.7989002  22.2505666  95.0969196  55.4986173  22.5059524
  84.0454678  47.5760387  19.4065103  84.6198430  47.3535568  18.6738296
  84.6325660  47.6449081  20.1593704  93.1034255  53.4634114  20.2129479
  93.6166137  54.0964105  20.7151189  93.7535479  52.8635309  19.8472839
  84.3724265  49.6064848  13.4260988  83.5361577  49.9439534  13.7470263
  84.2329035  49.4713828  12.4888125  86.3477346  44.4501636  18.1340172
  85.6941758  44.1350653  17.5096787  86.3057820  43.8277376  18.8599995
  87.4588550  54.7320931  10.0493464  86.5515612  54.5010184  10.2484613
  87.9559582  53.9358550  10.2367446  90.3656629  63.4418438  12.9690150
  89.6918328  63.7450135  13.5775108  90.7522451  64.2447518  12.6195607
  90.3650134  52.3374985  17.5890500  91.1121953  52.8496382  17.2797622
  90.6341723  52.0159038  18.4494894  88.6376784  54.8333526  14.5717454
  87.7288003  54.5492558  14.6689924  88.6671868  55.2532604  13.7120761
  93.8696051  58.4440115  18.3408622  93.4158378  57.6031025  18.3973812
  93.2390018  59.0801513  18.6783402  92.8128971  49.3732101  19.5709289
  92.0751728  48.8609487  19.9019532  93.0655744  48.9332483  18.7592566
  92.3128991  60.2816612  19.2758440  92.6051965  60.8421669  18.5570806
  92.8227611  60.5745173  20.0311599  92.9140598  42.1508353  20.1651059
  93.2199475  41.2905717  19.8776974  93.6393203  42.7425973  19.9650052
  79.2064954  52.5539040  18.5532657  79.0089354  51.9608400  17.8283723
  78.6511618  52.2491250  19.2708595  88.3352872  56.3742269  11.9105533
  87.8972302  55.6578128  11.4511170  89.0763313  56.6018384  11.3490624
  85.1254038  51.0639206  18.4317629  84.3121903  51.3633376  18.8382821
  85.6213032  50.6694895  19.1492111  87.2762616  61.0596963  20.3651893
  87.2338795  61.2857809  19.4360425  88.1925315  60.8260337  20.5137694
  90.7228250  51.5281030  27.2632522  91.0777637  51.7552504  28.1226988
  91.3700381  51.8599407  26.6409778  96.4525987  54.6499466  17.9681851
  96.3143885  54.8401062  17.0403041  96.0962205  55.4118849  18.4249903
  96.4795366  56.7175993  22.9793123  96.9131873  56.6251282  23.8276177
  97.1926947  56.6933494  22.3413139  85.3928417  57.9359992  20.1613856
  86.1869015  57.4410312  19.9596431  84.6820109  57.4077855  19.7981561
  81.7011180  52.0803074  16.2373609  80.7708768  52.0187529  16.4543571
  81.7968652  51.5579026  15.4410250  81.6196729  48.6057886  18.8251850
  81.8803546  49.5203220  18.7161011  82.4413901  48.1382329  18.9748463
  97.3410916  56.7599694  25.5126008  97.5346806  57.6645504  25.7585283
  97.2411534  56.3007113  26.3464593  88.5647845  63.6098110  15.1837230
  88.7399600  63.1386154  15.9982852  87.8780633  64.2363877  15.4118490
  89.5204908  57.8870617  21.2300531  89.1854740  57.8471387  22.1258181
  89.0208853  57.2215332  20.7570941  92.4564099  55.2326651  11.5037590
  91.8393270  54.5073479  11.4070643  91.9880588  55.9936011  11.1604665
  83.1308930  66.7587473  21.9577090  83.3705528  67.3905997  22.6356108
  82.2878126  66.4075513  22.2442449  84.2462645  49.4512075  10.6258895
  83.3692112  49.3300876  10.2621141  84.7220398  48.6598154  10.3737783
  75.7664785  54.2389235  20.7200402  76.4535825  53.9250965  20.1321417
  75.6112914  55.1430600  20.4467653  87.4326571  61.8038366  17.8721415
  86.6494093  62.3460046  17.9659640  88.1319316  62.3212345  18.2715656
  90.7423221  47.6132995  20.5155621  91.2391921  46.8602957  20.1956691
  89.9710203  47.6497312  19.9498830  98.5952979  53.3173361  22.1573912
  98.5842855  54.1998076  21.7867845  97.7270358  52.9644911  21.9628449
  91.8253002  56.3704682  18.0894044  90.8909281  56.4906145  17.9198748
  92.0029671  55.4677149  17.8254054  95.2125553  52.2122002  18.6244078
  95.6786006  53.0449993  18.5504381  95.6633054  51.7466983  19.3289337
  93.2801785  58.5565823  15.6230230  93.5561628  58.4422417  16.5324104
  92.4106283  58.1583308  15.5842403  93.1842216  44.5802589  22.6634980
  92.2705296  44.8106815  22.8317186  93.6135318  44.6641033  23.5149012
  92.9548675  52.7692480  25.1634874  92.3020125  53.0168388  24.5087326
  93.3329055  51.9556619  24.8297351  89.9155849  62.8052174  19.2663044
  90.0978243  61.9873830  19.7290796  90.7388835  63.0219866  18.8287934
  90.2498014  61.7320359  16.5278092  90.7785780  61.2212813  15.9148254
  90.5126234  61.4162889  17.3923625  83.6053762  62.7835475  19.2875868
  82.9364137  63.2681603  18.8039908  83.4666632  63.0304696  20.2019247
  75.3432762  52.3189828  22.9917869  75.3816861  51.7853419  23.7854987
  74.8373054  51.7925034  22.3728846  78.9741339  51.0453930  16.0671800
  79.2694780  50.1364609  16.0138854  78.0729375  51.0241670  15.7452803
  90.8827418  62.7661195  22.8722209  90.7578557  61.9650934  22.3633154
  91.5406509  63.2607388  22.3836179  82.5035586  49.1209927  22.0499349
  81.7822172  49.7345895  21.9106822  83.2928842  49.6567692  21.9715995
  92.9462326  60.5670215  24.5001759  91.9992662  60.4475566  24.4280086
  93.2945099  59.6792713  24.5828020  80.7029181  48.7268028  16.1911126
  80.3741887  47.8465407  16.0086231  81.0568551  48.6715697  17.0787515
  89.9508760  60.3622931  20.7006111  89.8033722  59.4339638  20.8813681
  90.7762253  60.3843022  20.2163186  83.8171004  49.0140998  16.5586603
  84.1567076  49.5426919  15.8365212  84.2643124  49.3521404  17.3345170
  93.5542881  61.1851490  21.7870984  94.4789429  60.9794351  21.6495435
  93.3858185  60.9367891  22.6960325  85.8039151  47.5115619  14.7579896
  86.5247513  47.8896872  14.2543613  85.1804455  48.2304496  14.8614874
  89.9470274  48.2160768  15.6938228  90.1633888  49.0985406  15.3927056
  89.4664341  47.8246982  14.9643870  84.6869495  51.1746482  22.2708973
  84.5414076  51.4886785  23.1633254  84.2094699  51.7931382  21.7179872
  86.5465878  48.1649030  22.3189862  86.5327447  47.2690123  21.9822160
  87.2638306  48.1719693  22.9528149  88.3992009  48.5986370  24.3642990
  88.1409787  49.5203441  24.3627320  87.8677049  48.2016804  25.0543454
  93.3438198  61.7037157  17.1433075  93.5175075  61.1383579  16.3906928
  93.8367089  62.5038052  16.9612565  85.9502774  47.0463410  17.5877433
  86.0718685  46.1180056  17.7868320  85.6604816  47.0602096  16.6755748
  88.8193964  44.7318320  20.7244152  88.8415661  44.7957653  19.7696132
  89.2362023  43.8922829  20.9184659  99.1977589  54.4673580  18.7623375
  99.6408735  53.7180905  18.3642498  98.3204099  54.4583716  18.3797107
  94.3313370  61.0203921  14.2429974  95.0264275  61.6410614  14.4617288
  94.6736520  60.1699273  14.5182351  96.2304793  58.4703627  15.7717304
  96.7556117  58.8090900  15.0466624  96.1427146  57.5350642  15.5880439
  87.9145454  64.5375610  20.1312558  87.4750444  64.0451989  20.8245414
  88.6653571  63.9948578  19.8904633  80.3937793  60.7287151  20.1337186
  81.2195813  60.4290923  19.7535829  80.0431845  59.9594774  20.5826974
  78.5946398  58.6473478  21.0926119  77.7578306  58.2195652  20.9110120
  78.5670043  58.8405921  22.0296910  96.0396574  55.9528997  28.3901231
  96.0894579  55.7879004  29.3316754  95.9310498  55.0856256  27.9999112
  84.9232833  58.6317543  15.6793320  85.0720953  59.3153007  15.0259992
  85.7299276  58.6122633  16.1942775  98.7410453  55.9378818  21.1545823
  99.5757345  56.3768622  21.3183383  98.8769582  55.4617471  20.3354068
  95.7901959  53.4958553  27.1023310  96.2656081  53.6886199  26.2942162
  94.8667525  53.5517739  26.8566694  82.6785466  54.6582720  16.6854389
  82.4331508  53.7545050  16.8834599  82.8481381  54.6599871  15.7433867
  90.3682176  45.5306397  26.0679144  90.8864120  46.2667424  25.7425633
  90.0137309  45.8370390  26.9025903  81.9481114  50.3911078  14.1840550
  81.2550358  50.4655433  13.5280586  81.7032865  49.6271421  14.7062067
  90.6194770  41.9506679  21.5880041  90.8996524  41.2829868  22.2140467
  91.4045377  42.1435775  21.0754705  88.4228239  61.1265673  13.1505067
  87.8502206  61.7455860  12.6975539  88.9961032  61.6765035  13.6844989
  94.4903628  50.3724313  25.3351616  95.4421051  50.4722411  25.3563840
  94.3207079  49.5802582  25.8449700  92.5118008  47.4579896  25.5211017
  91.9167940  47.7384909  24.8257506  92.2267705  47.9473797  26.2927758
  91.6425498  61.4102823  14.2813649  92.5756171  61.3448385  14.4846525
  91.5548711  62.2459090  13.8228182  94.2713515  60.7268694  11.2417597
  94.1927147  60.3928557  12.1353355  95.0923182  61.2190461  11.2409069
  96.9691706  53.5930433  24.4493916  96.9368026  52.6546434  24.6353599
  97.5792330  53.6714470  23.7159740  88.8075037  52.4626486  10.4921120
  89.7534142  52.3332694  10.5609538  88.4289282  51.7241148  10.9690548
  97.1186195  50.3841476  24.4952199  96.6025243  49.5999933  24.3082128
  98.0026143  50.0560193  24.6598718  94.7796922  44.1282492  20.4548011
  94.5821743  43.8197580  21.3391343  95.3896627  44.8544131  20.5845941
 102.7868256  54.6546440  23.5899952 103.5171645  54.3931728  24.1507656
 102.1775202  53.9175162  23.6302020 100.8683553  52.7954302  24.1874404
 100.1416717  52.6610267  23.5790895 100.4530840  53.1031131  24.9931122
  86.9917954  50.3876462  10.4276005  86.0849410  50.0909575  10.5038718
  87.2693935  50.0906280   9.5610291  77.9095895  51.7082826  20.8775051
  77.5898679  50.8548134  20.5849425  77.3629323  51.9231404  21.6333019
  88.6080020  44.9313352  16.5820246  87.7980748  44.5860437  16.9575492
  89.2964437  44.6220896  17.1707858  90.5370568  44.0091399  18.2044543
  91.0901607  44.4286852  18.8634566  90.7740655  43.0827147  18.2467499
  85.7616739  47.2463397  10.5687984  86.6235903  47.5718296  10.8283801
  85.9467083  46.4594893  10.0561050  77.7784155  55.3285737  22.8468173
  77.0847626  54.9139690  22.3338127  78.5257146  55.3706274  22.2501592
  93.9149375  46.1191924  17.7123207  93.3348044  46.7776728  17.3301259
  93.6485308  45.2969269  17.3010625  92.3652942  45.5196982  19.9144527
  92.8652720  45.6313516  19.1058846  93.0088550  45.2158034  20.5545336
  79.6920897  55.2603991  20.7234188  79.6691585  55.3591678  19.7716071
  80.0021534  56.1069142  21.0451354  92.6974253  48.2792014  16.7679555
  91.8100108  48.5641665  16.5499750  93.1128242  48.1185778  15.9206832
  96.0488789  48.3038535  20.4833895  96.8249180  48.7934988  20.7558511
  95.3236924  48.7296589  20.9405764  98.4861348  49.0166154  21.5407835
  99.0805839  48.7761890  20.8301143  98.5587932  48.2973285  22.1681371
  80.7058504  62.8599765  21.8551000  80.5712972  62.1000166  21.2888998
  80.2890566  63.5840665  21.3879789  91.8417467  58.0436689  10.8627575
  92.5453317  58.2486691  11.4785231  91.1180116  58.6113451  11.1276659
  92.6715277  53.7946550  16.9829845  92.6150478  54.2515102  16.1437478
  93.2243620  53.0337235  16.8052688  96.4820083  49.5836282  17.8079965
  96.2257017  49.1832918  18.6388173  95.8572951  50.2980076  17.6830104
 100.7932421  52.3232355  20.3151256 100.2331979  52.3925545  21.0882818
 100.1875924  52.1473340  19.5950753  83.8627630  63.7569082  22.0669443
  83.7460014  64.7014515  21.9648133  83.0420076  63.4542644  22.4555242
  93.7504164  58.4819218  12.9126035  94.5849768  58.0500417  12.7303510
  93.5888507  58.3101232  13.8402930  93.4050056  54.9851331  14.2782375
  93.3498860  54.8195603  13.3370819  92.7796112  55.6927364  14.4344564
  86.7146182  44.4859440  13.8567693  86.7024852  45.4301280  14.0135964
  87.6069604  44.3029586  13.5627154  86.6435746  63.1628331  21.9435450
  85.6931377  63.1630192  21.8299822  86.9468232  62.4161065  21.4271484
  90.5298301  41.0802217  18.1113630  89.7630697  40.5260704  18.2570312
  90.9409006  41.1524086  18.9727781 102.3788439  68.9988869  23.0081212
 103.0166849  68.8795617  22.3044552 102.2609282  69.9469713  23.0669164
  99.1878146  68.9516297  22.9442737  98.8496657  68.8357362  22.0563272
 100.0567914  68.5507462  22.9243743  95.0464961  70.8051774  18.9339628
  94.4829826  70.7141711  18.1655916  94.9317356  69.9851678  19.4142120
  99.6697929  70.1051149  28.9028942  99.6586569  69.7103947  28.0309446
  99.8318568  69.3717222  29.4962714  92.5929393  72.3002965  21.7723848
  93.3850685  71.9593790  21.3570148  92.8326043  72.4097940  22.6926002
 100.6264520  74.4722741  14.2454093  99.9752500  75.0576822  13.8588106
 101.4208883  75.0028936  14.3049130  94.5520147  71.5611879  14.6441227
  95.3251023  71.0140866  14.5054103  94.9045546  72.4256128  14.8555688
  96.3905190  72.8888261  27.8508126  96.0995056  73.7933892  27.7354793
  97.0262174  72.9304789  28.5652196  97.3161397  70.2665109  24.4409486
  97.9124969  70.0421132  23.7266449  97.3736368  69.5249855  25.0434934
  96.8886425  67.7204545  12.2759677  97.1411946  67.1986066  11.5143140
  95.9510984  67.5570690  12.3786361 101.9329708  66.7240323  20.0834420
 102.7192797  66.3059746  19.7324837 102.1968412  67.6286415  20.2516069
 102.1039785  72.1613173  14.7823077 101.4685618  72.2347800  15.4943982
 101.7737192  72.7506772  14.1042156 107.3338135  66.6615556  20.9867399
 108.0663307  66.0914773  21.2205228 106.5777491  66.2737157  21.4273904
  96.6082714  69.6232651  14.4784052  96.4918972  68.9477554  15.1465136
  96.7184974  69.1365025  13.6616205  98.9514255  69.0842798  18.1830741
  98.5872462  68.5573419  18.8943663  99.8081371  68.6941267  18.0097227
 104.8563555  60.3737130  25.4462007 104.5246880  61.2432541  25.2223222
 104.2609169  60.0573414  26.1256038  98.5919742  64.1132698  13.1792090
  98.7594144  64.9812934  13.5462561  98.4016911  64.2759979  12.2553379
 101.3495075  72.5749676  24.8457920 101.0495798  73.4774715  24.7373727
 101.0046134  72.3081860  25.6979073  94.8007556  69.0263473  20.8794624
  93.8758053  68.8939687  21.0872316  95.0491969  69.8057693  21.3764567
 104.7492219  65.0932217  22.5255357 103.8409096  65.0247625  22.2314118
 104.6979814  65.5704162  23.3537183  98.5708962  66.5690355  14.1638756
  98.4508588  67.0147406  15.0024237  97.8761551  66.9175673  13.6052295
  92.1616367  68.6696747  21.7138414  92.2908748  68.9231226  22.6277825
  91.4813819  69.2624455  21.3943069  96.3315855  79.3393997  17.8128888
  96.2539884  80.2901822  17.8917368  95.7277498  78.9939869  18.4703814
 106.6153865  63.2948655  24.3033231 105.9728245  63.5881188  23.6573026
 106.1108794  63.1801575  25.1086428 104.2694029  67.0411828  14.9919091
 105.1811885  67.2739215  14.8166788 103.7603676  67.6248872  14.4294169
  97.0779457  69.3207316  30.0308222  97.8194141  69.8592360  29.7543045
  96.3716442  69.9473604  30.1879773 102.5534796  71.4636456  28.6280383
 102.9618152  71.0218867  27.8835015 101.8312058  70.8889084  28.8814576
  98.9065866  66.4009063  26.0013940  99.7527062  66.8248476  26.1448589
  98.8464504  65.7442687  26.6952503 102.8763611  72.0237647  22.3832672
 102.2472473  72.1883361  21.6808740 102.4889273  72.4379256  23.1543636
 106.7552843  72.9592085  19.7377036 106.0703881  73.3390986  19.1874069
 106.8396692  73.5687411  20.4708984 102.0565312  64.0613431  27.6595114
 101.8126244  64.8155492  27.1229389 102.3325242  64.4398779  28.4942361
 104.0103774  70.6052044  26.3372379 104.2220670  71.2483803  25.6606760
 103.9633523  69.7714360  25.8694309 101.6130003  63.2169864  23.2408951
 100.7514482  63.5151118  23.5325689 101.6392438  63.4340263  22.3089984
  98.4291573  71.7612055  19.6482757  98.8929918  72.0399758  18.8587380
  98.1648371  70.8595499  19.4655848  95.3215654  71.3083536  22.5862520
  95.8917011  71.7370805  21.9480005  95.9123766  71.0266121  23.2846706
  97.3660459  67.8835207  16.4572322  98.0684502  68.3356251  16.9246249
  97.0341087  67.2419026  17.0852215  91.1085793  66.1418760  21.7589456
  90.3184847  66.3976288  21.2829566  91.5997040  66.9567098  21.8641496
 105.1249602  73.4823999  24.5094737 105.9467046  73.0804186  24.2277418
 105.1212005  73.3792233  25.4610852  93.0600538  66.5063339  18.7172932
  92.2631701  66.6182033  19.2356428  92.8326130  66.8449991  17.8513823
  98.8906206  73.0308042  26.6655447  98.9550638  73.4928449  27.5013619
  98.1817130  72.4005407  26.7937757  89.3923496  66.3949250  24.1904447
  89.6431534  67.2796260  24.4562023  89.9283044  66.2153852  23.4179538
 113.2155595  69.8262747  20.8579708 112.4619304  69.2570145  20.7023713
 113.3503137  69.7925412  21.8050343  98.6054223  74.6976150  16.5334427
  98.4699898  75.5427685  16.9619275  99.1464036  74.8995427  15.7700361
  92.0583621  72.2151588  17.1062353  92.5708141  73.0094838  17.2567917
  92.7106334  71.5177878  17.0395954  93.8678506  75.3317344  19.1885106
  94.0445134  76.2535309  19.0006090  94.6635339  75.0175763  19.6179485
 100.2322700  75.3199716  30.6634770  99.7886554  74.5336095  30.3455674
 100.8939913  75.5078867  29.9978660  94.9909821  76.8495518  25.1895448
  95.5417246  76.7212581  24.4172442  94.1521297  77.1490407  24.8390341
 102.3303938  75.6002516  28.6916171 102.3122413  76.4211397  28.1996440
 103.2523858  75.4756591  28.9166312  98.7876992  73.1146646  29.5339679
  99.3205329  72.3534934  29.3038987  98.2591073  72.8220297  30.2763834
 101.9546687  58.2206712  25.0633321 101.6110956  59.1108353  24.9872431
 102.3225650  58.0308369  24.2002906  90.0232538  70.5440242  17.8821923
  90.8607760  70.9537250  17.6655631  90.2010805  69.6039684  17.8522117
 101.9196970  68.2115323  13.5705756 101.4043593  68.9819927  13.8094143
 101.6474278  67.5380459  14.1938817  99.5044081  63.0565023  18.6290994
  98.6485677  62.6671874  18.4496633  99.9171033  63.1356984  17.7690780
 101.0343227  60.5911367  23.0282554 100.5308023  60.5541502  22.2150359
 101.3273834  61.5004109  23.0879211  97.2786113  60.6750096  22.0348736
  98.1439110  60.4792905  21.6754625  97.3463622  60.4460448  22.9618093
 106.8931244  70.9647677  15.5058929 106.1160687  70.6258837  15.0614092
 107.5722725  70.9700301  14.8313895 101.7083273  66.0842415  15.3965537
 101.4033409  66.3988564  16.2475680 102.6613715  66.1623835  15.4392870
 100.1529705  72.2432638  17.0458491  99.6251066  71.5085398  16.7331729
  99.6517208  73.0207314  16.7998460 105.1322551  70.4381659  22.1625537
 104.4746225  71.1280920  22.2505666 105.9362950  70.8278091  22.5059524
  94.8848432  62.9052304  19.4065103  95.4592184  62.6827486  18.6738296
  95.4719415  62.9740999  20.1593704 103.9428010  68.7926031  20.2129479
 104.4559891  69.4256023  20.7151189 104.5929234  68.1927227  19.8472839
  95.2118020  64.9356765  13.4260988  94.3755332  65.2731452  13.7470263
  95.0722789  64.8005745  12.4888125  97.1871100  59.7793553  18.1340172
  96.5335512  59.4642570  17.5096787  97.1451574  59.1569294  18.8599995
  98.2982305  70.0612848  10.0493464  97.3909367  69.8302102  10.2484613
  98.7953337  69.2650468  10.2367446 100.4208840  66.2675487  22.4587820
  99.5031402  66.4890434  22.3009508 100.8368984  66.3421797  21.5999527
 101.2043888  67.6666903  17.5890500 101.9515707  68.1788300  17.2797622
 101.4735478  67.3450955  18.4494894  99.4770538  70.1625443  14.5717454
  98.5681758  69.8784476  14.6689924  99.5065622  70.5824522  13.7120761
 104.7089806  73.7732033  18.3408622 104.2552133  72.9322943  18.3973812
 104.0783773  74.4093431  18.6783402 103.6522725  64.7024019  19.5709289
 102.9145482  64.1901405  19.9019532 103.9049499  64.2624400  18.7592566
 103.1522745  75.6108529  19.2758440 103.4445719  76.1713587  18.5570806
 103.6621366  75.9037090  20.0311599 103.7534353  57.4800271  20.1651059
 104.0593230  56.6197634  19.8776974 104.4786958  58.0717891  19.9650052
  90.0458709  67.8830957  18.5532657  89.8483109  67.2900318  17.8283723
  89.4905373  67.5783168  19.2708595  98.0255432  67.7754064  20.6727250
  98.0804042  66.8227900  20.5969726  97.2146634  67.9313503  21.1568548
  99.1746626  71.7034187  11.9105533  98.7366056  70.9870046  11.4511170
  99.9157067  71.9310302  11.3490624  95.9647792  66.3931124  18.4317629
  95.1515658  66.6925294  18.8382821  96.4606787  65.9986812  19.1492111
  98.1156370  76.3888881  20.3651893  98.0732549  76.6149727  19.4360425
  99.0319069  76.1552255  20.5137694 101.5622004  66.8572948  27.2632522
 101.9171392  67.0844421  28.1226988 102.2094135  67.1891325  26.6409778
 107.2919741  69.9791384  17.9681851 107.1537640  70.1692980  17.0403041
 106.9355960  70.7410767  18.4249903 107.3189121  72.0467911  22.9793123
 107.7525627  71.9543200  23.8276177 108.0320701  72.0225411  22.3413139
  96.2322171  73.2651910  20.1613856  97.0262770  72.7702230  19.9596431
  95.5213863  72.7369773  19.7981561 101.0517016  75.6470005  24.5126224
 101.1054038  76.2160941  25.2803939 100.1831797  75.8171890  24.1480261
  92.5404935  67.4094991  16.2373609  91.6102523  67.3479447  16.4543571
  92.6362407  66.8870944  15.4410250  92.4590484  63.9349804  18.8251850
  92.7197301  64.8495137  18.7161011  93.2807656  63.4674247  18.9748463
 108.1804670  72.0891612  25.5126008 108.3740560  72.9937422  25.7585283
 108.0805288  71.6299031  26.3464593 103.2419779  72.2398354  31.0866889
 103.0905285  72.0108906  30.1696973 103.2324458  73.1968956  31.0998234
 100.0105115  69.8130267  26.0713155 100.9397175  69.9641427  25.8982123
  99.5896145  69.9014288  25.2161802  98.8093447  73.8380932  23.8411693
  98.6704533  73.4699716  24.7137631  98.0208043  74.3528571  23.6695651
  99.4041599  78.9390028  15.1837230  99.5793355  78.4678071  15.9982852
  98.7174387  79.5655794  15.4118490 100.3598662  73.2162534  21.2300531
 100.0248495  73.1763304  22.1258181  99.8602608  72.5507250  20.7570941
 103.2957854  70.5618569  11.5037590 102.6787024  69.8365397  11.4070643
 102.8274342  71.3227929  11.1604665  96.9625207  68.3350124  26.2436792
  97.6724825  67.6943316  26.2023410  96.9194515  68.5863018  27.1662972
 104.9511985  75.2717477  29.1643371 104.8924532  74.5876697  28.4973954
 105.3531504  76.0136467  28.7123997  93.9702684  82.0879391  21.9577090
  94.2099283  82.7197915  22.6356108  93.1271881  81.7367431  22.2442449
  95.0856400  64.7803993  10.6258895  94.2085866  64.6592794  10.2621141
  95.5614153  63.9890071  10.3737783 104.9529393  73.2357061  27.3957350
 104.0656172  72.8982983  27.5183749 105.5227944  72.5040092  27.6326116
  86.6058540  69.5681153  20.7200402  87.2929580  69.2542883  20.1321417
  86.4506669  70.4722517  20.4467653  98.4830546  77.8958513  24.3618594
  98.4100718  78.7013485  24.8737898  98.0407939  78.0950479  23.5366615
  98.2720326  77.1330283  17.8721415  97.4887848  77.6751963  17.9659640
  98.9713071  77.6504263  18.2715656 101.5816976  62.9424913  20.5155621
 102.0785675  62.1894875  20.1956691 100.8103957  62.9789229  19.9498830
 109.4346733  68.6465278  22.1573912 109.4236610  69.5289994  21.7867845
 108.5664113  68.2936829  21.9628449 100.9429230  77.7945347  26.5176752
 101.6557202  78.4292812  26.4452654 100.4519258  77.8909213  25.7016754
 102.6646757  71.6996600  18.0894044 101.7303035  71.8198062  17.9198748
 102.8423425  70.7969067  17.8254054  98.1651945  65.0842296  20.2427305
  97.7949732  64.5313336  20.9308211  98.6611037  64.4800429  19.6902305
 106.0519308  67.5413919  18.6244078 106.5179760  68.3741911  18.5504381
 106.5026808  67.0758901  19.3289337  95.9941143  75.5439791  27.3382323
  96.6950603  76.1776274  27.4911717  95.5236258  75.8854522  26.5777962
 104.1195539  73.8857740  15.6230230 104.3955383  73.7714335  16.5324104
 103.2500038  73.4875225  15.5842403 104.0235971  59.9094506  22.6634980
 103.1099050  60.1398733  22.8317186 104.4529072  59.9932950  23.5149012
 103.7942429  68.0984398  25.1634874 103.1413879  68.3460306  24.5087326
 104.1722809  67.2848536  24.8297351 100.7549603  78.1344091  19.2663044
 100.9371998  77.3165747  19.7290796 101.5782589  78.3511784  18.8287934
 101.0891769  77.0612276  16.5278092 101.6179535  76.5504731  15.9148254
 101.3519988  76.7454807  17.3923625  99.8430002  68.8404209  31.6500911
  99.1670639  68.7398339  32.3203286 100.6657636  68.6843423  32.1136908
  91.5908861  75.0776146  24.2713426  92.1762298  74.3319834  24.4041330
  91.3933700  75.3880102  25.1550090  94.4447516  78.1127393  19.2875868
  93.7757892  78.5973521  18.8039908  94.3060386  78.3596614  20.2019247
  86.1826516  67.6481746  22.9917869  86.2210616  67.1145337  23.7854987
  85.6766809  67.1216951  22.3728846  98.5852785  80.1471137  25.8858527
  99.1371093  80.3102758  26.6507612  98.9258979  80.7375574  25.2138551
 103.4363659  74.9732394  31.7407181 103.9803563  75.5862352  31.2462136
 102.8550504  75.5311973  32.2574194  89.8135094  66.3745848  16.0671800
  90.1088535  65.4656527  16.0138854  88.9123129  66.3533588  15.7452803
 101.7221172  78.0953112  22.8722209 101.5972312  77.2942852  22.3633154
 102.3800263  78.5899306  22.3836179  93.3429341  64.4501845  22.0499349
  92.6215926  65.0637812  21.9106822  94.1322596  64.9859610  21.9715995
 103.7856081  75.8962132  24.5001759 102.8386416  75.7767483  24.4280086
 104.1338854  75.0084630  24.5828020  91.5422935  64.0559946  16.1911126
  91.2135641  63.1757325  16.0086231  91.8962306  64.0007614  17.0787515
 100.7902514  75.6914848  20.7006111 100.6427476  74.7631556  20.8813681
 101.6156008  75.7134939  20.2163186  94.6564758  64.3432916  16.5586603
  94.9960831  64.8718837  15.8365212  95.1036879  64.6813322  17.3345170
 104.3936636  76.5143407  21.7870984 105.3183183  76.3086269  21.6495435
 104.2251939  76.2659808  22.6960325  98.0024671  59.8119279  24.4616994
  98.8250740  59.3379757  24.3395885  98.2462735  60.5909762  24.9615681
  96.6432905  62.8407537  14.7579896  97.3641268  63.2188790  14.2543613
  96.0198210  63.5596414  14.8614874 100.7864028  63.5452686  15.6938228
 101.0027643  64.4277324  15.3927056 100.3058096  63.1538900  14.9643870
  95.5263250  66.5038399  22.2708973  95.3807830  66.8178702  23.1633254
  95.0488453  67.1223300  21.7179872  97.3859633  63.4940947  22.3189862
  97.3721201  62.5982041  21.9822160  98.1032061  63.5011611  22.9528149
  99.2385763  63.9278288  24.3642990  98.9803541  64.8495358  24.3627320
  98.7070804  63.5308722  25.0543454 104.1831952  77.0329075  17.1433075
 104.3568830  76.4675497  16.3906928 104.6760843  77.8329970  16.9612565
  90.0008912  69.0443744  25.2096634  89.4562380  69.8203552  25.3416908
  90.8788262  69.3914548  25.0515756  96.7896529  62.3755328  17.5877433
  96.9112440  61.4471974  17.7868320  96.4998571  62.3894014  16.6755748
  99.6587719  60.0610238  20.7244152  99.6809416  60.1249571  19.7696132
 100.0755778  59.2214747  20.9184659 110.0371343  69.7965498  18.7623375
 110.4802489  69.0472823  18.3642498 109.1597854  69.7875634  18.3797107
 105.1707125  76.3495839  14.2429974 105.8658029  76.9702532  14.4617288
 105.5130275  75.4991190  14.5182351 107.0698548  73.7995545  15.7717304
 107.5949872  74.1382817  15.0466624 106.9820900  72.8642560  15.5880439
  98.7318596  77.7129618  27.9007181  99.0405723  77.4678765  28.7729881
  99.5294078  77.9176257  27.4126051  98.7539208  79.8667528  20.1312558
  98.3144199  79.3743907  20.8245414  99.5047325  79.3240496  19.8904633
  91.2331547  76.0579069  20.1337186  92.0589567  75.7582841  19.7535829
  90.8825599  75.2886691  20.5826974  96.2013081  75.4105537  22.2034859
  95.5793090  74.7476242  21.9037087  96.8717948  75.4366669  21.5208507
  89.4340152  73.9765395  21.0926119  88.5972061  73.5487570  20.9110120
  89.4063798  74.1697839  22.0296910 106.7592454  74.4328448  31.0768502
 105.9687997  74.4152587  30.5373002 106.5225808  74.9716742  31.8317539
 106.8790329  71.2820915  28.3901231 106.9288334  71.1170922  29.3316754
 106.7704252  70.4148174  27.9999112  95.7626588  73.9609460  15.6793320
  95.9114708  74.6444925  15.0259992  96.5693031  73.9414550  16.1942775
 104.1694091  67.2651843  29.7060538 105.0703954  67.1258308  29.4144535
 104.2442066  67.4306297  30.6458715 108.3808526  73.7017856  28.6343252
 108.0893334  74.0647837  29.4706713 107.7680657  72.9884864  28.4556584
 109.5804208  71.2670736  21.1545823 110.4151099  71.7060540  21.3183383
 109.7163337  70.7909389  20.3354068 106.6295714  68.8250471  27.1023310
 107.1049835  69.0178117  26.2942162 105.7061279  68.8809657  26.8566694
  93.5179220  69.9874638  16.6854389  93.2725262  69.0836968  16.8834599
  93.6875135  69.9891788  15.7433867 101.2075930  60.8598314  26.0679144
 101.7257874  61.5959341  25.7425633 100.8531063  61.1662308  26.9025903
  92.7874868  65.7202996  14.1840550  92.0944113  65.7947351  13.5280586
  92.5426620  64.9563339  14.7062067 101.4588525  57.2798597  21.5880041
 101.7390278  56.6121786  22.2140467 102.2439131  57.4727692  21.0754705
  99.2621993  76.4557591  13.1505067  98.6895960  77.0747778  12.6975539
  99.8354787  77.0056952  13.6844989 105.3297383  65.7016231  25.3351616
 106.2814806  65.8014329  25.3563840 105.1600833  64.9094499  25.8449700
 103.3511762  62.7871814  25.5211017 102.7561694  63.0676827  24.8257506
 103.0661459  63.2765715  26.2927758 102.4819253  76.7394741  14.2813649
 103.4149926  76.6740303  14.4846525 102.3942466  77.5751008  13.8228182
 107.8085461  68.9222351  24.4493916 107.7761781  67.9838351  24.6353599
 108.4186084  69.0006387  23.7159740  99.6468792  67.7918404  10.4921120
 100.5927896  67.6624612  10.5609538  99.2683036  67.0533065  10.9690548
 107.9579949  65.7133394  24.4952199 107.4418998  64.9291851  24.3082128
 108.8419898  65.3852111  24.6598718 105.6190676  59.4574410  20.4548011
 105.4215497  59.1489498  21.3391343 106.2290382  60.1836048  20.5845941
 113.6262011  69.9838357  23.5899952 114.3565399  69.7223646  24.1507656
 113.0168956  69.2467079  23.6302020 111.7077308  68.1246220  24.1874404
 110.9810471  67.9902185  23.5790895 111.2924595  68.4323049  24.9931122
  99.5307484  71.8436150  31.9521777 100.4510494  72.0214749  32.1461823
  99.4957067  70.8992195  31.8001476  97.8311709  65.7168380  10.4276005
  96.9243164  65.4201493  10.5038718  98.1087690  65.4198198   9.5610291
  88.7489649  67.0374743  20.8775051  88.4292433  66.1840052  20.5849425
  88.2023077  67.2523321  21.6333019  92.5269557  69.7537184  24.5944558
  92.7455566  70.6854292  24.6132592  92.9395330  69.3945159  25.3799362
  99.4473774  60.2605270  16.5820246  98.6374503  59.9152355  16.9575492
 100.1358191  59.9512813  17.1707858 101.3764323  59.3383316  18.2044543
 101.9295361  59.7578770  18.8634566 101.6134409  58.4119065  18.2467499
  96.6010493  62.5755315  10.5687984  97.4629657  62.9010213  10.8283801
  96.7860837  61.7886811  10.0561050  88.6177909  70.6577655  22.8468173
  87.9241381  70.2431608  22.3338127  89.3650900  70.6998191  22.2501592
 104.7543130  61.4483842  17.7123207 104.1741799  62.1068646  17.3301259
 104.4879062  60.6261186  17.3010625 103.2046696  60.8488899  19.9144527
 103.7046475  60.9605434  19.1058846 103.8482304  60.5449952  20.5545336
  90.5314652  70.5895909  20.7234188  90.5085340  70.6883596  19.7716071
  90.8415288  71.4361059  21.0451354  93.1902029  72.6472064  24.8380802
  94.1445283  72.6156006  24.7710734  92.9914553  72.1862687  25.6531028
  93.7801412  71.2173180  27.4051600  94.5994301  71.7117258  27.4286437
  94.0538219  70.3005148  27.3769167 103.5368008  63.6083932  16.7679555
 102.6493863  63.8933583  16.5499750 103.9521997  63.4477695  15.9206832
 106.8882544  63.6330453  20.4833895 107.6642934  64.1226905  20.7558511
 106.1630678  64.0588507  20.9405764 109.3255103  64.3458072  21.5407835
 109.9199593  64.1053808  20.8301143 109.3981686  63.6265203  22.1681371
  91.5452258  78.1891683  21.8551000  91.4106726  77.4292084  21.2888998
  91.1284321  78.9132583  21.3879789 102.6811221  73.3728607  10.8627575
 103.3847071  73.5778609  11.4785231 101.9573870  73.9405369  11.1276659
 103.5109032  69.1238468  16.9829845 103.4544233  69.5807019  16.1437478
 104.0637374  68.3629153  16.8052688 107.3213837  64.9128200  17.8079965
 107.0650772  64.5124835  18.6388173 106.6966706  65.6271994  17.6830104
 111.6326175  67.6524273  20.3151256 111.0725733  67.7217462  21.0882818
 111.0269679  67.4765258  19.5950753  94.7021384  79.0861000  22.0669443
  94.5853768  80.0306433  21.9648133  93.8813830  78.7834562  22.4555242
 104.5897919  73.8111136  12.9126035 105.4243523  73.3792334  12.7303510
 104.4282262  73.6393150  13.8402930 104.2443811  70.3143249  14.2782375
 104.1892615  70.1487521  13.3370819 103.6189866  71.0219282  14.4344564
 101.5589718  72.6192161  33.6035937 102.4280878  72.7932813  33.2422572
 101.0796470  73.4386578  33.4811667  97.5539936  59.8151358  13.8567693
  97.5418606  60.7593198  14.0135964  98.4463358  59.6321504  13.5627154
  95.7275898  79.7389262  25.2825371  96.6303145  79.7712872  25.5991866
  95.5013268  78.8089713  25.2971707  97.4829500  78.4920249  21.9435450
  96.5325131  78.4922110  21.8299822  97.7861986  77.7452983  21.4271484
 101.3692056  56.4094135  18.1113630 100.6024452  55.8552621  18.2570312
 101.7802761  56.4816004  18.9727781 113.2182194  84.3280787  23.0081212
 113.8560604  84.2087534  22.3044552 113.1003037  85.2761631  23.0669164
 110.0271900  84.2808215  22.9442737 109.6890412  84.1649280  22.0563272
 110.8961668  83.8799380  22.9243743 110.5091683  85.4343067  28.9028942
 110.4980324  85.0395865  28.0309446 110.6712323  84.7009139  29.4962714
 103.4323148  87.6294883  21.7723848 104.2244440  87.2885708  21.3570148
 103.6719798  87.7389858  22.6926002 107.2298944  88.2180179  27.8508126
 106.9388810  89.1225809  27.7354793 107.8655929  88.2596706  28.5652196
 108.1555151  85.5957027  24.4409486 108.7518723  85.3713050  23.7266449
 108.2130123  84.8541773  25.0434934 112.7723462  82.0532241  20.0834420
 113.5586551  81.6351664  19.7324837 113.0362167  82.9578333  20.2516069
 115.6957310  75.7029048  25.4462007 115.3640635  76.5724459  25.2223222
 115.1002923  75.3865332  26.1256038 112.1888829  87.9041594  24.8457920
 111.8889552  88.8066633  24.7373727 111.8439889  87.6373777  25.6979073
 105.6401311  84.3555391  20.8794624 104.7151807  84.2231605  21.0872316
 105.8885724  85.1349610  21.3764567 115.5885973  80.4224134  22.5255357
 114.6802850  80.3539543  22.2314118 115.5373569  80.8996079  23.3537183
 103.0010122  83.9988664  21.7138414 103.1302503  84.2523143  22.6277825
 102.3207573  84.5916372  21.3943069 109.6626839  81.8413780  30.4690255
 108.8860173  82.4007700  30.4593119 110.3017402  82.3270563  30.9905125
 117.4547619  78.6240573  24.3033231 116.8122000  78.9173106  23.6573026
 116.9502548  78.5093493  25.1086428 107.9173211  84.6499233  30.0308222
 108.6587896  85.1884277  29.7543045 107.2110197  85.2765522  30.1879773
 113.3928551  86.7928374  28.6280383 113.8011907  86.3510784  27.8835015
 112.6705812  86.2181001  28.8814576 109.7459621  81.7300980  26.0013940
 110.5920816  82.1540394  26.1448589 109.6858259  81.0734605  26.6952503
 112.8959066  79.3905349  27.6595114 112.6519998  80.1447409  27.1229389
 113.1718997  79.7690696  28.4942361 114.8497529  85.9343961  26.3372379
 115.0614424  86.5775721  25.6606760 114.8027277  85.1006278  25.8694309
 112.4523758  78.5461782  23.2408951 111.5908237  78.8443035  23.5325689
 112.4786193  78.7632181  22.3089984 106.1609408  86.6375454  22.5862520
 106.7310765  87.0662722  21.9480005 106.7517520  86.3558039  23.2846706
 106.6534575  81.8038881  30.8323532 106.0233235  82.4855162  31.0658928
 106.5470663  81.6921963  29.8876670 101.9479547  81.4710677  21.7589456
 101.1578601  81.7268206  21.2829566 102.4390795  82.2859015  21.8641496
 103.8994293  81.8355257  18.7172932 103.1025456  81.9473951  19.2356428
 103.6719885  82.1741909  17.8513823 109.7299960  88.3599960  26.6655447
 109.7944393  88.8220367  27.5013619 109.0210884  87.7297325  26.7937757
 100.2317250  81.7241168  24.1904447 100.4825289  82.6088178  24.4562023
 100.7676799  81.5445769  23.4179538 105.9315318  76.1059647  33.1948783
 105.5382263  75.5525846  33.8696427 106.7481458  76.4170226  33.5855300
 108.8483279  77.5217526  30.7869039 109.5892992  78.1224679  30.7073502
 109.0801201  76.7795164  30.2287082 103.9924617  82.7073894  29.0647269
 103.8778132  81.8059151  29.3654368 103.1369134  82.9537590  28.7132085
 111.0716454  90.6491634  30.6634770 110.6280309  89.8628012  30.3455674
 111.7333668  90.8370784  29.9978660 105.8303576  92.1787436  25.1895448
 106.3811001  92.0504499  24.4172442 104.9915051  92.4782325  24.8390341
 113.1697692  90.9294434  28.6916171 113.1516168  91.7503315  28.1996440
 114.0917612  90.8048509  28.9166312 109.6270747  88.4438563  29.5339679
 110.1599083  87.6826852  29.3038987 109.0984828  88.1512215  30.2763834
 112.7940442  73.5498629  25.0633321 112.4504711  74.4400271  24.9872431
 113.1619404  73.3600287  24.2002906 100.8626292  85.8732160  17.8821923
 101.7001514  86.2829168  17.6655631 101.0404560  84.9331602  17.8522117
 110.3437835  78.3856941  18.6290994 109.4879432  77.9963792  18.4496633
 110.7564787  78.4648902  17.7690780 111.8736982  75.9203284  23.0282554
 111.3701778  75.8833420  22.2150359 112.1667589  76.8296027  23.0879211
 108.1179868  76.0042014  22.0348736 108.9832865  75.8084823  21.6754625
 108.1857377  75.7752366  22.9618093 105.7242187  78.2344222  19.4065103
 106.2985939  78.0119404  18.6738296 106.3113169  78.3032917  20.1593704
 108.0264855  75.1085471  18.1340172 107.3729267  74.7934488  17.5096787
 107.9845329  74.4861211  18.8599995 111.2602595  81.5967405  22.4587820
 110.3425156  81.8182352  22.3009508 111.6762739  81.6713715  21.5999527
 114.5928107  72.8092188  20.1651059 114.8986984  71.9489552  19.8776974
 115.3180712  73.4009809  19.9650052 100.8852463  83.2122875  18.5532657
 100.6876863  82.6192236  17.8283723 100.3299127  82.9075085  19.2708595
 108.8649187  83.1045982  20.6727250 108.9197797  82.1519818  20.5969726
 108.0540389  83.2605421  21.1568548 106.8041547  81.7223041  18.4317629
 105.9909412  82.0217212  18.8382821 107.3000541  81.3278730  19.1492111
 112.4015759  82.1864866  27.2632522 112.7565146  82.4136339  28.1226988
 113.0487890  82.5183243  26.6409778 106.2955622  79.2941397  24.0478863
 106.9355001  79.1530156  23.3501827 105.4633152  79.0075910  23.6717465
 111.8910770  90.9761923  24.5126224 111.9447792  91.5452859  25.2803939
 111.0225551  91.1463808  24.1480261 103.2984238  79.2641722  18.8251850
 103.5591055  80.1787055  18.7161011 104.1201410  78.7966164  18.9748463
 104.7709163  80.6779479  25.9950675 105.4432217  80.4696841  25.3463324
 103.9438950  80.4801565  25.5555907 110.6734735  77.3041420  28.0116336
 110.0262650  78.0031370  27.9180812 111.4435751  77.7377564  28.3792584
 114.0813533  87.5690272  31.0866889 113.9299040  87.3400824  30.1696973
 114.0718213  88.5260873  31.0998234 110.8498870  85.1422185  26.0713155
 111.7790930  85.2933344  25.8982123 110.4289900  85.2306206  25.2161802
 109.6487202  89.1672849  23.8411693 109.5098287  88.7991634  24.7137631
 108.8601798  89.6820489  23.6695651 105.1736661  83.9522082  26.7553112
 105.0356459  83.2202321  27.3564651 106.0841584  83.8630982  26.4737300
 107.8018961  83.6642041  26.2436792 108.5118580  83.0235233  26.2023410
 107.7588269  83.9154936  27.1662972 115.7905740  90.6009395  29.1643371
 115.7318286  89.9168615  28.4973954 116.1925258  91.3428385  28.7123997
 106.5147895  80.6507259  28.0632431 105.9785252  80.1997998  28.7154027
 105.9264604  80.7853168  27.3202895 115.7923147  88.5648979  27.3957350
 114.9049926  88.2274900  27.5183749 116.3621698  87.8332010  27.6326116
  97.4452294  84.8973070  20.7200402  98.1323334  84.5834800  20.1321417
  97.2900423  85.8014435  20.4467653 102.2487017  79.7863267  25.1485426
 102.1645205  79.1788936  24.4135836 101.4269723  80.2772285  25.1494922
 112.4210730  78.2716830  20.5155621 112.9179430  77.5186793  20.1956691
 111.6497712  78.3081147  19.9498830 111.7822984  93.1237265  26.5176752
 112.4950956  93.7584730  26.4452654 111.2913013  93.2201131  25.7016754
 109.0045699  80.4134213  20.2427305 108.6343487  79.8605254  20.9308211
 109.5004792  79.8092347  19.6902305 106.8334898  90.8731708  27.3382323
 107.5344357  91.5068191  27.4911717 106.3630013  91.2146440  26.5777962
 114.8629725  75.2386424  22.6634980 113.9492805  75.4690651  22.8317186
 115.2922827  75.3224868  23.5149012 114.6336184  83.4276316  25.1634874
 113.9807634  83.6752223  24.5087326 115.0116564  82.6140454  24.8297351
 110.6823757  84.1696127  31.6500911 110.0064394  84.0690256  32.3203286
 111.5051391  84.0135341  32.1136908 102.4302616  90.4068063  24.2713426
 103.0156053  89.6611751  24.4041330 102.2327454  90.7172020  25.1550090
  97.0220271  82.9773664  22.9917869  97.0604370  82.4437254  23.7854987
  96.5160563  82.4508869  22.3728846 104.4011033  77.8238204  26.4880411
 104.4652359  78.6853035  26.0757809 104.3378153  77.2112206  25.7552770
 103.8763305  79.8961337  30.1353446 104.5035344  79.5138414  30.7490970
 103.0191224  79.6775539  30.5009138 114.2757414  90.3024312  31.7407181
 114.8197318  90.9154270  31.2462136 113.6944259  90.8603890  32.2574194
 100.6528848  81.7037766  16.0671800 100.9482289  80.7948444  16.0138854
  99.7516884  81.6825505  15.7452803 104.1823095  79.7793762  22.0499349
 103.4609681  80.3929730  21.9106822 104.9716351  80.3151527  21.9715995
 106.9849409  77.1148189  28.3240001 107.5083810  77.3610485  29.0866310
 106.7661742  77.9468224  27.9043138 102.3816690  79.3851863  16.1911126
 102.0529396  78.5049242  16.0086231 102.7356060  79.3299532  17.0787515
 105.4958513  79.6724833  16.5586603 105.8354585  80.2010755  15.8365212
 105.9430633  80.0105239  17.3345170 108.1901954  78.0561884  26.0089671
 107.8498774  77.2569697  26.4110351 107.4840960  78.3563595  25.4366504
 108.8418425  75.1411196  24.4616994 109.6644495  74.6671675  24.3395885
 109.0856489  75.9201680  24.9615681 106.3657004  81.8330317  22.2708973
 106.2201585  82.1470620  23.1633254 105.8882208  82.4515217  21.7179872
 108.2253387  78.8232865  22.3189862 108.2114956  77.9273958  21.9822160
 108.9425815  78.8303529  22.9528149 110.0779518  79.2570205  24.3642990
 109.8197296  80.1787276  24.3627320 109.5464558  78.8600640  25.0543454
 100.8402666  84.3735661  25.2096634 100.2956134  85.1495469  25.3416908
 101.7182016  84.7206466  25.0515756 107.6290283  77.7047245  17.5877433
 107.7506194  76.7763891  17.7868320 107.3392325  77.7185931  16.6755748
 110.4981473  75.3902156  20.7244152 110.5203170  75.4541489  19.7696132
 110.9149532  74.5506664  20.9184659 101.6268688  83.5005558  28.1026791
 100.8850424  83.6488193  28.6891421 101.3061433  83.7613823  27.2393540
 109.5712351  93.0421536  27.9007181 109.8799477  92.7970683  28.7729881
 110.3687833  93.2468174  27.4126051 100.2733907  89.3057313  21.0926119
  99.4365815  88.8779487  20.9110120 100.2457552  89.4989756  22.0296910
 107.1131363  79.2179243  31.7967365 107.1619518  80.0941365  31.4145135
 107.6553877  78.6756636  31.2239008 117.5986208  89.7620366  31.0768502
 116.8081752  89.7444505  30.5373002 117.3619563  90.3008660  31.8317539
 117.7184083  86.6112832  28.3901231 117.7682088  86.4462840  29.3316754
 117.6098007  85.7440091  27.9999112 115.0087846  82.5943760  29.7060538
 115.9097708  82.4550225  29.4144535 115.0835820  82.7598215  30.6458715
 109.3430651  79.9710615  28.5513724 108.4733960  80.2644181  28.2796312
 109.5790131  80.5551060  29.2720988 119.2202280  89.0309774  28.6343252
 118.9287088  89.3939754  29.4706713 118.6074411  88.3176782  28.4556584
 117.4689468  84.1542388  27.1023310 117.9443590  84.3470035  26.2942162
 116.5455034  84.2101574  26.8566694 112.0469685  76.1890232  26.0679144
 112.5651629  76.9251259  25.7425633 111.6924818  76.4954225  26.9025903
 112.2982279  72.6090515  21.5880041 112.5784033  71.9413704  22.2140467
 113.0832886  72.8019610  21.0754705 116.1691137  81.0308149  25.3351616
 117.1208560  81.1306246  25.3563840 115.9994588  80.2386417  25.8449700
 114.1905517  78.1163732  25.5211017 113.5955449  78.3968744  24.8257506
 113.9055214  78.6057633  26.2927758 118.6479215  84.2514268  24.4493916
 118.6155535  83.3130269  24.6353599 119.2579839  84.3298305  23.7159740
 118.7973704  81.0425312  24.4952199 118.2812752  80.2583768  24.3082128
 119.6813652  80.7144028  24.6598718 116.4584431  74.7866327  20.4548011
 116.2609252  74.4781415  21.3391343 117.0684136  75.5127966  20.5845941
 110.3701239  87.1728067  31.9521777 111.2904248  87.3506666  32.1461823
 110.3350822  86.2284113  31.8001476  99.5883404  82.3666661  20.8775051
  99.2686188  81.5131969  20.5849425  99.0416832  82.5815239  21.6333019
 103.3663311  85.0829102  24.5944558 103.5849321  86.0146210  24.6132592
 103.7789085  84.7237076  25.3799362 110.2867529  75.5897187  16.5820246
 109.4768257  75.2444272  16.9575492 110.9751946  75.2804731  17.1707858
 112.2158077  74.6675234  18.2044543 112.7689116  75.0870688  18.8634566
 112.4528164  73.7410982  18.2467499 108.2391176  80.6562308  33.9847307
 108.1387903  81.6056665  33.9159398 108.0212718  80.3280547  33.1123377
  99.4571664  85.9869572  22.8468173  98.7635135  85.5723525  22.3338127
 100.2044655  86.0290109  22.2501592 114.0440451  76.1780817  19.9144527
 114.5440229  76.2897352  19.1058846 114.6876059  75.8741870  20.5545336
 108.1022446  84.0859447  32.8012368 107.6189528  84.8859807  33.0076257
 108.1883386  84.0967391  31.8479812 101.3708406  85.9187826  20.7234188
 101.3479094  86.0175514  19.7716071 101.6809043  86.7652977  21.0451354
 104.0295784  87.9763981  24.8380802 104.9839038  87.9447924  24.7710734
 103.8308308  87.5154605  25.6531028 104.6195166  86.5465097  27.4051600
 105.4388055  87.0409176  27.4286437 104.8931974  85.6297065  27.3769167
 117.7276298  78.9622371  20.4833895 118.5036689  79.4518823  20.7558511
 117.0024433  79.3880425  20.9405764  99.8730080  80.8803231  28.1043797
 100.5188944  80.3702185  28.5931022  99.6647231  81.6171913  28.6787222
 112.3983473  87.9484079  33.6035937 113.2674632  88.1224731  33.2422572
 111.9190224  88.7678496  33.4811667 106.5669653  95.0681180  25.2825371
 107.4696899  95.1004790  25.5991866 106.3407023  94.1381631  25.2971707
 112.2085810  71.7386052  18.1113630 111.4418206  71.1844539  18.2570312
 112.6196515  71.8107921  18.9727781 104.2127571  78.0270848  32.2018811
 105.0759033  77.6707653  32.4122136 103.6392982  77.6884743  32.8894215
 116.7709072  91.4351565  33.1948783 116.3776018  90.8817763  33.8696427
 117.5875212  91.7462143  33.5855300 119.6877033  92.8509444  30.7869039
 120.4286746  93.4516597  30.7073502 119.9194956  92.1087082  30.2287082
 114.7157060  95.2253254  30.1353446 115.3429099  94.8430332  30.7490970
 113.8584979  95.0067456  30.5009138 117.9525117  94.5471160  31.7967365
 118.0013273  95.4233283  31.4145135 118.4947631  94.0048553  31.2239008
 119.0784931  95.9854225  33.9847307 118.9781658  96.9348582  33.9159398
 118.8606473  95.6572464  33.1123377 110.7123835  96.2095149  28.1043797
 111.3582698  95.6994103  28.5931022 110.5040986  96.9463831  28.6787222
 115.0521326  93.3562766  32.2018811 115.9152787  92.9999571  32.4122136
 114.4786736  93.0176661  32.8894215  67.7141438   6.3386086  17.3880076
  67.2705292   5.5522464  17.0700981  68.3758651   6.5265236  16.7223967
  69.8122676   6.6188886  15.4161477  69.7941151   7.4397767  14.9241747
  70.7342596   6.4942961  15.6411619  70.7238517   3.2584724  17.8112196
  70.5724023   3.0295276  16.8942279  70.7143196   4.2155325  17.8243541
  72.4330723   6.2903846  15.8888677  72.3743269   5.6063067  15.2219260
  72.8350242   7.0322837  15.4369303  70.9182397   5.9918764  18.4652488
  71.4622301   6.6048722  17.9707442  70.3369242   6.5498342  18.9819501
  74.2411192   5.4514818  17.8013809  73.4506735   5.4338957  17.2618308
  74.0044546   5.9903112  18.5562846  75.8627263   4.7204226  15.3588559
  75.5712072   5.0834206  16.1952020  75.2499395   4.0071234  15.1801891
  69.0408456   3.6378531  20.3281244  69.9099615   3.8119183  19.9667879
  68.5615207   4.4572947  20.2056973  80.7000932  15.3467157   9.7326519
  81.3379342  15.2273904   9.0289859  80.5821774  16.2948000   9.7914471
  77.5090638  15.2994585   9.6688043  77.1709149  15.1835649   8.7808578
  78.3780406  14.8985750   9.6489050  77.9910421  16.4529436  15.6274249
  77.9799062  16.0582235  14.7554753  78.1531060  15.7195509  16.2208020
  70.9141885  18.6481253   8.4969155  71.7063177  18.3072077   8.0815454
  71.1538536  18.7576228   9.4171308  74.7117682  19.2366548  14.5753433
  74.4207548  20.1412179  14.4600099  75.3474666  19.2783076  15.2897503
  75.6373889  16.6143397  11.1654793  76.2337461  16.3899419  10.4511756
  75.6948860  15.8728142  11.7680240  83.1776048   6.7215418  12.1707314
  82.8459372   7.5910829  11.9468529  82.5821661   6.4051702  12.8501344
  79.6707567  18.9227964  11.5703227  79.3708290  19.8253002  11.4619034
  79.3258627  18.6560147  12.4224380  83.0704711  11.4410504   9.2500664
  82.1621588  11.3725912   8.9559425  83.0192307  11.9182449  10.0782489
  74.6528347  25.6872284   4.5374194  74.5752377  26.6380109   4.6162675
  74.0489990  25.3418157   5.1949121  77.1445577  12.8600149  17.1935561
  76.3678911  13.4194070  17.1838426  77.7836140  13.3456932  17.7150431
  84.9366357   9.6426942  11.0278538  84.2940737   9.9359475  10.3818332
  84.4321286   9.5279863  11.8331735  75.3991949  15.6685603  16.7553528
  76.1406633  16.2070647  16.4788352  74.6928934  16.2951892  16.9125080
  80.8747289  17.8114743  15.3525690  81.2830645  17.3697154  14.6080322
  80.1524550  17.2367371  15.6059883  77.2278359  12.7487350  12.7259247
  78.0739554  13.1726764  12.8693896  77.1676996  12.0920974  13.4197810
  81.1976103  18.3715934   9.1077979  80.5684966  18.5361648   8.4054046
  80.8101765  18.7857543   9.8788943  85.0765335  19.3070372   6.4622342
  84.3916373  19.6869273   5.9119376  85.1609184  19.9165698   7.1954290
  80.3777804  10.4091718  14.3840420  80.1338736  11.1633779  13.8474696
  80.6537734  10.7877066  15.2187667  82.3316267  16.9530331  13.0617686
  82.5433162  17.5962091  12.3852067  82.2846015  16.1192647  12.5939616
  76.7504065  18.1090342   6.3728064  77.2142411  18.3878045   5.5832686
  76.4860863  17.2073787   6.1901154  73.6428146  17.6561824   9.3107827
  74.2129503  18.0849092   8.6725311  74.2336258  17.3744408  10.0092013
  74.1353313  12.8225251  17.5568838  73.5051973  13.5041532  17.7904235
  74.0289401  12.7108333  16.6121977  83.4462095  19.8302286  11.2340043
  84.2679538  19.4282473  10.9522725  83.4424498  19.7270520  12.1856159
  77.2118698  19.3786329  13.3900754  77.2763131  19.8406737  14.2258926
  76.5029622  18.7483694  13.5183064  73.4134055   7.1246017  19.9194089
  73.0201001   6.5712215  20.5941734  74.2300196   7.4356595  20.3100607
  72.1890998  21.6795631   5.9130412  72.3657626  22.6013596   5.7251396
  72.9847831  21.3654050   6.3424792  76.3302016   8.5403896  17.5114346
  77.0711730   9.1411049  17.4318808  76.5619939   7.7981534  16.9532388
  71.4743354  13.7260263  15.7892576  71.3596870  12.8245520  16.0899674
  70.6187872  13.9723960  15.4377392  78.5535192  21.6678003  17.3880076
  78.1099046  20.8814382  17.0700981  79.2152406  21.8557154  16.7223967
  73.3122313  23.1973805  11.9140755  73.8629738  23.0690868  11.1417749
  72.4733789  23.4968694  11.5635647  80.6516430  21.9480803  15.4161477
  80.6334906  22.7689684  14.9241747  81.5736350  21.8234879  15.6411619
  77.1089484  19.4624933  16.2584986  77.6417821  18.7013221  16.0284294
  76.5803565  19.1698585  17.0009140  83.4535043  16.7859946   8.8870844
  82.7958718  17.4759207   8.9750973  84.2575442  17.1756378   9.2304830
  82.2640502  15.1404319   6.9374786  82.7772384  15.7734310   7.4396496
  82.9141726  14.5405514   6.5718146  78.7421333  12.6153774   9.1833126
  77.8243894  12.8368721   9.0254814  79.1581476  12.6900085   8.3244834
  83.0302298  20.1210320   5.0653929  82.5764625  19.2801230   5.1219119
  82.3996265  20.7571718   5.4028709  81.4735237  21.9586817   6.0003747
  81.7658212  22.5191874   5.2816112  81.9833858  22.2515378   6.7556906
  76.4368863  22.7367168   7.0897200  76.3945041  22.9628014   6.1605732
  77.3531561  22.5030542   7.2383001  79.8834496  13.2051235  13.9877829
  80.2383884  13.4322708  14.8472295  80.5306628  13.5369612  13.3655084
  85.6401613  18.3946198   9.7038430  86.0738120  18.3021487  10.5521484
  86.3533194  18.3703699   9.0658446  74.5534663  19.6130197   6.8859163
  75.3475262  19.1180517   6.6841738  73.8426356  19.0848060   6.5226868
  79.3729508  21.9948292  11.2371530  79.4266530  22.5639229  12.0049246
  78.5044289  22.1650177  10.8725567  72.2527901  11.6965849  12.7195981
  72.9250955  11.4883211  12.0708630  71.4257688  11.4987935  12.2801214
  86.5017162  18.4369899  12.2371315  86.6953053  19.3415709  12.4830590
  86.4017781  17.9777318  13.0709900  78.1553473   8.3227789  14.7361642
  77.5081388   9.0217739  14.6426119  78.9254489   8.7563933  15.1037891
  81.5632271  18.5876642  17.8112196  81.4117778  18.3587193  16.8942279
  81.5536951  19.5447243  17.8243541  78.3317608  16.1608554  12.7958462
  79.2609668  16.3119714  12.6227429  77.9108638  16.2492575  11.9407109
  77.1305939  20.1859219  10.5657000  76.9917025  19.8178003  11.4382938
  76.3420536  20.7006858  10.3940957  77.7254091  25.2868315   1.9082536
  77.9005847  24.8156358   2.7228159  77.0386879  25.9134081   2.1363797
  78.6811154  19.5640821   7.9545837  78.3460987  19.5241591   8.8503487
  78.1815100  18.8985537   7.4816248  72.6555398  14.9708452  13.4798419
  72.5175196  14.2388690  14.0809958  73.5660322  14.8817352  13.1982606
  75.2837699  14.6828411  12.9682098  75.9937318  14.0421603  12.9268717
  75.2407007  14.9341306  13.8908279  83.2724478  21.6195764  15.8888677
  83.2137024  20.9354984  15.2219260  83.6743996  22.3614754  15.4369303
  73.9966633  11.6693629  14.7877738  73.4603990  11.2184367  15.4399334
  73.4083342  11.8039538  14.0448202  72.2915177  28.4357678   8.6822396
  72.5311775  29.0676202   9.3601415  71.4484373  28.0845718   8.9687756
  83.2741885  19.5835348  14.1202657  82.3868664  19.2461270  14.2429056
  83.8440436  18.8518379  14.3571423  76.8043038  24.2436800  11.0863900
  76.7313210  25.0491772  11.5983205  76.3620432  24.4428766  10.2611922
  76.5932818  23.4808570   4.5966722  75.8100340  24.0230251   4.6904946
  77.2925563  23.9982550   4.9960963  79.2641722  24.1423634  13.2422059
  79.9769694  24.7771099  13.1697960  78.7731751  24.2387500  12.4262061
  80.9859249  18.0474887   4.8139351  80.0515528  18.1676350   4.6444055
  81.1635917  17.1447354   4.5499361  74.3153635  21.8918078  14.0627630
  75.0163095  22.5254561  14.2157024  73.8448750  22.2332809  13.3023269
  82.1154921  14.4462685  11.8880180  81.4626372  14.6938593  11.2332633
  82.4935301  13.6326824  11.5542657  79.0762095  24.4822379   5.9908350
  79.2584490  23.6644035   6.4536103  79.8995081  24.6990071   5.5533240
  79.4104261  23.4090564   3.2523399  79.9392027  22.8983018   2.6393561
  79.6732480  23.0933094   4.1168932  78.1642494  15.1882496  18.3746217
  77.4883132  15.0876626  19.0448592  78.9870128  15.0321710  18.8382214
  69.9121354  21.4254433  10.9958732  70.4974790  20.6798121  11.1286637
  69.7146192  21.7358390  11.8795396  72.7660009  24.4605680   6.0121175
  72.0970384  24.9451808   5.5285215  72.6272878  24.7074901   6.9264553
  76.9065277  26.4949424  12.6103833  77.4583585  26.6581045  13.3752918
  77.2471471  27.0853862  11.9383858  71.3582043  10.9147706  16.8598752
  71.9854082  10.5324784  17.4736277  70.5009962  10.6961908  17.2254445
  81.7576152  21.3210681  18.4652488  82.3016056  21.9340640  17.9707442
  81.1762997  21.8790260  18.9819501  80.0433665  24.4431399   9.5967515
  79.9184804  23.6421139   9.0878461  80.7012756  24.9377593   9.1081485
  82.1068573  22.2440420  11.2247065  81.1598909  22.1245771  11.1525392
  82.4551346  21.3562918  11.3073327  74.4668146   8.1334558  15.0485307
  74.9902548   8.3796855  15.8111617  74.2480480   8.9654593  14.6288445
  79.1115006  22.0393136   7.4251418  78.9639969  21.1109843   7.6058988
  79.9368500  22.0613226   6.9408493  82.7149128  22.8621694   8.5116290
  83.6395676  22.6564556   8.3740742  82.5464432  22.6138096   9.4205632
  75.6720691   9.0748254  12.7334978  75.3317512   8.2756067  13.1355658
  74.9659698   9.3749964  12.1611811  77.5598256  10.2756575  11.0888297
  77.3016033  11.1973645  11.0872627  77.0283296   9.8787009  11.7788761
  82.5044444  23.3807362   3.8678382  82.6781322  22.8153784   3.1152234
  82.9973336  24.1808257   3.6857872  68.3221404  15.3922031  11.9341941
  67.7774872  16.1681839  12.0662215  69.2000754  15.7392835  11.7761062
  69.1087426  14.5191927  14.8272098  68.3669162  14.6674563  15.4136728
  68.7880170  14.7800193  13.9638847  77.0531089  24.0607906  14.6252488
  77.3618215  23.8157052  15.4975187  77.8506571  24.2654544  14.1371358
  77.0751701  26.2145815   6.8557864  76.6356691  25.7222194   7.5490721
  77.8259818  25.6718783   6.6149939  69.5544040  22.4057356   6.8582492
  70.3802060  22.1061128   6.4781136  69.2038092  21.6364978   7.3072281
  74.5225573  21.7583824   8.9280166  73.9005582  21.0954529   8.6282394
  75.1930440  21.7844956   8.2453814  74.5950100  10.2365612  18.5212672
  74.6438256  11.1127735  18.1390441  75.1372615   9.6943005  17.9484315
  85.0804946  20.7806735  17.8013809  84.2900490  20.7630874  17.2618308
  84.8438301  21.3195029  18.5562846  85.2002821  17.6299202  15.1146537
  85.2500826  17.4649209  16.0562060  85.0916744  16.7626461  14.7244418
  82.4906584  13.6130130  16.4305844  83.3916446  13.4736595  16.1389842
  82.5654558  13.7784585  17.3704022  76.8249389  10.9896985  15.2759031
  75.9552698  11.2830551  15.0041619  77.0608869  11.5737430  15.9966294
  86.7021018  20.0496143  15.3588559  86.4105826  20.4126124  16.1952020
  86.0893149  19.3363152  15.1801891  84.9508206  15.1728758  13.8268617
  85.4262328  15.3656404  13.0187468  84.0273772  15.2287944  13.5812001
  79.5288423   7.2076602  12.7924451  80.0470367   7.9437629  12.4670939
  79.1743555   7.5140595  13.6271210  83.6509875  12.0494518  12.0596923
  84.6027298  12.1492616  12.0809147  83.4813326  11.2572787  12.5695007
  81.6724255   9.1350101  12.2456324  81.0774187   9.4155114  11.5502812
  81.3873951   9.6244002  13.0173065  86.1297953  15.2700638  11.1739222
  86.0974273  14.3316639  11.3598906  86.7398577  15.3484675  10.4405047
  77.8519976  18.1914437  18.6767083  78.7722986  18.3693036  18.8707130
  77.8169559  17.2470482  18.5246783  70.8482049  16.1015472  11.3189864
  71.0668059  17.0332579  11.3377898  71.2607823  15.7423446  12.1044668
  75.7209914  11.6748677  20.7092613  75.6206641  12.6243034  20.6404704
  75.5031456  11.3466916  19.8368683  75.5841184  15.1045816  19.5257675
  75.1008266  15.9046176  19.7321564  75.6702123  15.1153761  18.5725119
  71.5114522  18.9950351  11.5626109  72.4657775  18.9634293  11.4956040
  71.3127045  18.5340975  12.3776335  72.1013904  17.5651467  14.1296906
  72.9206793  18.0595546  14.1531744  72.3750712  16.6483435  14.1014474
  69.8664751  24.5369970   8.5796307  69.7319218  23.7770371   8.0134305
  69.4496813  25.2610870   8.1125096  73.0233876  25.4339287   8.7914749
  72.9066261  26.3784720   8.6893440  72.2026323  25.1312849   9.1800549
  67.3548818  11.8989601  14.8289104  68.0007682  11.3888555  15.3176329
  67.1465969  12.6358282  15.4032529  79.8802210  18.9670448  20.3281244
  80.7493370  19.1411101  19.9667879  79.4008962  19.7864865  20.2056973
  74.0488391  26.0867549  12.0070678  74.9515637  26.1191160  12.3237173
  73.8225761  25.1568000  12.0217014  75.8041993  24.8398536   8.6680756
  74.8537624  24.8400397   8.5545129  76.1074479  24.0931270   8.1516791
  71.6946309   9.0457218  18.9264118  72.5577771   8.6894023  19.1367442
  71.1211720   8.7071113  19.6139522  91.5394686  30.6759074   9.7326519
  92.1773096  30.5565822   9.0289859  91.4215529  31.6239918   9.7914471
  88.3484392  30.6286502   9.6688043  88.0102904  30.5127567   8.7808578
  89.2174161  30.2277667   9.6489050  84.2071208  32.4821979   5.6584934
  83.6436073  32.3911916   4.8901222  84.0923603  31.6621883   6.1387427
  88.8304175  31.7821354  15.6274249  88.8192816  31.3874152  14.7554753
  88.9924815  31.0487427  16.2208020  81.7535640  33.9773170   8.4969155
  82.5456932  33.6363995   8.0815454  81.9932290  34.0868145   9.4171308
  89.7870767  36.1492946   0.9699399  89.1358747  36.7347027   0.5833413
  90.5815130  36.6799141   1.0294437  83.7126394  33.2382084   1.3686534
  84.4857270  32.6911071   1.2299409  84.0651793  34.1026333   1.5800995
  85.5511436  34.5658466  14.5753433  85.2601302  35.4704097  14.4600099
  86.1868421  34.6074993  15.2897503  86.4767643  31.9435314  11.1654793
  87.0731216  31.7191337  10.4511756  86.5342615  31.2020060  11.7680240
  91.0935955  28.4010528   6.8079727  91.8799044  27.9829951   6.4570144
  91.3574659  29.3056620   6.9761375  85.7688960  31.3002856   1.2029359
  85.6525219  30.6247759   1.8710443  85.8791220  30.8135230   0.3861512
  88.1120501  30.7613003   4.9076048  87.7478709  30.2343624   5.6188969
  88.9687617  30.3711472   4.7342533  94.0169802  22.0507335  12.1707314
  93.6853127  22.9202746  11.9468529  93.4215415  21.7343619  12.8501344
  90.5101322  34.2519881  11.5703227  90.2102045  35.1544920  11.4619034
  90.1652381  33.9852065  12.4224380  83.9613803  30.7033678   7.6039931
  83.0364300  30.5709892   7.8117623  84.2098216  31.4827897   8.1009873
  93.9098465  26.7702422   9.2500664  93.0015343  26.7017830   8.9559425
  93.8586061  27.2474366  10.0782489  81.3222614  30.3466952   8.4383720
  81.4514995  30.6001431   9.3523132  80.6420065  30.9394660   8.1188375
  85.4922101  41.0164202   4.5374194  85.4146131  41.9672027   4.6162675
  84.8883745  40.6710074   5.1949121  87.9839331  28.1892067  17.1935561
  87.2072665  28.7485987  17.1838426  88.6229894  28.6748850  17.7150431
  95.7760112  24.9718860  11.0278538  95.1334492  25.2651393  10.3818332
  95.2715040  24.8571780  11.8331735  86.2385703  30.9977520  16.7553528
  86.9800388  31.5362564  16.4788352  85.5322689  31.6243809  16.9125080
  91.7141043  33.1406661  15.3525690  92.1224399  32.6989071  14.6080322
  90.9918305  32.5659288  15.6059883  88.0672113  28.0779268  12.7259247
  88.9133308  28.5018681  12.8693896  88.0070751  27.4212892  13.4197810
  92.0369858  33.7007852   9.1077979  91.4078720  33.8653566   8.4054046
  91.6495520  34.1149461   9.8788943  95.9159090  34.6362289   6.4622342
  95.2310128  35.0161191   5.9119376  96.0002939  35.2457616   7.1954290
  91.2171558  25.7383636  14.3840420  90.9732490  26.4925697  13.8474696
  91.4931489  26.1168984  15.2187667  93.1710021  32.2822248  13.0617686
  93.3826916  32.9254008  12.3852067  93.1239769  31.4484565  12.5939616
  90.7736250  24.8940069   9.9654258  89.9120729  25.1921323  10.2570996
  90.7998685  25.1110468   9.0335291  87.5897820  33.4382260   6.3728064
  88.0536165  33.7169963   5.5832686  87.3254618  32.5365704   6.1901154
  84.4821901  32.9853741   9.3107827  85.0523258  33.4141010   8.6725311
  85.0730013  32.7036326  10.0092013  86.5266706  29.5605412   3.1817629
  87.2290749  30.0126456   3.6491555  86.1947334  28.9189231   3.8097522
  84.9747067  28.1517169  17.5568838  84.3445728  28.8333450  17.7904235
  84.8683155  28.0400250  16.6121977  80.2692040  27.8188965   8.4834762
  79.4791094  28.0746493   8.0074873  80.7603287  28.6337303   8.5886803
  94.2855849  35.1594204  11.2340043  95.1073293  34.7574391  10.9522725
  94.2818252  35.0562438  12.1856159  82.2206785  28.1833544   5.4418239
  81.4237948  28.2952238   5.9601735  81.9932377  28.5220196   4.5759130
  88.0512453  34.7078247  13.3900754  88.1156885  35.1698654  14.2258926
  87.3423376  34.0775612  13.5183064  78.5529743  28.0719455  10.9149753
  78.8037781  28.9566465  11.1807329  79.0889291  27.8924057  10.1424845
  87.7660470  36.3746355   3.2579734  87.6306145  37.2197890   3.6864582
  88.3070283  36.5765632   2.4945668  84.2527810  22.4537935  19.9194089
  83.8594755  21.9004133  20.5941734  85.0693950  22.7648513  20.3100607
  81.2189868  33.8921793   3.8307659  81.7314388  34.6865043   3.9813224
  81.8712580  33.1948083   3.7641261  83.0284752  37.0087549   5.9130412
  83.2051381  37.9305514   5.7251396  83.8241586  36.6945968   6.3424792
  87.1695771  23.8695814  17.5114346  87.9105484  24.4702967  17.4318808
  87.4013694  23.1273451  16.9532388  82.3137109  29.0552181  15.7892576
  82.1990624  28.1537438  16.0899674  81.4581627  29.3015878  15.4377392
  89.3928947  36.9969921  17.3880076  88.9492801  36.2106300  17.0700981
  90.0546160  37.1849072  16.7223967  84.1516068  38.5265723  11.9140755
  84.7023493  38.3982786  11.1417749  83.3127544  38.8260612  11.5635647
  91.4910185  37.2772721  15.4161477  91.4728660  38.0981602  14.9241747
  92.4130105  37.1526796  15.6411619  87.9483239  34.7916851  16.2584986
  88.4811576  34.0305139  16.0284294  87.4197320  34.4990502  17.0009140
  91.1152934  19.8976917  11.7878628  90.7717203  20.7878558  11.7117738
  91.4831896  19.7078574  10.9248213  79.1838784  32.2210447   4.6067230
  80.0214006  32.6307455   4.3900937  79.3617052  31.2809889   4.5767424
  90.1949474  22.2681572   9.7527861  89.6914270  22.2311707   8.9395666
  90.4880081  23.1774314   9.8124517  86.4392360  22.3520301   8.7594043
  87.3045357  22.1563110   8.3999932  86.5069869  22.1230653   9.6863399
  89.3135952  33.9202843   3.7703798  88.7857313  33.1855603   3.4577035
  88.8123454  34.6977519   3.5243766  94.2928798  32.1151864   8.8870844
  93.6352472  32.8051125   8.9750973  95.0969197  32.5048295   9.2304830
  84.0454679  24.5822509   6.1310409  84.6198431  24.3597691   5.3983602
  84.6325662  24.6511204   6.8839011  93.1034256  30.4696236   6.9374786
  93.6166138  31.1026228   7.4396496  93.7535480  29.8697432   6.5718146
  90.3656631  40.4480561  -0.3064543  89.6918329  40.7512257   0.3020415
  90.7522453  41.2509641  -0.6559086  89.5815087  27.9445692   9.1833126
  88.6637649  28.1660639   9.0254814  89.9975231  28.0192002   8.3244834
  93.8696053  35.4502238   5.0653929  93.4158380  34.6093148   5.1219119
  93.2390019  36.0863636   5.4028709  92.3128992  37.2878734   6.0003747
  92.6051966  37.8483791   5.2816112  92.8227612  37.5807295   6.7556906
  79.2064956  29.5601162   5.2777963  79.0089355  28.9670523   4.5529030
  78.6511620  29.2553372   5.9953902  87.1861679  29.4524269   7.3972556
  87.2410289  28.4998105   7.3215033  86.3752881  29.6083708   7.8813855
  85.1254039  28.0701329   5.1562935  84.3121905  28.3695499   5.5628127
  85.6213033  27.6757017   5.8737417  87.2762617  38.0659085   7.0897200
  87.2338796  38.2919932   6.1605732  88.1925316  37.8322460   7.2383001
  90.7228251  28.5343153  13.9877829  91.0777639  28.7614626  14.8472295
  91.3700382  28.8661530  13.3655084  84.6168114  25.6419684  10.7724170
  85.2567493  25.5008443  10.0747133  83.7845644  25.3554197  10.3962772
  96.4795367  33.7238116   9.7038430  96.9131874  33.6313405  10.5521484
  97.1926948  33.6995616   9.0658446  85.3928418  34.9422114   6.8859163
  86.1869016  34.4472435   6.6841738  84.6820110  34.4139978   6.5226868
  90.2123262  37.3240210  11.2371530  90.2660285  37.8931146  12.0049246
  89.3438044  37.4942095  10.8725567  81.7011181  29.0865196   2.9618915
  80.7708769  29.0249652   3.1788877  81.7968653  28.5641149   2.1655557
  81.6196730  25.6120009   5.5497157  81.8803548  26.5265342   5.4406317
  82.4413903  25.1444452   5.6993770  83.0921656  27.0257766  12.7195981
  83.7644709  26.8175128  12.0708630  82.2651442  26.8279852  12.2801214
  97.3410917  33.7661817  12.2371315  97.5346807  34.6707627  12.4830590
  97.2411535  33.3069236  13.0709900  88.9947228  23.6519707  14.7361642
  88.3475143  24.3509657  14.6426119  89.7648243  24.0855851  15.1037891
  92.4026026  33.9168559  17.8112196  92.2511532  33.6879111  16.8942279
  92.3930705  34.8739161  17.8243541  89.1711362  31.4900472  12.7958462
  90.1003422  31.6411632  12.6227429  88.7502392  31.5784493  11.9407109
  87.9699694  35.5151136  10.5657000  87.8310780  35.1469921  11.4382938
  87.1814290  36.0298776  10.3940957  88.5647846  40.6160233   1.9082536
  88.7399601  40.1448276   2.7228159  87.8780634  41.2425999   2.1363797
  89.5204909  34.8932739   7.9545837  89.1854742  34.8533509   8.8503487
  89.0208855  34.2277455   7.4816248  83.4949153  30.3000369  13.4798419
  83.3568951  29.5680608  14.0809958  84.4054076  30.2109269  13.1982606
  86.1231454  30.0120329  12.9682098  86.8331072  29.3713521  12.9268717
  86.0800762  30.2633223  13.8908279  94.1118232  36.9487682  15.8888677
  94.0530778  36.2646902  15.2219260  94.5137751  37.6906672  15.4369303
  84.8360388  26.9985546  14.7877738  84.2997745  26.5476285  15.4399334
  84.2477096  27.1331455  14.0448202  83.1308931  43.7649596   8.6822396
  83.3705529  44.3968120   9.3601415  82.2878128  43.4137636   8.9687756
  94.1135640  34.9127266  14.1202657  93.2262418  34.5753188  14.2429056
  94.6834191  34.1810297  14.3571423  75.7664787  31.2451358   7.4445709
  76.4535826  30.9313088   6.8566724  75.6112915  32.1492722   7.1712960
  80.5699509  26.1341554  11.8730732  80.4857698  25.5267224  11.1381142
  79.7482215  26.6250572  11.8740229  87.6436793  39.5728718  11.0863900
  87.5706964  40.3783690  11.5983205  87.2014186  39.7720684  10.2611922
  87.4326573  38.8100488   4.5966722  86.6494094  39.3522168   4.6904946
  88.1319318  39.3274468   4.9960963  90.1035476  39.4715552  13.2422059
  90.8163449  40.1063017  13.1697960  89.6125505  39.5679418  12.4262061
  91.8253003  33.3766805   4.8139351  90.8909282  33.4968267   4.6444055
  92.0029672  32.4739272   4.5499361  87.3258191  26.7612501   6.9672612
  86.9555979  26.2083541   7.6553517  87.8217284  26.1570634   6.4147612
  85.1547390  37.2209996  14.0627630  85.8556849  37.8546479  14.2157024
  84.6842505  37.5624727  13.3023269  92.9548676  29.7754603  11.8880180
  92.3020126  30.0230511  11.2332633  93.3329056  28.9618741  11.5542657
  89.9155850  39.8114296   5.9908350  90.0978244  38.9935952   6.4536103
  90.7388836  40.0281989   5.5533240  90.2498015  38.7382481   3.2523399
  90.7785782  38.2274936   2.6393561  90.5126235  38.4225012   4.1168932
  89.0036249  30.5174414  18.3746217  88.3276886  30.4168543  19.0448592
  89.8263883  30.3613628  18.8382214  80.7515108  36.7546351  10.9958732
  81.3368545  36.0090039  11.1286637  80.5539947  37.0650307  11.8795396
  83.6053763  39.7897598   6.0121175  82.9364139  40.2743726   5.5285215
  83.4666633  40.0366819   6.9264553  75.3432763  29.3251951   9.7163176
  75.3816862  28.7915542  10.5100294  74.8373056  28.7987156   9.0974153
  87.7459032  41.8241342  12.6103833  88.2977340  41.9872963  13.3752918
  88.0865225  42.4145779  11.9383858  82.7223525  24.1716491  13.2125718
  82.7864852  25.0331322  12.8003116  82.6590645  23.5590493  12.4798076
  82.1975798  26.2439624  16.8598752  82.8247836  25.8616701  17.4736277
  81.3403716  26.0253826  17.2254445  92.5969906  36.6502599  18.4652488
  93.1409810  37.2632557  17.9707442  92.0156751  37.2082178  18.9819501
  78.9741340  28.0516053   2.7917107  79.2694781  27.1426731   2.7384161
  78.0729376  28.0303792   2.4698109  90.8827419  39.7723317   9.5967515
  90.7578559  38.9713057   9.0878461  91.5406510  40.2669510   9.1081485
  82.5035587  26.1272050   8.7744656  81.7822173  26.7408017   8.6352129
  83.2928843  26.6629814   8.6961302  92.9462328  37.5732337  11.2247065
  91.9992663  37.4537688  11.1525392  93.2945101  36.6854835  11.3073327
  85.3061901  23.4626476  15.0485307  85.8296303  23.7088773  15.8111617
  85.0874234  24.2946511  14.6288445  80.7029182  25.7330151   2.9156432
  80.3741888  24.8527530   2.7331538  81.0568553  25.6777819   3.8032821
  89.9508761  37.3685053   7.4251418  89.8033723  36.4401761   7.6058988
  90.7762254  37.3905144   6.9408493  83.8171005  26.0203120   3.2831910
  84.1567078  26.5489042   2.5610518  84.2643126  26.3583527   4.0590476
  93.5542883  38.1913612   8.5116290  94.4789430  37.9856473   8.3740742
  93.3858186  37.9430013   9.4205632  86.5114446  24.4040171  12.7334978
  86.1711266  23.6047984  13.1355658  85.8053452  24.7041882  12.1611811
  87.1630918  21.4889484  11.1862301  87.9856987  21.0149962  11.0641191
  87.4068981  22.2679967  11.6860987  84.6869497  28.1808604   8.9954280
  84.5414077  28.4948907   9.8878561  84.2094700  28.7993505   8.4425178
  86.5465879  25.1711152   9.0435169  86.5327448  24.2752246   8.7067467
  87.2638308  25.1781816   9.6773455  88.3992010  25.6048492  11.0888297
  88.1409788  26.5265563  11.0872627  87.8677050  25.2078927  11.7788761
  93.3438199  38.7099280   3.8678382  93.5175076  38.1445702   3.1152234
  93.8367090  39.5100174   3.6857872  79.1615159  30.7213949  11.9341941
  78.6168627  31.4973757  12.0662215  80.0394509  31.0684753  11.7761062
  85.9502775  24.0525533   4.3122739  86.0718687  23.1242179   4.5113627
  85.6604818  24.0664219   3.4001055  79.9481181  29.8483845  14.8272098
  79.2062917  29.9966480  15.4136728  79.6273925  30.1092111  13.9638847
  87.8924843  39.3899823  14.6252488  88.2011970  39.1448970  15.4975187
  88.6900325  39.5946462  14.1371358  87.9145455  41.5437733   6.8557864
  87.4750446  41.0514112   7.5490721  88.6653572  41.0010700   6.6149939
  80.3937794  37.7349274   6.8582492  81.2195814  37.4353046   6.4781136
  80.0431846  36.9656896   7.3072281  85.3619327  37.0875742   8.9280166
  84.7399337  36.4246447   8.6282394  86.0324194  37.1136874   8.2453814
  78.5946399  35.6535600   7.8171426  77.7578308  35.2257774   7.6355427
  78.5670045  35.8468043   8.7542217  85.4343855  25.5657530  18.5212672
  85.4832010  26.4419653  18.1390441  85.9766369  25.0234923  17.9484315
  95.9198701  36.1098653  17.8013809  95.1294244  36.0922792  17.2618308
  95.6832055  36.6486947  18.5562846  96.0396576  32.9591120  15.1146537
  96.0894581  32.7941127  16.0562060  95.9310499  32.0918379  14.7244418
  84.9232834  35.6379665   2.4038626  85.0720955  36.3215130   1.7505299
  85.7299278  35.6184755   2.9188082  93.3300338  28.9422048  16.4305844
  94.2310201  28.8028512  16.1389842  93.4048312  29.1076502  17.3704022
  87.6643143  26.3188902  15.2759031  86.7946453  26.6122468  15.0041619
  87.9002624  26.9029347  15.9966294  97.5414772  35.3788061  15.3588559
  97.2499581  35.7418042  16.1952020  96.9286904  34.6655069  15.1801891
  95.7901961  30.5020676  13.8268617  96.2656082  30.6948322  13.0187468
  94.8667526  30.5579862  13.5812001  82.6785467  31.6644843   3.4099695
  82.4331509  30.7607173   3.6079905  82.8481382  31.6661993   2.4679173
  90.3682177  22.5368519  12.7924451  90.8864121  23.2729546  12.4670939
  90.0137310  22.8432513  13.6271210  81.9481115  27.3973200   0.9085857
  81.2550360  27.4717555   0.2525893  81.7032867  26.6333544   1.4307374
  88.4228240  38.1327796  -0.1249626  87.8502207  38.7517983  -0.5779154
  88.9961033  38.6827157   0.4090296  94.4903630  27.3786436  12.0596923
  95.4421053  27.4784533  12.0809147  94.3207080  26.5864704  12.5695007
  92.5118009  24.4642019  12.2456324  91.9167941  24.7447032  11.5502812
  92.2267706  24.9535920  13.0173065  91.6425500  38.4164946   1.0058956
  92.5756173  38.3510507   1.2091832  91.5548712  39.2521213   0.5473489
  96.9691707  30.5992555  11.1739222  96.9368028  29.6608556  11.3598906
  97.5792331  30.6776592  10.4405047  88.6913731  33.5206355  18.6767083
  89.6116740  33.6984954  18.8707130  88.6563314  32.5762400  18.5246783
  77.9095896  28.7144948   7.6020358  77.5898680  27.8610256   7.3094732
  77.3629324  28.9293526   8.3578325  81.6875803  31.4307389  11.3189864
  81.9061813  32.3624497  11.3377898  82.1001577  31.0715364  12.1044668
  86.5603669  27.0040595  20.7092613  86.4600396  27.9534952  20.6404704
  86.3425211  26.6758834  19.8368683  77.7784156  32.3347860   9.5713480
  77.0847627  31.9201813   9.0583434  78.5257147  32.3768396   8.9746898
  86.4234939  30.4337734  19.5257675  85.9402020  31.2338094  19.7321564
  86.5095878  30.4445679  18.5725119  79.6920898  32.2666114   7.4479494
  79.6691586  32.3653801   6.4961377  80.0021535  33.1131264   7.7696661
  82.3508276  34.3242269  11.5626109  83.3051530  34.2926211  11.4956040
  82.1520800  33.8632892  12.3776335  82.9407658  32.8943385  14.1296906
  83.7600547  33.3887463  14.1531744  83.2144466  31.9775353  14.1014474
  80.7058505  39.8661888   8.5796307  80.5712973  39.1062289   8.0134305
  80.2890567  40.5902788   8.1125096  83.8627631  40.7631205   8.7914749
  83.7460015  41.7076638   8.6893440  83.0420077  40.4604767   9.1800549
  78.1942573  27.2281518  14.8289104  78.8401436  26.7180472  15.3176329
  77.9859724  27.9650200  15.4032529  90.7195965  34.2962366  20.3281244
  91.5887124  34.4703018  19.9667879  90.2402716  35.1156783  20.2056973
  84.8882145  41.4159467  12.0070678  85.7909392  41.4483077  12.3237173
  84.6619515  40.4859918  12.0217014  86.6435747  40.1690453   8.6680756
  85.6931378  40.1692315   8.5545129  86.9468233  39.4223188   8.1516791
  82.5340064  24.3749136  18.9264118  83.3971525  24.0185940  19.1367442
  81.9605474  24.0363030  19.6139522 102.3788441  46.0050992   9.7326519
 103.0166851  45.8857739   9.0289859 102.2609283  46.9531836   9.7914471
  99.1878147  45.9578420   9.6688043  98.8496658  45.8419485   8.7808578
 100.0567915  45.5569585   9.6489050  95.0464963  47.8113896   5.6584934
  94.4829828  47.7203833   4.8901222  94.9317358  46.9913801   6.1387427
  99.6697930  47.1113272  15.6274249  99.6586571  46.7166070  14.7554753
  99.8318569  46.3779344  16.2208020  92.5929394  49.3065088   8.4969155
  93.3850686  48.9655913   8.0815454  92.8326045  49.4160063   9.4171308
 100.6264521  51.4784864   0.9699399  99.9752501  52.0638945   0.5833413
 101.4208884  52.0091059   1.0294437  94.5520148  48.5674001   1.3686534
  95.3251024  48.0202988   1.2299409  94.9045547  49.4318251   1.5800995
  96.3905191  49.8950384  14.5753433  96.0995057  50.7996014  14.4600099
  97.0262175  49.9366911  15.2897503  97.3161398  47.2727232  11.1654793
  97.9124970  47.0483254  10.4511756  97.3736369  46.5311978  11.7680240
 101.9329709  43.7302446   6.8079727 102.7192798  43.3121869   6.4570144
 102.1968413  44.6348538   6.9761375  96.6082715  46.6294773   1.2029359
  96.4918973  45.9539677   1.8710443  96.7184975  46.1427147   0.3861512
  98.9514256  46.0904920   4.9076048  98.5872463  45.5635541   5.6188969
  99.8081372  45.7003389   4.7342533 104.8563557  37.3799253  12.1707314
 104.5246881  38.2494664  11.9468529 104.2609170  37.0635537  12.8501344
 101.3495076  49.5811799  11.5703227 101.0495799  50.4836838  11.4619034
 101.0046136  49.3143982  12.4224380  94.8007558  46.0325596   7.6039931
  93.8758054  45.9001810   7.8117623  95.0491971  46.8119815   8.1009873
 104.7492220  42.0994339   9.2500664 103.8409097  42.0309748   8.9559425
 104.6979816  42.5766284  10.0782489  92.1616369  45.6758869   8.4383720
  92.2908750  45.9293348   9.3523132  91.4813820  46.2686577   8.1188375
  96.3315856  56.3456119   4.5374194  96.2539886  57.2963944   4.6162675
  95.7277499  56.0001992   5.1949121  98.8233086  43.5183985  17.1935561
  98.0466420  44.0777905  17.1838426  99.4623649  44.0040768  17.7150431
 106.6153866  40.3010778  11.0278538 105.9728246  40.5943311  10.3818332
 106.1108795  40.1863698  11.8331735  97.0779458  46.3269438  16.7553528
  97.8194142  46.8654482  16.4788352  96.3716443  46.9535727  16.9125080
 102.5534798  48.4698579  15.3525690 102.9618154  48.0280989  14.6080322
 101.8312059  47.8951206  15.6059883  98.9065868  43.4071185  12.7259247
  99.7527063  43.8310599  12.8693896  98.8464505  42.7504810  13.4197810
 102.8763612  49.0299769   9.1077979 102.2472475  49.1945483   8.4054046
 102.4889274  49.4441379   9.8788943 106.7552844  49.9654207   6.4622342
 106.0703882  50.3453108   5.9119376 106.8396693  50.5749534   7.1954290
 102.0565313  41.0675554  14.3840420 101.8126245  41.8217614  13.8474696
 102.3325243  41.4460901  15.2187667 104.0103776  47.6114166  13.0617686
 104.2220671  48.2545926  12.3852067 103.9633524  46.7776483  12.5939616
 101.6130005  40.2231987   9.9654258 100.7514484  40.5213240  10.2570996
 101.6392439  40.4402386   9.0335291  98.4291574  48.7674177   6.3728064
  98.8929920  49.0461880   5.5832686  98.1648372  47.8657622   6.1901154
  95.3215655  48.3145659   9.3107827  95.8917012  48.7432927   8.6725311
  95.9123767  48.0328244  10.0092013  97.3660460  44.8897330   3.1817629
  98.0684503  45.3418373   3.6491555  97.0341089  44.2481149   3.8097522
  95.8140822  43.4809086  17.5568838  95.1839482  44.1625367  17.7904235
  95.7076910  43.3692168  16.6121977  91.1085794  43.1480882   8.4834762
  90.3184848  43.4038411   8.0074873  91.5997041  43.9629220   8.5886803
 105.1249604  50.4886122  11.2340043 105.9467047  50.0866309  10.9522725
 105.1212007  50.3854356  12.1856159  93.0600539  43.5125462   5.4418239
  92.2631703  43.6244156   5.9601735  92.8326132  43.8512114   4.5759130
  98.8906207  50.0370165  13.3900754  98.9550640  50.4990572  14.2258926
  98.1817131  49.4067530  13.5183064  89.3923497  43.4011373  10.9149753
  89.6431535  44.2858383  11.1807329  89.9283045  43.2215974  10.1424845
  98.6054225  51.7038272   3.2579734  98.4699900  52.5489808   3.6864582
  99.1464037  51.9057550   2.4945668  95.0921564  37.7829852  19.9194089
  94.6988510  37.2296051  20.5941734  95.9087705  38.0940431  20.3100607
  92.0583622  49.2213710   3.8307659  92.5708143  50.0156961   3.9813224
  92.7106335  48.5240001   3.7641261  93.8678507  52.3379467   5.9130412
  94.0445135  53.2597431   5.7251396  94.6635340  52.0237886   6.3424792
  98.0089525  39.1987731  17.5114346  98.7499239  39.7994884  17.4318808
  98.2407448  38.4565369  16.9532388  93.1530863  44.3844099  15.7892576
  93.0384379  43.4829356  16.0899674  92.2975381  44.6307795  15.4377392
 100.2322701  52.3261839  17.3880076  99.7886555  51.5398217  17.0700981
 100.8939915  52.5140989  16.7223967  94.9909822  53.8557640  11.9140755
  95.5417247  53.7274704  11.1417749  94.1521298  54.1552529  11.5635647
 102.3303939  52.6064639  15.4161477 102.3122415  53.4273520  14.9241747
 103.2523859  52.4818714  15.6411619  98.7876993  50.1208768  16.2584986
  99.3205330  49.3597056  16.0284294  98.2591074  49.8282420  17.0009140
 101.9546688  35.2268834  11.7878628 101.6110958  36.1170476  11.7117738
 102.3225651  35.0370492  10.9248213  90.0232539  47.5502365   4.6067230
  90.8607761  47.9599373   4.3900937  90.2010807  46.6101807   4.5767424
 101.0343229  37.5973489   9.7527861 100.5308024  37.5603625   8.9395666
 101.3273836  38.5066232   9.8124517  97.2786115  37.6812219   8.7594043
  98.1439111  37.4855028   8.3999932  97.3463624  37.4522571   9.6863399
 100.1529706  49.2494761   3.7703798  99.6251068  48.5147520   3.4577035
  99.6517209  50.0269437   3.5243766 105.1322552  47.4443781   8.8870844
 104.4746227  48.1343043   8.9750973 105.9362951  47.8340213   9.2304830
  94.8848434  39.9114427   6.1310409  95.4592186  39.6889609   5.3983602
  95.4719416  39.9803122   6.8839011 103.9428011  45.7988154   6.9374786
 104.4559893  46.4318146   7.4396496 104.5929235  45.1989349   6.5718146
 100.4208842  43.2737609   9.1833126  99.5031403  43.4952556   9.0254814
 100.8368985  43.3483920   8.3244834 104.7089807  50.7794155   5.0653929
 104.2552134  49.9385065   5.1219119 104.0783774  51.4155554   5.4028709
 103.1522746  52.6170652   6.0003747 103.4445721  53.1775709   5.2816112
 103.6621367  52.9099213   6.7556906  90.0458710  44.8893080   5.2777963
  89.8483110  44.2962441   4.5529030  89.4905374  44.5845290   5.9953902
  98.0255434  44.7816186   7.3972556  98.0804044  43.8290023   7.3215033
  97.2146636  44.9375626   7.8813855  95.9647794  43.3993246   5.1562935
  95.1515659  43.6987417   5.5628127  96.4606788  43.0048935   5.8737417
  98.1156372  53.3951003   7.0897200  98.0732550  53.6211849   6.1605732
  99.0319070  53.1614378   7.2383001 101.5622005  43.8635071  13.9877829
 101.9171393  44.0906544  14.8472295 102.2094137  44.1953447  13.3655084
  95.4561868  40.9711602  10.7724170  96.0961248  40.8300361  10.0747133
  94.6239399  40.6846115  10.3962772 107.3189122  49.0530034   9.7038430
 107.7525629  48.9605323  10.5521484 108.0320703  49.0287534   9.0658446
  96.2322172  50.2714032   6.8859163  97.0262771  49.7764352   6.6841738
  95.5213865  49.7431895   6.5226868 101.0517017  52.6532128  11.2371530
 101.1054039  53.2223064  12.0049246 100.1831798  52.8234013  10.8725567
  92.5404936  44.4157114   2.9618915  91.6102524  44.3541569   3.1788877
  92.6362408  43.8933067   2.1655557  92.4590485  40.9411927   5.5497157
  92.7197302  41.8557260   5.4406317  93.2807657  40.4736369   5.6993770
  93.9315410  42.3549684  12.7195981  94.6038464  42.1467046  12.0708630
  93.1045197  42.1571770  12.2801214 108.1804671  49.0953734  12.2371315
 108.3740562  49.9999545  12.4830590 108.0805290  48.6361153  13.0709900
  99.8340982  38.9811625  14.7361642  99.1868897  39.6801574  14.6426119
 100.6041998  39.4147769  15.1037891 103.2419780  49.2460477  17.8112196
 103.0905287  49.0171029  16.8942279 103.2324460  50.2031078  17.8243541
 100.0105117  46.8192390  12.7958462 100.9397177  46.9703549  12.6227429
  99.5896147  46.9076411  11.9407109  98.8093448  50.8443054  10.5657000
  98.6704534  50.4761839  11.4382938  98.0208045  51.3590694  10.3940957
  99.4041600  55.9452151   1.9082536  99.5793356  55.4740194   2.7228159
  98.7174388  56.5717917   2.1363797 100.3598663  50.2224657   7.9545837
 100.0248496  50.1825427   8.8503487  99.8602609  49.5569373   7.4816248
  94.3342907  45.6292287  13.4798419  94.1962705  44.8972526  14.0809958
  95.2447831  45.5401187  13.1982606  96.9625208  45.3412246  12.9682098
  97.6724827  44.7005438  12.9268717  96.9194516  45.5925141  13.8908279
 104.9511987  52.2779600  15.8888677 104.8924533  51.5938820  15.2219260
 105.3531505  53.0198590  15.4369303  95.6754142  42.3277464  14.7877738
  95.1391499  41.8768203  15.4399334  95.0870851  42.4623373  14.0448202
  93.9702686  59.0941513   8.6822396  94.2099284  59.7260038   9.3601415
  93.1271882  58.7429553   8.9687756 104.9529394  50.2419183  14.1202657
 104.0656173  49.9045105  14.2429056 105.5227945  49.5102215  14.3571423
  86.6058541  46.5743275   7.4445709  87.2929581  46.2605005   6.8566724
  86.4506670  47.4784640   7.1712960  91.4093263  41.4633472  11.8730732
  91.3251452  40.8559141  11.1381142  90.5875970  41.9542490  11.8740229
  98.4830547  54.9020636  11.0863900  98.4100719  55.7075607  11.5983205
  98.0407941  55.1012602  10.2611922  98.2720327  54.1392406   4.5966722
  97.4887849  54.6814086   4.6904946  98.9713072  54.6566385   4.9960963
 100.9429231  54.8007470  13.2422059 101.6557203  55.4354935  13.1697960
 100.4519260  54.8971336  12.4262061 102.6646758  48.7058723   4.8139351
 101.7303037  48.8260185   4.6444055 102.8423426  47.8031189   4.5499361
  98.1651946  42.0904418   6.9672612  97.7949733  41.5375459   7.6553517
  98.6611038  41.4862552   6.4147612  95.9941144  52.5501913  14.0627630
  96.6950604  53.1838396  14.2157024  95.5236259  52.8916645  13.3023269
 103.7942430  45.1046521  11.8880180 103.1413881  45.3522428  11.2332633
 104.1722810  44.2910659  11.5542657 100.7549604  55.1406214   5.9908350
 100.9371999  54.3227870   6.4536103 101.5782590  55.3573906   5.5533240
 101.0891770  54.0674399   3.2523399 101.6179536  53.5566854   2.6393561
 101.3519989  53.7516929   4.1168932  99.8430003  45.8466332  18.3746217
  99.1670640  45.7460461  19.0448592 100.6657637  45.6905546  18.8382214
  91.5908863  52.0838268  10.9958732  92.1762299  51.3381956  11.1286637
  91.3933701  52.3942225  11.8795396  94.4447518  55.1189516   6.0121175
  93.7757893  55.6035643   5.5285215  94.3060387  55.3658736   6.9264553
  86.1826517  44.6543869   9.7163176  86.2210617  44.1207459  10.5100294
  85.6766810  44.1279074   9.0974153  98.5852786  57.1533259  12.6103833
  99.1371094  57.3164881  13.3752918  98.9258980  57.7437697  11.9383858
  93.5617280  39.5008409  13.2125718  93.6258606  40.3623240  12.8003116
  93.4984400  38.8882411  12.4798076  93.0369552  41.5731542  16.8598752
  93.6641591  41.1908619  17.4736277  92.1797471  41.3545744  17.2254445
 103.4363661  51.9794517  18.4652488 103.9803565  52.5924475  17.9707442
 102.8550506  52.5374095  18.9819501  89.8135095  43.3807971   2.7917107
  90.1088536  42.4718649   2.7384161  88.9123131  43.3595710   2.4698109
 101.7221174  55.1015235   9.5967515 101.5972313  54.3004975   9.0878461
 102.3800265  55.5961428   9.1081485  93.3429342  41.4563967   8.7744656
  92.6215928  42.0699935   8.6352129  94.1322598  41.9921732   8.6961302
 103.7856082  52.9024255  11.2247065 102.8386418  52.7829606  11.1525392
 104.1338855  52.0146753  11.3073327  96.1455655  38.7918394  15.0485307
  96.6690057  39.0380690  15.8111617  95.9267989  39.6238429  14.6288445
  91.5422936  41.0622068   2.9156432  91.2135643  40.1819447   2.7331538
  91.8962307  41.0069737   3.8032821 100.7902515  52.6976971   7.4251418
 100.6427478  51.7693679   7.6058988 101.6156009  52.7197062   6.9408493
  94.6564760  41.3495038   3.2831910  94.9960832  41.8780959   2.5610518
  95.1036880  41.6875444   4.0590476 104.3936637  53.5205530   8.5116290
 105.3183185  53.3148391   8.3740742 104.2251941  53.2721931   9.4205632
  97.3508200  39.7332089  12.7334978  97.0105021  38.9339902  13.1355658
  96.6447207  40.0333800  12.1611811  98.0024672  36.8181401  11.1862301
  98.8250742  36.3441880  11.0641191  98.2462736  37.5971885  11.6860987
  95.5263251  43.5100522   8.9954280  95.3807832  43.8240825   9.8878561
  95.0488455  44.1285422   8.4425178  97.3859634  40.5003070   9.0435169
  97.3721203  39.6044163   8.7067467  98.1032062  40.5073734   9.6773455
  99.2385765  40.9340410  11.0888297  98.9803542  41.8557481  11.0872627
  98.7070805  40.5370845  11.7788761 104.1831953  54.0391197   3.8678382
 104.3568831  53.4737620   3.1152234 104.6760845  54.8392092   3.6857872
  90.0008913  46.0505866  11.9341941  89.4562381  46.8265674  12.0662215
  90.8788263  46.3976671  11.7761062  96.7896530  39.3817450   4.3122739
  96.9112441  38.4534096   4.5113627  96.4998572  39.3956136   3.4001055
  90.7874935  45.1775763  14.8272098  90.0456671  45.3258398  15.4136728
  90.4667679  45.4384028  13.9638847  98.7318598  54.7191741  14.6252488
  99.0405724  54.4740888  15.4975187  99.5294080  54.9238379  14.1371358
  98.7539210  56.8729650   6.8557864  98.3144200  56.3806029   7.5490721
  99.5047327  56.3302618   6.6149939  91.2331549  53.0641191   6.8582492
  92.0589569  52.7644963   6.4781136  90.8825601  52.2948814   7.3072281
  96.2013082  52.4167660   8.9280166  95.5793091  51.7538365   8.6282394
  96.8717949  52.4428791   8.2453814  89.4340154  50.9827518   7.8171426
  88.5972062  50.5549692   7.6355427  89.4063799  51.1759961   8.7542217
  96.2737609  40.8949448  18.5212672  96.3225765  41.7711570  18.1390441
  96.8160124  40.3526841  17.9484315 106.7592455  51.4390571  17.8013809
 105.9687999  51.4214710  17.2618308 106.5225810  51.9778865  18.5562846
 106.8790330  48.2883037  15.1146537 106.9288335  48.1233045  16.0562060
 106.7704253  47.4210296  14.7244418  95.7626589  50.9671583   2.4038626
  95.9114709  51.6507047   1.7505299  96.5693032  50.9476673   2.9188082
 104.1694092  44.2713965  16.4305844 105.0703955  44.1320430  16.1389842
 104.2442067  44.4368420  17.3704022  98.5036898  41.6480820  15.2759031
  97.6340207  41.9414386  15.0041619  98.7396378  42.2321265  15.9966294
 108.3808527  50.7079979  15.3588559 108.0893335  51.0709959  16.1952020
 107.7680658  49.9946987  15.1801891 106.6295715  45.8312593  13.8268617
 107.1049837  46.0240240  13.0187468 105.7061281  45.8871779  13.5812001
  93.5179222  46.9936761   3.4099695  93.2725264  46.0899091   3.6079905
  93.6875136  46.9953911   2.4679173 101.2075932  37.8660437  12.7924451
 101.7257876  38.6021464  12.4670939 100.8531064  38.1724430  13.6271210
  92.7874869  42.7265118   0.9085857  92.0944114  42.8009473   0.2525893
  92.5426621  41.9625462   1.4307374  99.2621994  53.4619713  -0.1249626
  98.6895961  54.0809900  -0.5779154  99.8354788  54.0119075   0.4090296
 105.3297384  42.7078353  12.0596923 106.2814807  42.8076451  12.0809147
 105.1600835  41.9156622  12.5695007 103.3511764  39.7933937  12.2456324
 102.7561696  40.0738949  11.5502812 103.0661460  40.2827838  13.0173065
 102.4819254  53.7456863   1.0058956 103.4149927  53.6802425   1.2091832
 102.3942467  54.5813130   0.5473489 107.8085462  45.9284473  11.1739222
 107.7761782  44.9900474  11.3598906 108.4186086  46.0068510  10.4405047
  99.5307485  48.8498272  18.6767083 100.4510495  49.0276871  18.8707130
  99.4957068  47.9054318  18.5246783  88.7489650  44.0436866   7.6020358
  88.4292435  43.1902174   7.3094732  88.2023079  44.2585444   8.3578325
  92.5269558  46.7599307  11.3189864  92.7455568  47.6916415  11.3377898
  92.9395332  46.4007281  12.1044668  97.3997423  42.3332513  20.7092613
  97.2994150  43.2826870  20.6404704  97.1818965  42.0050752  19.8368683
  88.6177910  47.6639777   9.5713480  87.9241382  47.2493730   9.0583434
  89.3650901  47.7060314   8.9746898  97.2628693  45.7629652  19.5257675
  96.7795775  46.5630012  19.7321564  97.3489632  45.7737596  18.5725119
  90.5314653  47.5958031   7.4479494  90.5085341  47.6945718   6.4961377
  90.8415289  48.4423182   7.7696661  93.1902031  49.6534186  11.5626109
  94.1445284  49.6218129  11.4956040  92.9914554  49.1924810  12.3776335
  93.7801413  48.2235302  14.1296906  94.5994302  48.7179381  14.1531744
  94.0538221  47.3067270  14.1014474  91.5452260  55.1953806   8.5796307
  91.4106727  54.4354207   8.0134305  91.1284322  55.9194706   8.1125096
  94.7021385  56.0923123   8.7914749  94.5853770  57.0368555   8.6893440
  93.8813832  55.7896684   9.1800549  89.0336327  42.5573436  14.8289104
  89.6795191  42.0472390  15.3176329  88.8253478  43.2942118  15.4032529
 101.5589719  49.6254284  20.3281244 102.4280879  49.7994936  19.9667879
 101.0796471  50.4448700  20.2056973  95.7275900  56.7451385  12.0070678
  96.6303146  56.7774995  12.3237173  95.5013270  55.8151836  12.0217014
  97.4829502  55.4982371   8.6680756  96.5325133  55.4984233   8.5545129
  97.7861988  54.7515106   8.1516791  93.3733818  39.7041053  18.9264118
  94.2365280  39.3477858  19.1367442  92.7999229  39.3654948  19.6139522
 113.2182195  61.3342910   9.7326519 113.8560605  61.2149657   9.0289859
 113.1003038  62.2823754   9.7914471 110.0271901  61.2870338   9.6688043
 109.6890413  61.1711402   8.7808578 110.8961670  60.8861503   9.6489050
 110.5091684  62.4405189  15.6274249 110.4980325  62.0457988  14.7554753
 110.6712324  61.7071262  16.2208020 103.4323149  64.6357006   8.4969155
 104.2244441  64.2947830   8.0815454 103.6719799  64.7451981   9.4171308
 107.2298945  65.2242301  14.5753433 106.9388811  66.1287932  14.4600099
 107.8655930  65.2658829  15.2897503 108.1555152  62.6019150  11.1654793
 108.7518725  62.3775172  10.4511756 108.2130124  61.8603895  11.7680240
 112.7723464  59.0594363   6.8079727 113.5586553  58.6413787   6.4570144
 113.0362168  59.9640456   6.9761375 115.6957311  52.7091171  12.1707314
 115.3640636  53.5786582  11.9468529 115.1002924  52.3927455  12.8501344
 112.1888831  64.9103717  11.5703227 111.8889554  65.8128756  11.4619034
 111.8439890  64.6435900  12.4224380 105.6401312  61.3617514   7.6039931
 104.7151808  61.2293728   7.8117623 105.8885725  62.1411733   8.1009873
 115.5885974  57.4286257   9.2500664 114.6802852  57.3601665   8.9559425
 115.5373570  57.9058202  10.0782489 103.0010123  61.0050787   8.4383720
 103.1302504  61.2585266   9.3523132 102.3207574  61.5978495   8.1188375
 109.6626840  58.8475902  17.1935561 108.8860174  59.4069823  17.1838426
 110.3017403  59.3332685  17.7150431 117.4547621  55.6302695  11.0278538
 116.8122001  55.9235228  10.3818332 116.9502549  55.5155616  11.8331735
 107.9173212  61.6561356  16.7553528 108.6587897  62.1946400  16.4788352
 107.2110198  62.2827645  16.9125080 113.3928552  63.7990496  15.3525690
 113.8011908  63.3572907  14.6080322 112.6705814  63.2243124  15.6059883
 109.7459622  58.7363103  12.7259247 110.5920817  59.1602517  12.8693896
 109.6858260  58.0796727  13.4197810 112.8959067  56.3967471  14.3840420
 112.6519999  57.1509532  13.8474696 113.1718998  56.7752819  15.2187667
 114.8497530  62.9406084  13.0617686 115.0614425  63.5837844  12.3852067
 114.8027278  62.1068400  12.5939616 112.4523759  55.5523904   9.9654258
 111.5908238  55.8505158  10.2570996 112.4786194  55.7694303   9.0335291
 106.1609410  63.6437577   9.3107827 106.7310767  64.0724845   8.6725311
 106.7517521  63.3620161  10.0092013 106.6534576  58.8101004  17.5568838
 106.0233237  59.4917285  17.7904235 106.5470664  58.6984086  16.6121977
 101.9479549  58.4772800   8.4834762 101.1578603  58.7330329   8.0074873
 102.4390796  59.2921138   8.5886803 103.8994294  58.8417379   5.4418239
 103.1025457  58.9536074   5.9601735 103.6719886  59.1804032   4.5759130
 109.7299962  65.3662083  13.3900754 109.7944394  65.8282490  14.2258926
 109.0210885  64.7359447  13.5183064 100.2317252  58.7303290  10.9149753
 100.4825290  59.6150300  11.1807329 100.7676800  58.5507892  10.1424845
 105.9315319  53.1121770  19.9194089 105.5382264  52.5587968  20.5941734
 106.7481459  53.4232348  20.3100607 108.8483280  54.5279649  17.5114346
 109.5892993  55.1286802  17.4318808 109.0801203  53.7857287  16.9532388
 103.9924618  59.7136016  15.7892576 103.8778133  58.8121273  16.0899674
 103.1369136  59.9599713  15.4377392 111.0716456  67.6553757  17.3880076
 110.6280310  66.8690135  17.0700981 111.7333669  67.8432907  16.7223967
 105.8303577  69.1849558  11.9140755 106.3811002  69.0566621  11.1417749
 104.9915053  69.4844447  11.5635647 113.1697694  67.9356556  15.4161477
 113.1516169  68.7565437  14.9241747 114.0917614  67.8110632  15.6411619
 109.6270748  65.4500686  16.2584986 110.1599085  64.6888974  16.0284294
 109.0984829  65.1574338  17.0009140 112.7940443  50.5560752  11.7878628
 112.4504712  51.4462394  11.7117738 113.1619405  50.3662410  10.9248213
 100.8626293  62.8794282   4.6067230 101.7001515  63.2891291   4.3900937
 101.0404561  61.9393725   4.5767424 111.8736983  52.9265407   9.7527861
 111.3701779  52.8895542   8.9395666 112.1667590  53.8358150   9.8124517
 108.1179869  53.0104137   8.7594043 108.9832866  52.8146945   8.3999932
 108.1857378  52.7814489   9.6863399 105.7242188  55.2406345   6.1310409
 106.2985940  55.0181526   5.3983602 106.3113171  55.3095039   6.8839011
 111.2602596  58.6029527   9.1833126 110.3425158  58.8244474   9.0254814
 111.6762740  58.6775838   8.3244834 100.8852465  60.2184998   5.2777963
 100.6876864  59.6254358   4.5529030 100.3299129  59.9137208   5.9953902
 108.8649188  60.1108104   7.3972556 108.9197798  59.1581941   7.3215033
 108.0540390  60.2667543   7.8813855 106.8041548  58.7285164   5.1562935
 105.9909414  59.0279334   5.5628127 107.3000542  58.3340853   5.8737417
 112.4015760  59.1926988  13.9877829 112.7565148  59.4198461  14.8472295
 113.0487891  59.5245365  13.3655084 106.2955623  56.3003519  10.7724170
 106.9355002  56.1592279  10.0747133 105.4633153  56.0138033  10.3962772
 111.8910771  67.9824045  11.2371530 111.9447794  68.5514982  12.0049246
 111.0225553  68.1525930  10.8725567 103.2984239  56.2703844   5.5497157
 103.5591057  57.1849178   5.4406317 104.1201412  55.8028287   5.6993770
 104.7709165  57.6841602  12.7195981 105.4432218  57.4758964  12.0708630
 103.9438951  57.4863688  12.2801214 110.6734737  54.3103542  14.7361642
 110.0262652  55.0093492  14.6426119 111.4435752  54.7439686  15.1037891
 114.0813535  64.5752395  17.8112196 113.9299041  64.3462946  16.8942279
 114.0718214  65.5322996  17.8243541 110.8498871  62.1484307  12.7958462
 111.7790931  62.2995467  12.6227429 110.4289901  62.2368328  11.9407109
 109.6487203  66.1734972  10.5657000 109.5098288  65.8053756  11.4382938
 108.8601799  66.6882611  10.3940957 105.1736662  60.9584205  13.4798419
 105.0356460  60.2264443  14.0809958 106.0841585  60.8693105  13.1982606
 107.8018963  60.6704164  12.9682098 108.5118581  60.0297356  12.9268717
 107.7588271  60.9217059  13.8908279 115.7905741  67.6071517  15.8888677
 115.7318287  66.9230737  15.2219260 116.1925260  68.3490507  15.4369303
 106.5147897  57.6569382  14.7877738 105.9785254  57.2060120  15.4399334
 105.9264605  57.7915291  14.0448202 115.7923149  65.5711101  14.1202657
 114.9049927  65.2337023  14.2429056 116.3621700  64.8394132  14.3571423
  97.4452296  61.9035193   7.4445709  98.1323335  61.5896923   6.8566724
  97.2900424  62.8076558   7.1712960 102.2487018  56.7925389  11.8730732
 102.1645207  56.1851059  11.1381142 101.4269724  57.2834408  11.8740229
 111.7822985  70.1299388  13.2422059 112.4950958  70.7646852  13.1697960
 111.2913014  70.2263254  12.4262061 109.0045700  57.4196336   6.9672612
 108.6343488  56.8667376   7.6553517 109.5004793  56.8154469   6.4147612
 106.8334899  67.8793831  14.0627630 107.5344358  68.5130314  14.2157024
 106.3630014  68.2208563  13.3023269 114.6336185  60.4338438  11.8880180
 113.9807635  60.6814346  11.2332633 115.0116565  59.6202577  11.5542657
 110.6823758  61.1758249  18.3746217 110.0064395  61.0752379  19.0448592
 111.5051392  61.0197463  18.8382214 102.4302617  67.4130186  10.9958732
 103.0156054  66.6673874  11.1286637 102.2327455  67.7234143  11.8795396
  97.0220272  59.9835786   9.7163176  97.0604371  59.4499377  10.5100294
  96.5160565  59.4570992   9.0974153 104.4011034  54.8300327  13.2125718
 104.4652361  55.6915158  12.8003116 104.3378154  54.2174328  12.4798076
 103.8763307  56.9023459  16.8598752 104.5035345  56.5200537  17.4736277
 103.0191225  56.6837661  17.2254445 114.2757415  67.3086434  18.4652488
 114.8197319  67.9216393  17.9707442 113.6944260  67.8666013  18.9819501
 100.6528849  58.7099888   2.7917107 100.9482290  57.8010567   2.7384161
  99.7516885  58.6887628   2.4698109 104.1823096  56.7855885   8.7744656
 103.4609682  57.3991853   8.6352129 104.9716352  57.3213650   8.6961302
 106.9849410  54.1210311  15.0485307 107.5083812  54.3672608  15.8111617
 106.7661743  54.9530346  14.6288445 102.3816691  56.3913986   2.9156432
 102.0529397  55.5111365   2.7331538 102.7356062  56.3361655   3.8032821
 105.4958514  56.6786956   3.2831910 105.8354587  57.2072877   2.5610518
 105.9430635  57.0167362   4.0590476 108.1901955  55.0624007  12.7334978
 107.8498775  54.2631820  13.1355658 107.4840961  55.3625717  12.1611811
 108.8418427  52.1473319  11.1862301 109.6644496  51.6733797  11.0641191
 109.0856490  52.9263803  11.6860987 106.3657005  58.8392440   8.9954280
 106.2201586  59.1532743   9.8878561 105.8882209  59.4577340   8.4425178
 108.2253388  55.8294988   9.0435169 108.2114957  54.9336081   8.7067467
 108.9425816  55.8365651   9.6773455 110.0779519  56.2632328  11.0888297
 109.8197297  57.1849398  11.0872627 109.5464559  55.8662762  11.7788761
 100.8402668  61.3797784  11.9341941 100.2956136  62.1557592  12.0662215
 101.7182018  61.7268589  11.7761062 107.6290284  54.7109368   4.3122739
 107.7506196  53.7826014   4.5113627 107.3392327  54.7248054   3.4001055
 101.6268690  60.5067680  14.8272098 100.8850426  60.6550316  15.4136728
 101.3061434  60.7675946  13.9638847 109.5712352  70.0483659  14.6252488
 109.8799479  69.8032805  15.4975187 110.3687834  70.2530297  14.1371358
 100.2733908  66.3119435   7.8171426  99.4365817  65.8841610   7.6355427
 100.2457554  66.5051879   8.7542217 107.1131364  56.2241365  18.5212672
 107.1619519  57.1003488  18.1390441 107.6553878  55.6818758  17.9484315
 117.5986210  66.7682489  17.8013809 116.8081753  66.7506627  17.2618308
 117.3619564  67.3070782  18.5562846 117.7184085  63.6174955  15.1146537
 117.7682090  63.4524962  16.0562060 117.6098008  62.7502214  14.7244418
 115.0087847  59.6005883  16.4305844 115.9097710  59.4612348  16.1389842
 115.0835821  59.7660338  17.3704022 109.3430652  56.9772738  15.2759031
 108.4733962  57.2706304  15.0041619 109.5790133  57.5613183  15.9966294
 119.2202281  66.0371896  15.3588559 118.9287090  66.4001877  16.1952020
 118.6074413  65.3238905  15.1801891 117.4689470  61.1604511  13.8268617
 117.9443591  61.3532157  13.0187468 116.5455035  61.2163697  13.5812001
 112.0469686  53.1952355  12.7924451 112.5651630  53.9313382  12.4670939
 111.6924819  53.5016348  13.6271210 116.1691139  58.0370271  12.0596923
 117.1208562  58.1368369  12.0809147 115.9994589  57.2448540  12.5695007
 114.1905518  55.1225854  12.2456324 113.5955450  55.4030867  11.5502812
 113.9055215  55.6119755  13.0173065 118.6479216  61.2576391  11.1739222
 118.6155537  60.3192392  11.3598906 119.2579840  61.3360428  10.4405047
 110.3701240  64.1790190  18.6767083 111.2904249  64.3568789  18.8707130
 110.3350823  63.2346235  18.5246783  99.5883405  59.3728784   7.6020358
  99.2686189  58.5194092   7.3094732  99.0416833  59.5877362   8.3578325
 103.3663312  62.0891225  11.3189864 103.5849322  63.0208332  11.3377898
 103.7789086  61.7299199  12.1044668 108.2391178  57.6624430  20.7092613
 108.1387905  58.6118787  20.6404704 108.0212720  57.3342669  19.8368683
  99.4571665  62.9931695   9.5713480  98.7635136  62.5785648   9.0583434
 100.2044656  63.0352232   8.9746898 108.1022448  61.0921569  19.5257675
 107.6189529  61.8921929  19.7321564 108.1883387  61.1029514  18.5725119
 101.3708407  62.9249949   7.4479494 101.3479095  63.0237636   6.4961377
 101.6809044  63.7715100   7.7696661 104.0295785  64.9826104  11.5626109
 104.9839039  64.9510046  11.4956040 103.8308309  64.5216728  12.3776335
 104.6195167  63.5527220  14.1296906 105.4388056  64.0471299  14.1531744
 104.8931975  62.6359188  14.1014474  99.8730082  57.8865354  14.8289104
 100.5188945  57.3764308  15.3176329  99.6647233  58.6234035  15.4032529
 112.3983474  64.9546201  20.3281244 113.2674633  65.1286854  19.9667879
 111.9190225  65.7740618  20.2056973 106.5669654  72.0743302  12.0070678
 107.4696901  72.1066913  12.3237173 106.3407024  71.1443753  12.0217014
 104.2127573  55.0332971  18.9264118 105.0759034  54.6769776  19.1367442
 103.6392983  54.6946866  19.6139522 116.7709073  68.4413688  19.9194089
 116.3776019  67.8879886  20.5941734 117.5875214  68.7524266  20.3100607
 119.6877034  69.8571567  17.5114346 120.4286748  70.4578720  17.4318808
 119.9194957  69.1149204  16.9532388 114.7157061  72.2315377  16.8598752
 115.3429100  71.8492454  17.4736277 113.8584980  72.0129579  17.2254445
 117.9525118  71.5533283  18.5212672 118.0013274  72.4295406  18.1390441
 118.4947633  71.0110676  17.9484315 119.0784932  72.9916348  20.7092613
 118.9781659  73.9410705  20.6404704 118.8606474  72.6634587  19.8368683
 110.7123836  73.2157271  14.8289104 111.3582700  72.7056225  15.3176329
 110.5040987  73.9525953  15.4032529 115.0521327  70.3624889  18.9264118
 115.9152789  70.0061693  19.1367442 114.4786738  70.0238783  19.6139522
   4.8218044  77.4908711  87.2353172   4.0681753  76.9216109  87.0797176
   4.9565585  77.4571375  88.1823807   1.6433792  77.4611461  85.1396839
   2.0864938  76.7118786  84.7415962   0.7660302  77.4521597  84.7570571
   1.1866657  78.9316699  87.5319286   2.0213548  79.3706503  87.6956847
   1.3225786  78.4555352  86.7127532   5.2324459  77.6484321  89.9673416
   5.9627848  77.3869609  90.5281119   4.6231405  76.9113043  90.0075484
   3.3139756  75.7892183  90.5647867   2.5872920  75.6548148  89.9564359
   2.8987043  76.0969012  91.3704585   0.9317551  72.0104035  87.9181299
   1.5262042  71.7699771  87.2074607   1.0044135  71.2911166  88.5454835
   3.2388624  75.3170236  86.6924720   2.6788182  75.3863426  87.4656282
   2.6332128  75.1411221  85.9724216   4.8244643  91.9926750  89.3854676
   5.4623053  91.8733498  88.6818016   4.7065485  92.9407594  89.4442628
   1.6334349  91.9454178  89.3216201   1.2952860  91.8295243  88.4336735
   2.5024117  91.5445343  89.3017207   3.0720723  97.4660622  80.6227556
   2.4208703  98.0514703  80.2361570   3.8665086  97.9966817  80.6822594
   4.3785911  89.7178204  86.4607884   5.1649000  89.2997627  86.1098301
   4.6424615  90.6224296  86.6289532   4.5495988  95.1551054  81.1596541
   3.9141821  95.2285681  81.8717445   4.2193395  95.7444653  80.4815620
   9.7794338  89.6553437  87.3640862  10.5119510  89.0852654  87.5978692
   9.0233694  89.2675038  87.8047368   1.3970458  92.0780679  84.5604205
   1.0328665  91.5511300  85.2717126   2.2537574  91.6879148  84.3870690
   7.3019759  83.3675011  91.8235471   6.9703083  84.2370422  91.5996686
   6.7065372  83.0511295  92.5029501   1.0375945  87.1070578  79.5565553
   1.2050347  87.9750815  79.9236024   0.8473114  87.2697860  78.6326843
   3.7951278  95.5687557  91.2231384   3.4952001  96.4712596  91.1147191
   3.4502338  95.3019741  92.0752537   7.1948422  88.0870098  88.9028821
   6.2865299  88.0185506  88.6087582   7.1436018  88.5642043  89.7310647
   9.0610068  86.2886536  90.6806695   8.4184449  86.5819069  90.0346490
   8.5564997  86.1739456  91.4859892   6.7150232  90.0349709  81.3692554
   7.6268088  90.2677096  81.1940252   6.2059879  90.6186753  80.8067633
   4.9991000  94.4574337  95.0053847   5.4074356  94.0156748  94.2608479
   4.2768261  93.8826965  95.2588040   1.3522070  89.3946944  92.3787404
   2.1983265  89.8186357  92.5222053   1.2920707  88.7380568  93.0725967
   5.3219814  95.0175528  88.7606136   4.6928677  95.1821242  88.0582204
   4.9345476  95.4317137  89.5317100   9.2009046  95.9529965  86.1150499
   8.5160084  96.3328867  85.5647533   9.2852895  96.5625292  86.8482447
   4.5021515  87.0551312  94.0368577   4.2582447  87.8093373  93.5002853
   4.7781445  87.4336660  94.8715824   6.4559978  93.5989924  92.7145843
   6.6676873  94.2421684  92.0380224   6.4089726  92.7652241  92.2467773
   4.0586207  86.2107745  89.6182415   3.1970686  86.5088999  89.9099153
   4.0848641  86.4278144  88.6863448   0.8747776  94.7549936  86.0256221
   1.3386122  95.0337639  85.2360843   0.6104574  93.8533380  85.8429311
   7.5705806  96.4761880  90.8868200   8.3923249  96.0742067  90.6050882
   7.5668209  96.3730114  91.8384316  15.6611799  92.8200628  87.2353172
  14.9075507  92.2508026  87.0797176  15.7959340  92.7863293  88.1823807
   1.0510427  97.6914031  82.9107891   0.9156102  98.5365566  83.3392739
   1.5920239  97.8933308  82.1473825   4.4002890  81.2144593  91.4406785
   4.0567160  82.1046234  91.3645895   4.7681853  81.0246250  90.5776370
   4.3653173  91.2053204  79.9479220   3.8499797  91.9757808  80.1867607
   4.0930482  90.5318340  80.5712281   1.9500284  86.0502904  85.0064458
   1.0941880  85.6609755  84.8270097   2.3627236  86.1294865  84.1464244
   3.4799431  83.5849248  89.4056018   2.9764226  83.5479383  88.5923823
   3.7730038  84.4941990  89.4652675   9.3387447  93.9585558  81.8832393
   8.5616890  93.6196718  81.4387555  10.0178928  93.9638181  81.2087358
   4.1539476  89.0780296  81.7739001   3.8489612  89.3926445  82.6249144
   5.1069918  89.1561716  81.8166334   2.5985908  95.2370519  83.4231955
   2.0707270  94.5023279  83.1105192   2.0973411  96.0145195  83.1771923
   7.5778754  93.4319540  88.5399001   6.9202429  94.1218801  88.6279130
   8.3819153  93.8215972  88.8832988   6.3884213  91.7863912  86.5902943
   6.9016095  92.4193904  87.0924653   7.0385437  91.1865108  86.2246303
   3.6506587 101.7648237  79.3463614   2.9768286 102.0679933  79.9548572
   4.0372409 102.5677317  78.9969071   2.8665044  89.2613368  88.8361283
   1.9487605  89.4828315  88.6782972   3.2825187  89.3359678  87.9772991
   3.6500092  90.6604783  83.9663964   4.3971911  91.1726181  83.6571086
   3.9191681  90.3388836  84.8268357   1.9226742  93.1563324  80.9490918
   1.0137961  92.8722357  81.0463388   1.9521826  93.5762403  80.0894225
   7.1546009  96.7669914  84.7182086   6.7008336  95.9260824  84.7747276
   6.5239976  97.4031312  85.0556866   6.0978929  87.6961900  85.9482753
   5.3601686  87.1839286  86.2792996   6.3505702  87.2562281  85.1366030
   5.5978948  98.6046410  85.6531904   5.8901923  99.1651468  84.9344269
   6.1077569  98.8974971  86.4085063   6.1990556  80.4738152  86.5424522
   6.5049433  79.6135515  86.2550437   6.9243161  81.0655772  86.3423516
   1.6202830  94.6972068  78.2878997   1.1822259  93.9807927  77.8284634
   2.3613270  94.9248183  77.7264088   0.5612574  99.3826761  86.7425357
   0.5188752  99.6087608  85.8133889   1.4775272  99.1490136  86.8911158
   4.0078207  89.8510829  93.6405986   4.3627595  90.0782302  94.5000452
   4.6550339  90.1829206  93.0183241   9.7375944  92.9729265  84.3455315
   9.5993843  93.1630861  83.4176504   9.3812163  93.7348648  84.8023366
   9.7645324  95.0405792  89.3566587  10.1981831  94.9481081  90.2049641
  10.4776905  95.0163292  88.7186603   3.4973219  98.6407886  90.8899687
   3.5510241  99.2098822  91.6577403   2.6288000  98.8109771  90.5253724
  10.6260873  95.0829493  91.8899472  10.8196764  95.9875303  92.1358747
  10.5261492  94.6236912  92.7238057   2.2797184  84.9687383  94.3889799
   1.6325099  85.6677333  94.2954276   3.0498200  85.4023527  94.7566048
   2.4561319  92.8068148  92.4486619   3.3853379  92.9579308  92.2755586
   2.0352349  92.8952169  91.5935266   1.8497802 101.9327909  81.5610693
   2.0249558 101.4615952  82.3756316   1.1630590 102.5593675  81.7891954
   2.8054866  96.2100415  87.6073995   2.4704698  96.1701185  88.5031644
   2.3058811  95.5445131  87.1344405   5.7414057  93.5556450  77.8811054
   5.1243228  92.8303278  77.7844107   5.2730546  94.3165810  77.5378128
   7.3968189  98.2655358  95.5416835   7.3380735  97.5814578  94.8747418
   7.7987707  99.0074348  95.0897461   7.3985596  96.2294942  93.7730814
   6.5112375  95.8920864  93.8957213   7.9684147  95.4977973  94.0099580
   4.0273179  85.9362794  86.8929084   4.5241879  85.1832756  86.5730155
   3.2560161  85.9727110  86.3272294  11.8802937  91.6403159  88.5347376
  11.8692813  92.5227875  88.1641309  11.0120316  91.2874710  88.3401913
   5.1102960  94.6934481  84.4667508   4.1759239  94.8135943  84.2972212
   5.2879628  93.7906948  84.2027518   8.4975511  90.5351800  85.0017542
   8.9635963  91.3679792  84.9277845   8.9483012  90.0696782  85.7062800
   6.5651742  96.8795621  82.0003694   6.8411586  96.7652216  82.9097568
   5.6956241  96.4813106  81.9615867   6.4692174  82.9032387  89.0408443
   5.5555254  83.1336614  89.2090650   6.8985275  82.9870831  89.8922476
   6.2398632  91.0922279  91.5408337   5.5870083  91.3398187  90.8860790
   6.6179012  90.2786417  91.2070815   3.2005806 101.1281972  85.6436508
   3.3828201 100.3103628  86.1064260   4.0238792 101.3449665  85.2061398
   3.5347972 100.0550157  82.9051556   4.0635738  99.5442612  82.2921718
   3.7976191  99.7392688  83.7697089   4.1677376 101.0890993  89.2495673
   4.0428515 100.2880733  88.7406618   4.8256467 101.5837187  88.7609642
   6.2312284  98.8900013  90.8775223   5.2842620  98.7705364  90.8053549
   6.5795057  98.0022511  90.9601484   3.2358717  98.6852729  87.0779575
   3.0883680  97.7569437  87.2587145   4.0612211  98.7072820  86.5936650
   6.8392839  99.5081288  88.1644448   7.7639387  99.3024150  88.0268899
   6.6708143  99.2597689  89.0733789   3.2320232  86.5390567  82.0711692
   3.4483846  87.4215205  81.7700520   2.7514299  86.1476781  81.3417334
   1.6841967  86.9216169  90.7416454   1.4259744  87.8433239  90.7400784
   1.1527007  86.5246603  91.4316918   6.6288155 100.0266956  83.5206539
   6.8025033  99.4613378  82.7680391   7.1217047 100.8267851  83.3386029
   2.1043922  83.0548119  87.1017616   2.1265619  83.1187452  86.1469596
   2.5211981  82.2152628  87.2958122  12.4827547  92.7903379  85.1396839
  12.9258693  92.0410704  84.7415962  11.6054057  92.7813515  84.7570571
   7.6163328  99.3433720  80.6203437   8.3114233  99.9640413  80.8390752
   7.9586478  98.4929071  80.8955815   9.5154751  96.7933426  82.1490768
  10.0406075  97.1320698  81.4240088   9.4277104  95.8580441  81.9653903
   1.1995412 102.8605409  86.5086021   0.7600402 102.3681788  87.2018878
   1.9503529 102.3178377  86.2678097   9.3246532  94.2758796  94.7674695
   9.3744537  94.1108803  95.7090217   9.2160455  93.4086055  94.3772575
   6.6150295  90.2589724  96.0834001   7.5160157  90.1196188  95.7917999
   6.6898269  90.4244178  97.0232179  10.8264729  96.6955737  95.0116716
  10.5349537  97.0585718  95.8480177  10.2136860  95.9822745  94.8330048
  12.0260411  94.2608617  87.5319286  12.8607303  94.6998421  87.6956847
  12.1619540  93.7847270  86.7127532   9.0751917  91.8188352  93.4796774
   9.5506039  92.0115998  92.6715625   8.1517483  91.8747538  93.2340158
   3.6532134  83.8536195  92.4452608   4.1714078  84.5897222  92.1199097
   3.2987266  84.1600189  93.2799367   3.9044728  80.2736478  87.9653505
   4.1846482  79.6059667  88.5913931   4.6895335  80.4665573  87.4528168
   1.7078196  99.4495472  79.5278531   1.1352163 100.0685659  79.0749003
   2.2810990  99.9994833  80.0618453   7.7753586  88.6954112  91.7125080
   8.7271009  88.7952209  91.7337304   7.6057037  87.9032380  92.2223164
   5.7967966  85.7809695  91.8984481   5.2017898  86.0614708  91.2030969
   5.5117662  86.2703596  92.6701222   4.9275456  99.7332622  80.6587113
   5.8606129  99.6678184  80.8619989   4.8398669 100.5688889  80.2001646
   7.5563473  99.0498492  77.6191061   7.4777104  98.7158356  78.5126819
   8.3773140  99.5420260  77.6182533  10.2541664  91.9160232  90.8267379
  10.2217984  90.9776232  91.0127063  10.8642288  91.9944268  90.0933204
   2.0924995  90.7856284  76.8694583   3.0384100  90.6562493  76.9383001
   1.7139240  90.0470946  77.3464012  10.4036152  88.7071275  90.8725663
   9.8875201  87.9229732  90.6855591  11.2876101  88.3789992  91.0372182
   8.0646879  82.4512291  86.8321475   7.8671701  82.1427379  87.7164807
   8.6746585  83.1773929  86.9619405  16.0718214  92.9776238  89.9673416
  16.8021602  92.7161526  90.5281119  15.4625159  92.2404960  90.0075484
  14.1533511  91.1184101  90.5647867  13.4266675  90.9840066  89.9564359
  13.7380798  91.4260930  91.3704585   1.8929978  83.2543151  82.9593710
   1.0830706  82.9090236  83.3348956   2.5814395  82.9450694  83.5481321
   3.8220526  82.3321197  84.5818007   4.3751565  82.7516651  85.2408030
   4.0590612  81.4056946  84.6240963   7.1999333  84.4421723  84.0896671
   6.6198002  85.1006527  83.7074723   6.9335266  83.6199067  83.6784088
   5.6502899  83.8426780  86.2917991   6.1502678  83.9543315  85.4832310
   6.2938507  83.5387833  86.9318800   5.9824211  86.6021813  83.1453019
   5.0950066  86.8871464  82.9273214   6.3978200  86.4415576  82.2980296
   9.3338747  86.6268334  86.8607358  10.1099137  87.1164786  87.1331975
   8.6086881  87.0526388  87.3179228  11.7711306  87.3395953  87.9181299
  12.3655797  87.0991689  87.2074607  11.8437890  86.6203084  88.5454835
   5.1267425  96.3666488  77.2401039   5.8303275  96.5716490  77.8558695
   4.4030073  96.9343249  77.5050123   5.9565235  92.1176349  83.3603309
   5.9000436  92.5744900  82.5210942   6.5093577  91.3567033  83.1826152
   9.7670041  87.9066081  84.1853429   9.5106975  87.5062716  85.0161636
   9.1422909  88.6209875  84.0603568  14.0782379  90.6462154  86.6924720
  13.5181937  90.7155343  87.4656282  13.4725882  90.4703139  85.9724216
   7.0354122  96.8049017  79.2899499   7.8699726  96.3730215  79.1076974
   6.8738465  96.6331030  80.2176394   6.6900014  93.3081130  80.6555838
   6.6348818  93.1425402  79.7144283   6.0646069  94.0157163  80.8118028
   3.8148259  79.4032016  84.4887094   3.0480655  78.8490502  84.6343776
   4.2258964  79.4753885  85.3501245  15.6638397 107.3218668  89.3854676
  16.3016807 107.2025415  88.6818016  15.5459240 108.2699512  89.4442628
  12.4728103 107.2746096  89.3216201  12.1346615 107.1587161  88.4336735
  13.3417872 106.8737261  89.3017207  10.1736383 106.0434343  78.6533141
  10.4261903 105.5215865  77.8916604   9.2360942 105.8800489  78.7559824
  15.2179666 105.0470122  86.4607884  16.0042755 104.6289545  86.1098301
  15.4818370 105.9516214  86.6289532  20.6188093 104.9845355  87.3640862
  21.3513265 104.4144572  87.5978692  19.8627448 104.5966955  87.8047368
  12.2364212 107.4072596  84.5604205  11.8722420 106.8803217  85.2717126
  13.0931328 107.0171066  84.3870690  18.1413513  98.6966929  91.8235471
  17.8096838  99.5662340  91.5996686  17.5459126  98.3803213  92.5029501
  11.8769699 102.4362496  79.5565553  12.0444102 103.3042733  79.9236024
  11.6866868 102.5989778  78.6326843  18.0342176 103.4162015  88.9028821
  17.1259054 103.3477424  88.6087582  17.9829772 103.8933960  89.7310647
  11.8558920 104.8920154  80.5412220  11.7358545 105.3377204  81.3797700
  11.1611509 105.2405471  79.9825758  19.9003823 101.6178454  90.6806695
  19.2578203 101.9110987  90.0346490  19.3958751 101.5031374  91.4859892
  17.5543986 105.3641627  81.3692554  18.4661843 105.5969014  81.1940252
  17.0453634 105.9478671  80.8067633  15.8384754 109.7866255  95.0053847
  16.2468110 109.3448665  94.2608479  15.1162016 109.2118882  95.2588040
  12.1915824 104.7238861  92.3787404  13.0377019 105.1478275  92.5222053
  12.1314462 104.0672486  93.0725967  15.3415269 102.3843230  94.0368577
  15.0976201 103.1385290  93.5002853  15.6175200 102.7628577  94.8715824
  17.2953732 108.9281842  92.7145843  17.5070627 109.5713602  92.0380224
  17.2483480 108.0944159  92.2467773  14.8979961 101.5399663  89.6182415
  14.0364440 101.8380916  89.9099153  14.9242396 101.7570062  88.6863448
  10.6510417 106.2065006  82.8345786  11.3534460 106.6586049  83.3019712
  10.3191045 105.5648825  83.4625679   4.3935751 104.4648558  88.1362920
   3.6034805 104.7206087  87.6603030   4.8846998 105.2796896  88.2414960
   6.3450496 104.8293138  85.0946396   5.5481659 104.9411832  85.6129892
   6.1176088 105.1679790  84.2287287  26.5005553 108.1492546  87.2353172
  25.7469262 107.5799944  87.0797176  26.6353094 108.1155211  88.1823807
  11.2939482 100.5155407  97.1642503  12.0349195 101.1162560  97.0846965
  11.5257405  99.7733045  96.6060546  15.2396645  96.5436510  91.4406785
  14.8960914  97.4338152  91.3645895  15.6075607  96.3538168  90.5776370
  15.2046928 106.5345121  79.9479220  14.6893551 107.3049726  80.1867607
  14.9324236 105.8610258  80.5712281  12.7894039 101.3794822  85.0064458
  11.9335635 100.9901673  84.8270097  13.2020990 101.4586783  84.1464244
  14.3193185  98.9141165  89.4056018  13.8157981  98.8771301  88.5923823
  14.6123792  99.8233908  89.4652675  10.5636071  98.9979895  88.4122200
  11.4289068  98.8022704  88.0528089  10.6313580  98.7690247  89.3391556
  20.1781202 109.2877476  81.8832393  19.4010644 108.9488635  81.4387555
  20.8572683 109.2930099  81.2087358  14.9933231 104.4072213  81.7739001
  14.6883366 104.7218363  82.6249144  15.9463673 104.4853633  81.8166334
  18.4172509 108.7611457  88.5399001  17.7596183 109.4510719  88.6279130
  19.2212908 109.1507889  88.8832988   8.1698390 101.2282103  85.7838566
   8.7442142 101.0057285  85.0511759   8.7569373 101.2970798  86.5367168
  17.2277967 107.1155830  86.5902943  17.7409849 107.7485822  87.0924653
  17.8779191 106.5157025  86.2246303   8.4967977 103.2586564  79.8034452
   7.6605290 103.5961251  80.1243726   8.3572747 103.1235544  78.8661589
  10.4721058  98.1023352  84.5113636   9.8185470  97.7872369  83.8870251
  10.4301532  97.4799092  85.2373459  11.5832263 108.3842647  76.4266928
  10.6759325 108.1531900  76.6258077  12.0803295 107.5880266  76.6140909
  13.7058798 104.5905285  88.8361283  12.7881360 104.8120233  88.6782972
  14.1218942 104.6651596  87.9772991  14.4893846 105.9896701  83.9663964
  15.2365665 106.5018098  83.6571086  14.7585436 105.6680754  84.8268357
  12.7620496 108.4855242  80.9490918  11.8531715 108.2014275  81.0463388
  12.7915580 108.9054320  80.0894225  16.9372683 103.0253817  85.9482753
  16.1995440 102.5131204  86.2792996  17.1899457 102.5854199  85.1366030
  17.0384311  95.8030069  86.5424522  17.3443187  94.9427433  86.2550437
  17.7636915  96.3947690  86.3423516  11.3105390 106.0983862  87.0500713
  11.3654000 105.1457699  86.9743190  10.4996592 106.2543302  87.5342012
   9.2497750 104.7160922  84.8091092   8.4365616 105.0155093  85.2156284
   9.7456744 104.3216611  85.5265574  14.8471962 105.1802747  93.6405986
  15.2021350 105.4074220  94.5000452  15.4944093 105.5121124  93.0183241
  20.5769699 108.3021183  84.3455315  20.4387597 108.4922779  83.4176504
  20.2205918 109.0640565  84.8023366   8.7411825 102.2879278  90.4252327
   9.3811204 102.1468037  89.7275291   7.9089355 102.0013791  90.0490929
  20.6039078 110.3697710  89.3566587  21.0375585 110.2772999  90.2049641
  21.3170659 110.3455210  88.7186603   5.8254892 105.7324790  82.6147072
   4.8952480 105.6709245  82.8317034   5.9212364 105.2100743  81.8183714
   5.7440441 102.2579603  85.2025314   6.0047259 103.1724936  85.0934474
   6.5657614 101.7904045  85.3521927  21.4654628 110.4121410  91.8899472
  21.6590518 111.3167221  92.1358747  21.3655246 109.9528829  92.7238057
  13.1190939 100.2979301  94.3889799  12.4718854 100.9969251  94.2954276
  13.8891954 100.7315445  94.7566048  13.2955073 108.1360066  92.4486619
  14.2247133 108.2871225  92.2755586  12.8746103 108.2244087  91.5935266
  16.5807812 108.8848367  77.8811054  15.9636982 108.1595195  77.7844107
  16.1124300 109.6457727  77.5378128   8.3706358 103.1033792  77.0032358
   7.4935824 102.9822592  76.6394605   8.8464111 102.3119870  76.7511247
  14.8666934 101.2654711  86.8929084  15.3635633 100.5124674  86.5730155
  14.0953915 101.3019028  86.3272294  22.7196691 106.9695077  88.5347376
  22.7086567 107.8519792  88.1641309  21.8514071 106.6166628  88.3401913
  11.4501902 103.4072094  86.6200769  11.0799690 102.8543135  87.3081675
  11.9460995 102.8030228  86.0675769  19.3369266 105.8643718  85.0017542
  19.8029718 106.6971709  84.9277845  19.7876766 105.3988699  85.7062800
  17.3085928  98.2324305  89.0408443  16.3949008  98.4628532  89.2090650
  17.7379030  98.3162749  89.8922476  17.0792387 106.4214197  91.5408337
  16.4263837 106.6690104  90.8860790  17.4572767 105.6078335  91.2070815
   6.8467236 100.8176085  92.8653875   6.9108563 101.6790916  92.4531273
   6.7834356 100.2050087  92.1326234   3.0985051 104.6975647  82.4445264
   3.3938492 103.7886325  82.3912318   2.1973087 104.6763386  82.1226266
   6.6279298 102.7731643  88.4272813   5.9065884 103.3867611  88.2880286
   7.4172554 103.3089408  88.3489459   9.4305612 100.1086070  94.7013464
   9.9540014 100.3548366  95.4639774   9.2117945 100.9406105  94.2816602
   4.8272893 102.3789744  82.5684589   4.4985599 101.4987123  82.3859695
   5.1812264 102.3237413  83.4560979   7.9414716 102.6662714  82.9360067
   8.2810789 103.1948635  82.2138675   8.3886837 103.0043120  83.7118634
  10.6358157 101.0499765  92.3863135  10.2954977 100.2507578  92.7883815
   9.9297163 101.3501476  91.8139968  11.2874629  98.1349077  90.8390458
  12.1100698  97.6609556  90.7169348  11.5312692  98.9139561  91.3389144
   9.9282863 101.1637336  81.1353360  10.6491226 101.5418589  80.6317077
   9.3048167 101.8826213  81.2388338  14.0713986 101.8682485  82.0711692
  14.2877601 102.7507123  81.7700520  13.5908053 101.4768698  81.3417334
   8.8113208 104.8268198  88.6482437   8.6657788 105.1408501  89.5406718
   8.3338411 105.4453098  88.0953335  10.6709590 101.8170746  88.6963326
  10.6571159 100.9211839  88.3595624  11.3882019 101.8241410  89.3301612
  12.5235721 102.2508086  90.7416454  12.2653499 103.1725157  90.7400784
  11.9920762 101.8538521  91.4316918  10.0746486 100.6985126  83.9650896
  10.1962398  99.7701772  84.1641784   9.7848529 100.7123812  83.0529212
  12.9437677  98.3840037  87.1017616  12.9659374  98.4479370  86.1469596
  13.3605736  97.5444545  87.2958122  23.3221301 108.1195296  85.1396839
  23.7652447 107.3702621  84.7415962  22.4447811 108.1105433  84.7570571
  20.1640287 109.6050713  94.7674695  20.2138292 109.4400721  95.7090217
  20.0554210 108.7377972  94.3772575  17.4544049 105.5881641  96.0834001
  18.3553912 105.4488106  95.7917999  17.5292024 105.7536096  97.0232179
  11.7886854 102.9648496  94.9287188  10.9190164 103.2582062  94.6569776
  12.0246335 103.5488941  95.6494451  22.8654166 109.5900535  87.5319286
  23.7001057 110.0290339  87.6956847  23.0013295 109.1139188  86.7127532
  19.9145672 107.1480269  93.4796774  20.3899793 107.3407916  92.6715625
  18.9911237 107.2039455  93.2340158  14.4925888  99.1828113  92.4452608
  15.0107832  99.9189140  92.1199097  14.1381021  99.4892106  93.2799367
   6.0724826 104.0432794  80.5614014   5.3794071 104.1177149  79.9054050
   5.8276578 103.2793138  81.0835531  14.7438482  95.6028396  87.9653505
  15.0240236  94.9351585  88.5913931  15.5289089  95.7957491  87.4528168
  18.6147341 104.0246029  91.7125080  19.5664764 104.1244127  91.7337304
  18.4450791 103.2324298  92.2223164  16.6361720 101.1101613  91.8984481
  16.0411652 101.3906625  91.2030969  16.3511417 101.5995514  92.6701222
  21.0935418 107.2452149  90.8267379  21.0611739 106.3068150  91.0127063
  21.7036042 107.3236186  90.0933204  12.9318749 106.1148202  76.8694583
  13.8777854 105.9854410  76.9383001  12.5532994 105.3762864  77.3464012
  21.2429907 104.0363193  90.8725663  20.7268956 103.2521649  90.6855591
  22.1269855 103.7081909  91.0372182  18.9040634  97.7804208  86.8321475
  18.7065455  97.4719296  87.7164807  19.5140339  98.5065847  86.9619405
  26.9111968 108.3068156  89.9673416  27.6415357 108.0453444  90.5281119
  26.3018914 107.5696878  90.0075484  24.9927265 106.4476019  90.5647867
  24.2660429 106.3131984  89.9564359  24.5774552 106.7552847  91.3704585
  11.1161666 104.0398179  76.8049469  10.2093122 103.7431291  76.8812182
  11.3937647 103.7427997  75.9383755  12.7323732  98.5835068  82.9593710
  11.9224461  98.2382153  83.3348956  13.4208149  98.2742612  83.5481321
  14.6614281  97.6613115  84.5818007  15.2145319  98.0808568  85.2408030
  14.8984367  96.7348863  84.6240963   9.8860451 100.8985114  76.9461448
  10.7479615 101.2240012  77.2057265  10.0710795 100.1116610  76.4334514
  18.0393088  99.7713640  84.0896671  17.4591757 100.4298444  83.7074723
  17.7729020  98.9490985  83.6784088  16.4896654  99.1718698  86.2917991
  16.9896432  99.2835232  85.4832310  17.1332262  98.8679751  86.9318800
  16.8217966 101.9313731  83.1453019  15.9343821 102.2163381  82.9273214
  17.2371955 101.7707494  82.2980296  20.1732502 101.9560252  86.8607358
  20.9492892 102.4456704  87.1331975  19.4480636 102.3818306  87.3179228
  22.6105060 102.6687871  87.9181299  23.2049551 102.4283607  87.2074607
  22.6831644 101.9495001  88.5454835  16.7958989 107.4468267  83.3603309
  16.7394191 107.9036818  82.5210942  17.3487332 106.6858951  83.1826152
  20.6063795 103.2357998  84.1853429  20.3500730 102.8354634  85.0161636
  19.9816663 103.9501792  84.0603568  24.9176133 105.9754072  86.6924720
  24.3575691 106.0447261  87.4656282  24.3119636 105.7995056  85.9724216
  17.5293769 108.6373048  80.6555838  17.4742572 108.4717319  79.7144283
  16.9039824 109.3449081  80.8118028  10.8389894  98.1381157  80.2341157
  10.8268564  99.0822997  80.3909428  11.7313316  97.9551302  79.9400618
  14.6542014  94.7323933  84.4887094  13.8874409  94.1782420  84.6343776
  15.0652719  94.8045802  85.3501245  26.0790399 111.8728428  91.4406785
  25.7354669 112.7630070  91.3645895  26.4469362 111.6830086  90.5776370
  27.8778065 111.1321987  86.5424522  28.1836942 110.2719351  86.2550437
  28.6030670 111.7239607  86.3423516  28.1479683 113.5616223  89.0408443
  27.2342763 113.7920449  89.2090650  28.5772784 113.6454667  89.8922476
  25.5832237 110.9320313  87.9653505  25.8633991 110.2643502  88.5913931
  26.3682844 111.1249409  87.4528168  29.7434388 113.1096126  86.8321475
  29.5459210 112.8011214  87.7164807  30.3534094 113.8357765  86.9619405
  25.5008035 112.9905033  84.5818007  26.0539074 113.4100486  85.2408030
  25.7378121 112.0640781  84.6240963  25.4935768 110.0615851  84.4887094
  24.7268164 109.5074338  84.6343776  25.9046473 110.1337720  85.3501245
   4.8218046  54.4970833  73.9598478   4.0681754  53.9278231  73.8042483
   4.9565587  54.4633498  74.9069113   1.6433793  54.4673584  71.8642145
   2.0864939  53.7180909  71.4661269   0.7660304  54.4583720  71.4815877
   1.1866658  55.9378822  74.2564593   2.0213549  56.3768626  74.4202153
   1.3225787  55.4617475  73.4372839   5.2324461  54.6546443  76.6918723
   5.9627849  54.3931731  77.2526426   4.6231406  53.9175165  76.7320791
   3.3139758  52.7954306  77.2893174   2.5872921  52.6610271  76.6809666
   2.8987045  53.1031134  78.0949892   0.9317553  49.0166158  74.6426606
   1.5262043  48.7761894  73.9319914   1.0044136  48.2973289  75.2700142
   3.2388625  52.3232359  73.4170027   2.6788183  52.3925548  74.1901589
   2.6332129  52.1473344  72.6969523   4.8244644  68.9988873  76.1099983
   5.4623054  68.8795620  75.4063323   4.7065487  69.9469717  76.1687935
   1.6334350  68.9516301  76.0461507   1.2952862  68.8357366  75.1582042
   2.5024118  68.5507466  76.0262513   2.1154133  70.1051153  82.0047713
   2.1042774  69.7103951  81.1328216   2.2774773  69.3717225  82.5981484
   3.0720725  74.4722745  67.3472863   2.4208704  75.0576825  66.9606877
   3.8665087  75.0028940  67.4067901   4.3785912  66.7240327  73.1853191
   5.1649002  66.3059750  72.8343608   4.6424617  67.6286419  73.3534839
   4.5495990  72.1613177  67.8841847   3.9141823  72.2347804  68.5962752
   4.2193396  72.7506776  67.2060927   9.7794339  66.6615560  74.0886169
  10.5119511  66.0914777  74.3223999   9.0233695  66.2737160  74.5292675
   1.3970459  69.0842801  71.2849512   1.0328666  68.5573422  71.9962433
   2.2537575  68.6941270  71.1115997   7.3019760  60.3737134  78.5480778
   6.9703085  61.2432545  78.3241993   6.7065373  60.0573418  79.2274808
   1.0375946  64.1132701  66.2810860   1.2050349  64.9812937  66.6481331
   0.8473115  64.2759983  65.3572149   3.7951279  72.5749680  77.9476690
   3.4952002  73.4774719  77.8392498   3.4502339  72.3081863  78.7997843
   7.1948423  65.0932220  75.6274128   6.2865300  65.0247629  75.3332889
   7.1436019  65.5704165  76.4555953   1.2689289  66.5121866  83.5709025
   0.4922623  67.0715786  83.5611890   1.9079852  66.9978649  84.0923895
   9.0610070  63.2948659  77.4052002   8.4184450  63.5881192  76.7591796
   8.5564998  63.1801579  78.2105198   6.7150233  67.0411832  68.0937861
   7.6268089  67.2739219  67.9185558   6.2059880  67.6248876  67.5312940
   4.9991001  71.4636460  81.7299153   5.4074357  71.0218870  80.9853786
   4.2768262  70.8889087  81.9833346   1.3522071  66.4009066  79.1032710
   2.1983266  66.8248480  79.2467359   1.2920709  65.7442691  79.7971274
   5.3219816  72.0237650  75.4851442   4.6928678  72.1883364  74.7827510
   4.9345478  72.4379260  76.2562406   9.2009047  72.9592088  72.8395806
   8.5160086  73.3390989  72.2892839   9.2852897  73.5687415  73.5727754
   4.5021516  64.0613435  80.7613884   4.2582448  64.8155495  80.2248160
   4.7781447  64.4398782  81.5961131   6.4559979  70.6052047  79.4391150
   6.6676874  71.2483807  78.7625531   6.4089727  69.7714364  78.9713080
   4.0586208  63.2169868  76.3427722   3.1970687  63.5151121  76.6344459
   4.0848643  63.4340267  75.4108754   0.8747777  71.7612058  72.7501527
   1.3386123  72.0399761  71.9606150   0.6104575  70.8595503  72.5674618
   7.5705807  73.4824003  77.6113507   8.3923251  73.0804190  77.3296189
   7.5668210  73.3792237  78.5629623   1.3362410  73.0308046  79.7674217
   1.4006843  73.4928453  80.6032389   0.6273334  72.4005411  79.8956527
  15.6611800  69.8262751  73.9598478  14.9075508  69.2570149  73.8042483
  15.7959341  69.7925415  74.9069113   1.0510428  74.6976153  69.6353198
   0.9156103  75.5427689  70.0638046   1.5920241  74.8995431  68.8719132
   2.6778904  75.3199720  83.7653540   2.2342759  74.5336098  83.4474444
   3.3396118  75.5078870  83.0997431   4.7760143  75.6002520  81.7934941
   4.7578618  76.4211401  81.3015210   5.6980063  75.4756595  82.0185082
   1.2333197  73.1146649  82.6358450   1.7661533  72.3534937  82.4057758
   0.7047278  72.8220301  83.3782604   4.4002892  58.2206715  78.1652091
   4.0567161  59.1108357  78.0891202   4.7681854  58.0308373  77.3021676
   4.3653174  68.2115326  66.6724526   3.8499798  68.9819931  66.9112914
   4.0930483  67.5380462  67.2957588   1.9500285  63.0565027  71.7309765
   1.0941882  62.6671877  71.5515403   2.3627237  63.1356988  70.8709550
   3.4799432  60.5911370  76.1301325   2.9764228  60.5541505  75.3169130
   3.7730039  61.5004113  76.1897981   9.3387448  70.9647681  68.6077700
   8.5616891  70.6258840  68.1632862  10.0178929  70.9700304  67.9332665
   4.1539478  66.0842418  68.4984308   3.8489613  66.3988568  69.3494451
   5.1069920  66.1623838  68.5411641   2.5985909  72.2432642  70.1477262
   2.0707271  71.5085401  69.8350499   2.0973412  73.0207318  69.9017230
   7.5778755  70.4381662  75.2644308   6.9202430  71.1280924  75.3524436
   8.3819155  70.8278094  75.6078294   6.3884214  68.7926035  73.3148250
   6.9016096  69.4256027  73.8169959   7.0385438  68.1927230  72.9491610
   3.6506588  78.7710359  66.0708921   2.9768287  79.0742056  66.6793879
   4.0372410  79.5739439  65.7214378   2.8665045  66.2675490  75.5606590
   1.9487606  66.4890437  75.4028278   3.2825189  66.3421801  74.7018297
   3.6500093  67.6666906  70.6909270   4.3971912  68.1788303  70.3816392
   3.9191682  67.3450959  71.5513664   1.9226743  70.1625447  67.6736225
   1.0137962  69.8784480  67.7708694   1.9521827  70.5824525  66.8139532
   7.1546010  73.7732036  71.4427392   6.7008338  72.9322946  71.4992583
   6.5239977  74.4093435  71.7802172   6.0978930  64.7024022  72.6728060
   5.3601687  64.1901409  73.0038302   6.3505703  64.2624404  71.8611337
   5.5978950  75.6108533  72.3777210   5.8901924  76.1713590  71.6589576
   6.1077570  75.9037094  73.1330369   6.1990557  57.4800274  73.2669829
   6.5049434  56.6197638  72.9795744   6.9243162  58.0717895  73.0668823
   1.6202831  71.7034190  65.0124303   1.1822261  70.9870049  64.5529941
   2.3613272  71.9310305  64.4509395   0.5612575  76.3888884  73.4670664
   0.5188754  76.6149730  72.5379196   1.4775274  76.1552259  73.6156465
   4.0078209  66.8572952  80.3651293   4.3627596  67.0844425  81.2245759
   4.6550340  67.1891328  79.7428548   9.7375946  69.9791388  71.0700622
   9.5993844  70.1692984  70.1421811   9.3812164  70.7410770  71.5268673
   9.7645325  72.0467915  76.0811893  10.1981832  71.9543204  76.9294947
  10.4776906  72.0225415  75.4431909   3.4973220  75.6470009  77.6144994
   3.5510242  76.2160945  78.3822710   2.6288001  75.8171894  77.2499031
  10.6260875  72.0891615  78.6144779  10.8196765  72.9937426  78.8604054
  10.5261493  71.6299034  79.4483364   2.2797185  61.9749506  81.1135106
   1.6325101  62.6739455  81.0199582   3.0498201  62.4085650  81.4811354
   5.6875983  72.2398358  84.1885659   5.5361490  72.0108910  83.2715743
   5.6780663  73.1968959  84.2017004   2.4561320  69.8130271  79.1731926
   3.3853380  69.9641430  79.0000893   2.0352350  69.9014291  78.3180572
   1.8497804  78.9390032  68.2856000   2.0249559  78.4678075  69.1001623
   1.1630592  79.5655798  68.5137261   2.8054867  73.2162538  74.3319301
   2.4704699  73.1763308  75.2276951   2.3058812  72.5507254  73.8589711
   5.7414058  70.5618572  64.6056361   5.1243229  69.8365400  64.5089414
   5.2730547  71.3227932  64.2623435   7.3968190  75.2717480  82.2662141
   7.3380736  74.5876701  81.5992724   7.7987708  76.0136470  81.8142767
   7.3985597  73.2357064  80.4976121   6.5112376  72.8982986  80.6202520
   7.9684148  72.5040096  80.7344886   0.9286751  77.8958517  77.4637364
   0.8556922  78.7013488  77.9756669   0.4864144  78.0950483  76.6385385
   4.0273180  62.9424916  73.6174391   4.5241880  62.1894879  73.2975461
   3.2560162  62.9789233  73.0517600  11.8802938  68.6465282  75.2592683
  11.8692814  69.5289997  74.8886616  11.0120317  68.2936833  75.0647220
   3.3885434  77.7945351  79.6195523   4.1013406  78.4292816  79.5471424
   2.8975463  77.8909217  78.8035525   5.1102961  71.6996603  71.1912814
   4.1759240  71.8198066  71.0217519   5.2879630  70.7969070  70.9272824
   8.4975513  67.5413923  71.7262849   8.9635965  68.3741914  71.6523151
   8.9483013  67.0758904  72.4308107   6.5651744  73.8857744  68.7249001
   6.8411588  73.7714339  69.6342875   5.6956242  73.4875229  68.6861174
   6.4692175  59.9094510  75.7653750   5.5555255  60.1398737  75.9335957
   6.8985277  59.9932954  76.6167782   6.2398634  68.0984402  78.2653644
   5.5870084  68.3460309  77.6106097   6.6179014  67.2848540  77.9316121
   3.2005808  78.1344095  72.3681814   3.3828202  77.3165751  72.8309567
   4.0238794  78.3511787  71.9306704   3.5347973  77.0612280  69.6296863
   4.0635740  76.5504735  69.0167025   3.7976193  76.7454810  70.4942396
   2.2886207  68.8404213  84.7519681   1.6126844  68.7398342  85.4222056
   3.1113841  68.6843427  85.2155678   1.0308990  80.1471140  78.9877297
   1.5827298  80.3102762  79.7526382   1.3715183  80.7375578  78.3157322
   5.8819864  74.9732398  84.8425951   6.4259768  75.5862356  84.3480906
   5.3006709  75.5311976  85.3592964   4.1677377  78.0953116  75.9740979
   4.0428516  77.2942856  75.4651925   4.8256468  78.5899309  75.4854949
   6.2312285  75.8962136  77.6020529   5.2842621  75.7767487  77.5298856
   6.5795058  75.0084634  77.6846791   3.2358719  75.6914852  73.8024881
   3.0883681  74.7631559  73.9832452   4.0612212  75.7134943  73.3181957
   6.8392840  76.5143411  74.8889754   7.7639388  76.3086272  74.7514205
   6.6708144  76.2659812  75.7979096   3.2320233  63.5452690  68.7956999
   3.4483847  64.4277328  68.4945827   2.7514300  63.1538903  68.0662641
   1.6841968  63.9278291  77.4661760   1.4259746  64.8495362  77.4646091
   1.1527008  63.5308726  78.1562224   6.6288157  77.0329078  70.2451846
   6.8025034  76.4675501  69.4925698   7.1217048  77.8329973  70.0631336
   2.1043924  60.0610242  73.8262923   2.1265620  60.1249575  72.8714902
   2.5211983  59.2214750  74.0203429  12.4827548  69.7965501  71.8642145
  12.9258694  69.0472826  71.4661269  11.6054058  69.7875638  71.4815877
   7.6163329  76.3495843  67.3448744   8.3114234  76.9702535  67.5636059
   7.9586479  75.4991194  67.6201122   9.5154752  73.7995548  68.8736075
  10.0406076  74.1382821  68.1485395   9.4277105  72.8642563  68.6899209
   1.1774801  77.7129622  81.0025951   1.4861927  77.4678769  81.8748651
   1.9750283  77.9176260  80.5144822   1.1995413  79.8667531  73.2331328
   0.7600403  79.3743910  73.9264185   1.9503530  79.3240499  72.9923403
   9.2048658  74.4328452  84.1787273   8.4144202  74.4152591  83.6391772
   8.9682013  74.9716746  84.9336309   9.3246533  71.2820918  81.4920001
   9.3744538  71.1170926  82.4335524   9.2160457  70.4148177  81.1017882
   6.6150296  67.2651846  82.8079308   7.5160159  67.1258311  82.5163306
   6.6898270  67.4306301  83.7477485  10.8264730  73.7017860  81.7362023
  10.5349539  74.0647840  82.5725484  10.2136861  72.9884868  81.5575355
  12.0260413  71.2670739  74.2564593  12.8607304  71.7060544  74.4202153
  12.1619541  70.7909393  73.4372839   9.0751918  68.8250474  80.2042081
   9.5506040  69.0178121  79.3960932   8.1517484  68.8809660  79.9585464
   3.6532135  60.8598318  79.1697915   4.1714079  61.5959345  78.8444403
   3.2987268  61.1662311  80.0044674   3.9044729  57.2798600  74.6898811
   4.1846483  56.6121789  75.3159238   4.6895336  57.4727696  74.1773475
   1.7078198  76.4557594  66.2523838   1.1352165  77.0747781  65.7994309
   2.2810991  77.0056956  66.7863759   7.7753587  65.7016234  78.4370386
   8.7271010  65.8014332  78.4582610   7.6057038  64.9094503  78.9468471
   5.7967967  62.7871818  78.6229787   5.2017899  63.0676830  77.9276276
   5.5117664  63.2765719  79.3946528   4.9275457  76.7394744  67.3832420
   5.8606131  76.6740306  67.5865295   4.8398670  77.5751011  66.9246952
   7.5563474  76.0560615  64.3436367   7.4777106  75.7220478  65.2372125
   8.3773141  76.5482383  64.3427840  10.2541665  68.9222354  77.5512686
  10.2217985  67.9838355  77.7372370  10.8642289  69.0006391  76.8178511
   2.0924996  67.7918407  63.5939890   3.0384101  67.6624615  63.6628308
   1.7139241  67.0533069  64.0709318  10.4036154  65.7133398  77.5970969
   9.8875202  64.9291854  77.4100898  11.2876102  65.3852114  77.7617489
   8.0646881  59.4574413  73.5566782   7.8671702  59.1489501  74.4410114
   8.6746586  60.1836052  73.6864712  16.0718215  69.9838361  76.6918723
  16.8021604  69.7223649  77.2526426  15.4625161  69.2467083  76.7320791
  14.1533512  68.1246224  77.2893174  13.4266676  67.9902188  76.6809666
  13.7380799  68.4323052  78.0949892   1.9763689  71.8436153  85.0540547
   2.8966698  72.0214752  85.2480594   1.9413272  70.8992199  84.9020246
   1.8929979  60.2605273  69.6839017   1.0830707  59.9152358  70.0594263
   2.5814396  59.9512817  70.2726628   3.8220527  59.3383320  71.3063313
   4.3751566  59.7578773  71.9653336   4.0590614  58.4119068  71.3486269
   7.1999334  61.4483845  70.8141977   6.6198003  62.1068649  70.4320030
   6.9335267  60.6261190  70.4029395   5.6502901  60.8488903  73.0163298
   6.1502679  60.9605437  72.2077617   6.2938509  60.5449956  73.6564106
   5.9824212  63.6083936  69.8698326   5.0950067  63.8933586  69.6518520
   6.3978201  63.4477699  69.0225603   9.3338749  63.6330457  73.5852665
  10.1099139  64.1226909  73.8577282   8.6086883  64.0588511  74.0424534
  11.7711307  64.3458076  74.6426606  12.3655798  64.1053812  73.9319914
  11.8437891  63.6265206  75.2700142   5.1267426  73.3728610  63.9646346
   5.8303276  73.5778613  64.5804001   4.4030075  73.9405372  64.2295429
   5.9565236  69.1238471  70.0848616   5.9000438  69.5807023  69.2456248
   6.5093579  68.3629156  69.9071459   9.7670042  64.9128203  70.9098735
   9.5106976  64.5124839  71.7406943   9.1422910  65.6271997  70.7848875
  14.0782380  67.6524277  73.4170027  13.5181938  67.7217466  74.1901589
  13.4725883  67.4765261  72.6969523   7.0354123  73.8111139  66.0144806
   7.8699727  73.3792338  65.8322281   6.8738466  73.6393153  66.9421700
   6.6900015  70.3143253  67.3801145   6.6348819  70.1487524  66.4389589
   6.0646071  71.0219286  67.5363335   4.0045923  72.6192165  86.7054708
   4.8737082  72.7932817  86.3441343   3.5252674  73.4386581  86.5830437
   3.8148260  56.4094138  71.2132400   3.0480656  55.8552625  71.3589083
   4.2258965  56.4816007  72.0746552  15.6638398  84.3280791  76.1099983
  16.3016808  84.2087538  75.4063323  15.5459241  85.2761634  76.1687935
  12.4728105  84.2808219  76.0461507  12.1346616  84.1649283  75.1582042
  13.3417873  83.8799384  76.0262513   8.3314920  86.1343695  72.0358398
   7.7679785  86.0433632  71.2674686   8.2167315  85.3143599  72.5160891
  12.9547888  85.4343070  82.0047713  12.9436528  85.0395869  81.1328216
  13.1168527  84.7009143  82.5981484   5.8779352  87.6294887  74.8742619
   6.6700644  87.2885711  74.4588918   6.1176002  87.7389862  75.7944772
  13.9114479  89.8014663  67.3472863  13.2602459  90.3868743  66.9606877
  14.7058842  90.3320858  67.4067901   7.8370106  86.8903800  67.7459997
   8.6100982  86.3432787  67.6072873   8.1895505  87.7548049  67.9574459
   9.6755149  88.2180182  80.9526897   9.3845015  89.1225813  80.8373563
  10.3112133  88.2596710  81.6670966  10.6011356  85.5957031  77.5428256
  11.1974928  85.3713053  76.8285219  10.6586327  84.8541776  78.1453704
  10.1736384  83.0496466  65.3778447  10.4261905  82.5277987  64.6161910
   9.2360943  82.8862611  65.4805131  15.2179667  82.0532244  73.1853191
  16.0042756  81.6351668  72.8343608  15.4818371  82.9578337  73.3534839
  15.3889744  87.4905095  67.8841847  14.7535577  87.5639721  68.5962752
  15.0587151  88.0798694  67.2060927  20.6188094  81.9907478  74.0886169
  21.3513266  81.4206694  74.3223999  19.8627450  81.6029078  74.5292675
   9.8932673  84.9524572  67.5802822   9.7768931  84.2769475  68.2483907
  10.0034933  84.4656946  66.7634975  12.2364214  84.4134719  71.2849512
  11.8722421  83.8865340  71.9962433  13.0931330  84.0233188  71.1115997
  18.1413514  75.7029052  78.5480778  17.8096839  76.5724463  78.3241993
  17.5459128  75.3865336  79.2274808  11.8769701  79.4424619  66.2810860
  12.0444103  80.3104855  66.6481331  11.6866870  79.6051900  65.3572149
  14.6345034  87.9041598  77.9476690  14.3345757  88.8066636  77.8392498
  14.2896093  87.6373781  78.7997843   8.0857515  84.3555395  73.9813395
   7.1608012  84.2231609  74.1891087   8.3341929  85.1349614  74.4783337
  18.0342178  80.4224138  75.6274128  17.1259055  80.3539546  75.3332889
  17.9829773  80.8996083  76.4555953  11.8558922  81.8982276  67.2657527
  11.7358547  82.3439327  68.1043007  11.1611510  82.2467594  66.7071065
   5.4466326  83.9988668  74.8157184   5.5758708  84.2523147  75.7296596
   4.7663778  84.5916376  74.4961839   9.6165814  94.6685918  70.9147658
   9.5389843  95.6193743  70.9936139   9.0127457  94.3231791  71.5722584
  12.1083043  81.8413783  83.5709025  11.3316377  82.4007704  83.5611890
  12.7473606  82.3270566  84.0923895  19.9003824  78.6240576  77.4052002
  19.2578204  78.9173109  76.7591796  19.3958753  78.5093497  78.2105198
  17.5543988  82.3703749  68.0937861  18.4661844  82.6031136  67.9185558
  17.0453635  82.9540794  67.5312940  10.3629416  84.6499237  83.1326992
  11.1044100  85.1884281  82.8561816   9.6566401  85.2765526  83.2898544
  15.8384755  86.7928377  81.7299153  16.2468111  86.3510788  80.9853786
  15.1162017  86.2181005  81.9833346  12.1915825  81.7300984  79.1032710
  13.0377021  82.1540398  79.2467359  12.1314463  81.0734608  79.7971274
  16.1613570  87.3529568  75.4851442  15.5322432  87.5175282  74.7827510
  15.7739232  87.7671177  76.2562406  20.0402802  88.2884006  72.8395806
  19.3553840  88.6682907  72.2892839  20.1246651  88.8979332  73.5727754
  15.3415271  79.3905352  80.7613884  15.0976203  80.1447413  80.2248160
  15.6175201  79.7690700  81.5961131  17.2953734  85.9343965  79.4391150
  17.5070629  86.5775725  78.7625531  17.2483482  85.1006281  78.9713080
  14.8979962  78.5461785  76.3427722  14.0364441  78.8443039  76.6344459
  14.9242397  78.7632184  75.4108754  11.7141532  87.0903976  72.7501527
  12.1779877  87.3691679  71.9606150  11.4498330  86.1887421  72.5674618
   8.6065613  86.6375458  75.6881291   9.1766970  87.0662726  75.0498775
   9.1973725  86.3558042  76.3865476  10.6510418  83.2127128  69.5591093
  11.3534461  83.6648172  70.0265019  10.3191046  82.5710947  70.1870986
   9.0990779  81.8038885  83.9342302   8.4689440  82.4855166  84.1677699
   8.9926867  81.6921967  82.9895440   4.3935752  81.4710681  74.8608226
   3.6034806  81.7268210  74.3848337   4.8846999  82.2859019  74.9660267
  18.4099561  88.8115920  77.6113507  19.2317005  88.4096107  77.3296189
  18.4061964  88.7084154  78.5629623   6.3450497  81.8355260  71.8191703
   5.5481661  81.9473955  72.3375199   6.1176089  82.1741912  70.9532593
  12.1756165  88.3599963  79.7674217  12.2400597  88.8220371  80.6032389
  11.4667089  87.7297328  79.8956527   2.6773455  81.7241171  77.2923217
   2.9281493  82.6088181  77.5580793   3.2133003  81.5445773  76.5198309
  26.5005555  85.1554669  73.9598478  25.7469263  84.5862067  73.8042483
  26.6353096  85.1217333  74.9069113  11.8904183  90.0268071  69.6353198
  11.7549857  90.8719607  70.0638046  12.4313995  90.2287349  68.8719132
   8.3771522  76.1059651  86.2967553   7.9838468  75.5525849  86.9715197
   9.1937663  76.4170229  86.6874071   5.3433580  87.5443509  70.2081123
   5.8558101  88.3386759  70.3586688   5.9956293  86.8469799  70.1414724
   7.1528465  90.6609265  72.2903876   7.3295093  91.5827230  72.1024860
   7.9485298  90.3467684  72.7198256  11.2939483  77.5217530  83.8887810
  12.0349197  78.1224683  83.8092272  11.5257406  76.7795168  83.3305852
   6.4380821  82.7073897  82.1666039   6.3234336  81.8059154  82.4673138
   5.5825339  82.9537594  81.8150856  13.5172659  90.6491637  83.7653540
  13.0736513  89.8628016  83.4474444  14.1789873  90.8370788  83.0997431
   8.2759780  92.1787439  78.2914218   8.8267205  92.0504502  77.5191212
   7.4371256  92.4782328  77.9409111  15.6153897  90.9294437  81.7934941
  15.5972372  91.7503318  81.3015210  16.5373817  90.8048513  82.0185082
  12.0726951  88.4438567  82.6358450  12.6055288  87.6826855  82.4057758
  11.5441032  88.1512219  83.3782604  15.2396646  73.5498633  78.1652091
  14.8960916  74.4400275  78.0891202  15.6075609  73.3600290  77.3021676
   3.3082497  85.8732163  70.9840693   4.1457719  86.2829172  70.7674401
   3.4860764  84.9331605  70.9540887  15.2046929  83.5407244  66.6724526
  14.6893552  84.3111849  66.9112914  14.9324237  82.8672380  67.2957588
  12.7894040  78.3856945  71.7309765  11.9335636  77.9963795  71.5515403
  13.2020992  78.4648906  70.8709550  14.3193187  75.9203288  76.1301325
  13.8157982  75.8833423  75.3169130  14.6123793  76.8296031  76.1897981
  10.5636072  76.0042018  75.1367506  11.4289069  75.8084826  74.7773396
  10.6313581  75.7752369  76.0636863  20.1781203  86.2939599  68.6077700
  19.4010646  85.9550758  68.1632862  20.8572684  86.2992222  67.9332665
  14.9933232  81.4134336  68.4984308  14.6883368  81.7280485  69.3494451
  15.9463674  81.4915756  68.5411641  13.4379664  87.5724559  70.1477262
  12.9101025  86.8377319  69.8350499  12.9367167  88.3499236  69.9017230
  18.4172510  85.7673580  75.2644308  17.7596184  86.4572841  75.3524436
  19.2212909  86.1570012  75.6078294   8.1698391  78.2344226  72.5083873
   8.7442143  78.0119407  71.7757066   8.7569374  78.3032920  73.2612474
  17.2277969  84.1217953  73.3148250  17.7409850  84.7547944  73.8169959
  17.8779193  83.5219148  72.9491610   8.4967979  80.2648687  66.5279758
   7.6605291  80.6023373  66.8489033   8.3572748  80.1297666  65.5906895
  10.4721059  75.1085475  71.2358942   9.8185472  74.7934492  70.6115557
  10.4301533  74.4861215  71.9618765  11.5832264  85.3904770  63.1512235
  10.6759326  85.1594023  63.3503384  12.0803296  84.5942389  63.3386216
  14.4900343  94.1002277  66.0708921  13.8162042  94.4033974  66.6793879
  14.8766165  94.9031357  65.7214378  13.7058800  81.5967408  75.5606590
  12.7881361  81.8182355  75.4028278  14.1218943  81.6713719  74.7018297
  14.4893847  82.9958824  70.6909270  15.2365666  83.5080221  70.3816392
  14.7585437  82.6742876  71.5513664  12.7620497  85.4917364  67.6736225
  11.8531717  85.2076397  67.7708694  12.7915581  85.9116443  66.8139532
  17.9939765  89.1023954  71.4427392  17.5402092  88.2614864  71.4992583
  17.3633732  89.7385352  71.7802172  16.9372684  80.0315940  72.6728060
  16.1995441  79.5193326  73.0038302  17.1899458  79.5916322  71.8611337
  16.4372704  90.9400451  72.3777210  16.7295679  91.5005508  71.6589576
  16.9471325  91.2329012  73.1330369  17.0384312  72.8092192  73.2669829
  17.3443189  71.9489555  72.9795744  17.7636917  73.4009812  73.0668823
   3.3308668  83.2122879  71.6551427   3.1333068  82.6192239  70.9302493
   2.7755332  82.9075089  72.3727366  11.3105392  83.1045985  73.7746020
  11.3654001  82.1519821  73.6988497  10.4996594  83.2605424  74.2587318
  12.4596585  87.0326108  65.0124303  12.0216015  86.3161967  64.5529941
  13.2007026  87.2602223  64.4509395   9.2497751  81.7223045  71.5336399
   8.4365617  82.0217215  71.9401591   9.7456746  81.3278734  72.2510881
  11.4006329  91.7180802  73.4670664  11.3582508  91.9441648  72.5379196
  12.3169028  91.4844176  73.6156465  14.8471963  82.1864869  80.3651293
  15.2021351  82.4136342  81.2245759  15.4944094  82.5183246  79.7428548
  20.5769700  85.3083305  71.0700622  20.4387599  85.4984901  70.1421811
  20.2205919  86.0702688  71.5268673   8.7411826  79.2941400  77.1497634
   9.3811206  79.1530159  76.4520597   7.9089357  79.0075914  76.7736236
  20.6039080  87.3759832  76.0811893  21.0375586  87.2835121  76.9294947
  21.3170660  87.3517333  75.4431909   9.5172130  88.5943831  73.2632626
  10.3112729  88.0994151  73.0615201   8.8063822  88.0661694  72.9000332
  14.3366975  90.9761926  77.6144994  14.3903997  91.5452863  78.3822710
  13.4681756  91.1463811  77.2499031   5.8254894  82.7386913  69.3392379
   4.8952482  82.6771368  69.5562341   5.9212366  82.2162865  68.5429020
   5.7440443  79.2641725  71.9270621   6.0047260  80.1787059  71.8179781
   6.5657615  78.7966168  72.0767233   7.2165368  80.6779483  79.0969445
   7.8888421  80.4696845  78.4482094   6.3895154  80.4801569  78.6574677
  21.4654629  87.4183533  78.6144779  21.6590519  88.3229343  78.8604054
  21.3655247  86.9590952  79.4483364  13.1190940  77.3041423  81.1135106
  12.4718855  78.0031373  81.0199582  13.8891955  77.7377567  81.4811354
  16.5269738  87.5690276  84.1885659  16.3755244  87.3400827  83.2715743
  16.5174417  88.5260877  84.2017004  13.2955074  85.1422188  79.1731926
  14.2247134  85.2933348  79.0000893  12.8746104  85.2306209  78.3180572
  12.0943406  89.1672853  76.9430463  11.9554492  88.7991637  77.8156402
  11.3058002  89.6820492  76.7714421  12.6891558  94.2681949  68.2856000
  12.8643314  93.7969992  69.1001623  12.0024346  94.8947715  68.5137261
  13.6448621  88.5454455  74.3319301  13.3098454  88.5055225  75.2276951
  13.1452567  87.8799171  73.8589711   7.6192865  83.9522085  79.8571882
   7.4812663  83.2202324  80.4583421   8.5297789  83.8630986  79.5756070
  16.5807813  85.8910490  64.6056361  15.9636984  85.1657318  64.5089414
  16.1124301  86.6519850  64.2623435  10.2475166  83.6642045  79.3455562
  10.9574784  83.0235237  79.3042180  10.2044474  83.9154940  80.2681743
  18.2361945  90.6009398  82.2662141  18.1774491  89.9168618  81.5992724
  18.6381463  91.3428388  81.8142767   8.9604100  80.6507263  81.1651201
   8.4241457  80.1998001  81.8172798   8.3720808  80.7853172  80.4221666
   7.2552643  97.4171312  75.0595860   7.4949242  98.0489836  75.7374879
   6.4121840  97.0659352  75.3461219   8.3706359  80.1095914  63.7277665
   7.4935825  79.9884715  63.3639912   8.8464112  79.3181992  63.4756554
  18.2379352  88.5648982  80.4976121  17.3506131  88.2274904  80.6202520
  18.8077903  87.8332013  80.7344886   4.6943221  79.7863270  78.2504196
   4.6101410  79.1788940  77.5154606   3.8725927  80.2772289  78.2513692
  11.7680505  93.2250434  77.4637364  11.6950677  94.0305406  77.9756669
  11.3257898  93.4242400  76.6385385  11.5570285  92.4622204  70.9740186
  10.7737807  93.0043885  71.0678410  12.2563030  92.9796184  71.3734427
  14.8666935  78.2716834  73.6174391  15.3635634  77.5186796  73.2975461
  14.0953916  78.3081151  73.0517600  22.7196692  83.9757199  75.2592683
  22.7086569  84.8581915  74.8886616  21.8514072  83.6228750  75.0647220
  14.2279189  93.1237268  79.6195523  14.9407161  93.7584733  79.5471424
  13.7369217  93.2201134  78.8035525  15.9496716  87.0288521  71.1912814
  15.0152994  87.1489984  71.0217519  16.1273384  86.1260988  70.9272824
  11.4501904  80.4134217  73.3446076  11.0799691  79.8605257  74.0326981
  11.9460996  79.8092350  72.7921076  19.3369267  82.8705840  71.7262849
  19.8029719  83.7033832  71.6523151  19.7876767  82.4050822  72.4308107
   9.2791102  90.8731712  80.4401094   9.9800562  91.5068195  80.5930488
   8.8086217  91.2146443  79.6796733  17.4045498  89.2149662  68.7249001
  17.6805342  89.1006256  69.6342875  16.5349997  88.8167147  68.6861174
  17.3085930  75.2386427  75.7653750  16.3949010  75.4690654  75.9335957
  17.7379031  75.3224871  76.6167782  17.0792388  83.4276319  78.2653644
  16.4263838  83.6752227  77.6106097  17.4572768  82.6140458  77.9316121
  14.0399562  93.4636013  72.3681814  14.2221957  92.6457668  72.8309567
  14.8632548  93.6803705  71.9306704  14.3741728  92.3904198  69.6296863
  14.9029494  91.8796652  69.0167025  14.6369947  92.0746728  70.4942396
  13.1279961  84.1696130  84.7519681  12.4520598  84.0690260  85.4222056
  13.9507595  84.0135344  85.2155678   4.8758820  90.4068067  77.3732196
   5.4612257  89.6611755  77.5060100   4.6783659  90.7172024  78.2568860
   7.7297476  93.4419314  72.3894639   7.0607851  93.9265442  71.9058679
   7.5910345  93.6888535  73.3038017  11.8702744  95.4763058  78.9877297
  12.4221052  95.6394679  79.7526382  12.2108938  96.0667496  78.3157322
   6.8467237  77.8238208  79.5899182   6.9108564  78.6853039  79.1776579
   6.7834358  77.2112209  78.8571540   6.3219510  79.8961340  83.2372216
   6.9491549  79.5138418  83.8509740   5.4647429  79.6775542  83.6027908
  16.7213618  90.3024315  84.8425951  17.2653522  90.9154274  84.3480906
  16.1400463  90.8603894  85.3592964   3.0985053  81.7037769  69.1690571
   3.3938494  80.7948448  69.1157624   2.1973088  81.6825509  68.8471573
  15.0071131  93.4245033  75.9740979  14.8822271  92.6234773  75.4651925
  15.6650223  93.9191227  75.4854949   6.6279300  79.7793766  75.1518119
   5.9065885  80.3929734  75.0125593   7.4172555  80.3151531  75.0734765
  17.0706040  91.2254054  77.6020529  16.1236375  91.1059405  77.5298856
  17.4188813  90.3376552  77.6846791   9.4305613  77.1148192  81.4258771
   9.9540015  77.3610489  82.1885080   9.2117946  77.9468227  81.0061908
   4.8272894  79.3851867  69.2929896   4.4985600  78.5049246  69.1105002
   5.1812265  79.3299536  70.1806285  14.0752473  91.0206770  73.8024881
  13.9277436  90.0923477  73.9832452  14.9005967  91.0426860  73.3181957
   7.9414717  79.6724837  69.6605374   8.2810790  80.2010758  68.9383982
   8.3886838  80.0105243  70.4363940  17.6786595  91.8435328  74.8889754
  18.6033142  91.6378190  74.7514205  17.5101898  91.5951730  75.7979096
  10.6358158  78.0561888  79.1108442  10.2954979  77.2569701  79.5129122
   9.9297164  78.3563598  78.5385275  11.2874630  75.1411200  77.5635765
  12.1100699  74.6671678  77.4414655  11.5312694  75.9201684  78.0634451
   9.9282865  78.1699458  67.8598666  10.6491227  78.5480711  67.3562383
   9.3048169  78.8888335  67.9633644  14.0713987  78.8744607  68.7956999
  14.2877602  79.7569245  68.4945827  13.5908055  78.4830821  68.0662641
   8.8113209  81.8330321  75.3727743   8.6657790  82.1470624  76.2652025
   8.3338412  82.4515221  74.8198642  10.6709592  78.8232869  75.4208633
  10.6571160  77.9273962  75.0840931  11.3882020  78.8303532  76.0546919
  12.5235722  79.2570209  77.4661760  12.2653500  80.1787279  77.4646091
  11.9920763  78.8600643  78.1562224  17.4681911  92.3620996  70.2451846
  17.6418789  91.7967418  69.4925698  17.9610802  93.1621891  70.0631336
   3.2858871  84.3735665  78.3115404   2.7412339  85.1495473  78.4435679
   4.1638221  84.7206469  78.1534526  10.0746488  77.7047249  70.6896203
  10.1962399  76.7763895  70.8887090   9.7848530  77.7185935  69.7774518
  12.9437678  75.3902159  73.8262923  12.9659375  75.4541492  72.8714902
  13.3605737  74.5506668  74.0203429  23.3221302  85.1257419  71.8642145
  23.7652448  84.3764744  71.4661269  22.4447813  85.1167555  71.4815877
  18.4557084  91.6787760  67.3448744  19.1507988  92.2994453  67.5636059
  18.7980234  90.8283112  67.6201122   4.0724893  83.5005561  81.2045561
   3.3306629  83.6488197  81.7910192   3.7517637  83.7613827  80.3412311
  20.3548507  89.1287466  68.8736075  20.8799831  89.4674739  68.1485395
  20.2670859  88.1934481  68.6899209  12.0168555  93.0421539  81.0025951
  12.3255682  92.7970686  81.8748651  12.8144037  93.2468178  80.5144822
  12.0389168  95.1959449  73.2331328  11.5994158  94.7035828  73.9264185
  12.7897284  94.6532417  72.9923403   4.5181506  91.3870990  73.2355956
   5.3439526  91.0874762  72.8554600   4.1675558  90.6178612  73.6845745
   9.4863040  90.7397458  75.3053630   8.8643049  90.0768163  75.0055857
  10.1567907  90.7658590  74.6227277   2.7190112  89.3057316  74.1944890
   1.8822020  88.8779491  74.0128891   2.6913757  89.4989760  75.1315681
   9.5587567  79.2179246  84.8986136   9.6075723  80.0941369  84.5163905
  10.1010081  78.6756639  84.3257779  20.0442413  89.7620369  84.1787273
  19.2537957  89.7444508  83.6391772  19.8075767  90.3008663  84.9336309
  20.1640288  86.6112836  81.4920001  20.2138293  86.4462843  82.4335524
  20.0554211  85.7440095  81.1017882   9.0476547  89.2901382  68.7812090
   9.1964667  89.9736846  68.1278763   9.8542990  89.2706472  69.2961546
  17.4544050  82.5943764  82.8079308  18.3553913  82.4550229  82.5163306
  17.5292025  82.7598219  83.7477485  11.7886856  79.9710619  81.6532494
  10.9190165  80.2644185  81.3815083  12.0246336  80.5551064  82.3739758
  21.6658485  89.0309777  81.7362023  21.3743293  89.3939758  82.5725484
  21.0530616  88.3176786  81.5575355  22.8654167  86.5962657  74.2564593
  23.7001058  87.0352461  74.4202153  23.0013296  86.1201310  73.4372839
  19.9145673  84.1542392  80.2042081  20.3899795  84.3470038  79.3960932
  18.9911238  84.2101578  79.9585464   6.8029180  85.3166559  69.7873159
   6.5575221  84.4128889  69.9853369   6.9725094  85.3183710  68.8452637
  14.4925889  76.1890236  79.1697915  15.0107833  76.9251262  78.8444403
  14.1381022  76.4954229  80.0044674   6.0724827  81.0494917  67.2859320
   5.3794072  81.1239272  66.6299356   5.8276579  80.2855260  67.8080837
  14.7438484  72.6090518  74.6898811  15.0240237  71.9413707  75.3159238
  15.5289091  72.8019614  74.1773475  12.5471952  91.7849512  66.2523838
  11.9745919  92.4039699  65.7994309  13.1204746  92.3348874  66.7863759
  18.6147342  81.0308152  78.4370386  19.5664765  81.1306250  78.4582610
  18.4450792  80.2386421  78.9468471  16.6361721  78.1163735  78.6229787
  16.0411654  78.3968748  77.9276276  16.3511418  78.6057636  79.3946528
  15.7669212  92.0686662  67.3832420  16.6999885  92.0032224  67.5865295
  15.6792425  92.9042929  66.9246952  18.3957229  91.3852532  64.3436367
  18.3170860  91.0512396  65.2372125  19.2166895  91.8774300  64.3427840
  21.0935420  84.2514272  77.5512686  21.0611740  83.3130273  77.7372370
  21.7036043  84.3298308  76.8178511  12.9318751  83.1210325  63.5939890
  13.8777855  82.9916533  63.6628308  12.5532996  82.3824987  64.0709318
  21.2429908  81.0425315  77.5970969  20.7268957  80.2583772  77.4100898
  22.1269857  80.7144032  77.7617489  18.9040635  74.7866331  73.5566782
  18.7065456  74.4781419  74.4410114  19.5140341  75.5127970  73.6864712
  26.9111970  85.3130279  76.6918723  27.6415358  85.0515567  77.2526426
  26.3018915  84.5759001  76.7320791  24.9927267  83.4538141  77.2893174
  24.2660430  83.3194106  76.6809666  24.5774554  83.7614970  78.0949892
  12.8157443  87.1728071  85.0540547  13.7360453  87.3506670  85.2480594
  12.7807026  86.2284116  84.9020246  11.1161668  81.0460301  63.5294775
  10.2093123  80.7493414  63.6057489  11.3937649  80.7490119  62.6629061
   2.0339608  82.3666665  73.9793822   1.7142392  81.5131973  73.6868196
   1.4873036  82.5815243  74.7351789   5.8119516  85.0829106  77.6963328
   6.0305525  86.0146213  77.7151362   6.2245289  84.7237080  78.4818132
  12.7323733  75.5897191  69.6839017  11.9224462  75.2444276  70.0594263
  13.4208150  75.2804735  70.2726628  14.6614282  74.6675238  71.3063313
  15.2145320  75.0870691  71.9653336  14.8984368  73.7410986  71.3486269
  10.6847381  80.6562311  87.0866077  10.5844108  81.6056668  87.0178168
  10.4668923  80.3280550  86.2142147   9.8860452  77.9047236  63.6706754
  10.7479616  78.2302135  63.9302572  10.0710797  77.1178732  63.1579820
   1.9027868  85.9869576  75.9486943   1.2091340  85.5723529  75.4356898
   2.6500859  86.0290113  75.3520362  18.0393089  76.7775763  70.8141977
  17.4591758  77.4360567  70.4320030  17.7729022  75.9553107  70.4029395
  16.4896655  76.1780821  73.0163298  16.9896434  76.2897355  72.2077617
  17.1332263  75.8741873  73.6564106  10.5478651  84.0859450  85.9031139
  10.0645733  84.8859810  86.1095028  10.6339590  84.0967395  84.9498583
   3.8164611  85.9187830  73.8252958   3.7935299  86.0175517  72.8734841
   4.1265247  86.7652981  74.1470124   6.4751989  87.9763985  77.9399573
   7.4295242  87.9447927  77.8729504   6.2764512  87.5154609  78.7549798
   7.0651371  86.5465101  80.5070370   7.8844260  87.0409180  80.5305207
   7.3388178  85.6297069  80.4787938  16.8217967  78.9375853  69.8698326
  15.9343822  79.2225504  69.6518520  17.2371956  78.7769617  69.0225603
  20.1732503  78.9622374  73.5852665  20.9492893  79.4518827  73.8577282
  19.4480637  79.3880428  74.0424534  22.6105062  79.6749993  74.6426606
  23.2049552  79.4345729  73.9319914  22.6831645  78.9557124  75.2700142
   4.8302217  93.5183604  74.9569770   4.6956685  92.7584005  74.3907768
   4.4134280  94.2424504  74.4898559  15.9661180  88.7020528  63.9646346
  16.6697030  88.9070530  64.5804001  15.2423829  89.2697290  64.2295429
  16.7958991  84.4530389  70.0848616  16.7394192  84.9098941  69.2456248
  17.3487333  83.6921074  69.9071459  20.6063797  80.2420121  70.9098735
  20.3500731  79.8416757  71.7406943  19.9816665  80.9563915  70.7848875
  24.9176134  82.9816194  73.4170027  24.3575692  83.0509384  74.1901589
  24.3119638  82.8057179  72.6969523   7.9871343  94.4152921  75.1688213
   7.8703727  95.3598354  75.0666903   7.1663789  94.1126483  75.5574012
  17.8747878  89.1403057  66.0144806  18.7093482  88.7084256  65.8322281
  17.7132221  88.9685071  66.9421700  17.5293770  85.6435170  67.3801145
  17.4742574  85.4779442  66.4389589  16.9039825  86.3511203  67.5363335
   2.3186285  80.8803235  81.2062567   2.9645149  80.3702189  81.6949792
   2.1103436  81.6171916  81.7805993  14.8439677  87.9484082  86.7054708
  15.7130837  88.1224735  86.3441343  14.3646429  88.7678499  86.5830437
  10.8389895  75.1443279  66.9586463  10.8268565  76.0885119  67.1154734
  11.7313317  74.9613425  66.6645925   9.0125857  95.0681183  78.3844141
   9.9153104  95.1004794  78.7010636   8.7863227  94.1381634  78.3990477
  10.7679459  93.8212170  75.0454220   9.8175090  93.8214031  74.9318592
  11.0711945  93.0744904  74.5290255  14.6542015  71.7386056  71.2132400
  13.8874411  71.1844543  71.3589083  15.0652720  71.8107925  72.0746552
   6.6583776  78.0270852  85.3037581   7.5215237  77.6707657  85.5140906
   6.0849187  77.6884747  85.9912986  26.5032153  99.6572708  76.1099983
  27.1410563  99.5379456  75.4063323  26.3852996 100.6053552  76.1687935
  23.3121859  99.6100136  76.0461507  22.9740371  99.4941201  75.1582042
  24.1811627  99.2091301  76.0262513  19.1708675 101.4635613  72.0358398
  18.6073540 101.3725550  71.2674686  19.0561070 100.6435517  72.5160891
  23.7941642 100.7634988  82.0047713  23.7830283 100.3687786  81.1328216
  23.9562282 100.0301061  82.5981484  16.7173107 102.9586804  74.8742619
  17.5094399 102.6177629  74.4588918  16.9569757 103.0681779  75.7944772
  24.7508234 105.1306580  67.3472863  24.0996213 105.7160661  66.9606877
  25.5452596 105.6612775  67.4067901  18.6763861 102.2195718  67.7459997
  19.4494737 101.6724705  67.6072873  19.0289260 103.0839967  67.9574459
  20.5148903 103.5472100  80.9526897  20.2238769 104.4517731  80.8373563
  21.1505888 103.5888627  81.6670966  21.4405110 100.9248948  77.5428256
  22.0368682 100.7004971  76.8285219  21.4980082 100.1833694  78.1453704
  21.0130139  98.3788384  65.3778447  21.2655659  97.8569905  64.6161910
  20.0754698  98.2154529  65.4805131  26.0573421  97.3824162  73.1853191
  26.8436511  96.9643585  72.8343608  26.3212126  98.2870254  73.3534839
  26.2283499 102.8197012  67.8841847  25.5929332 102.8931639  68.5962752
  25.8980905 103.4090611  67.2060927  31.4581848  97.3199395  74.0886169
  32.1907020  96.7498612  74.3223999  30.7021204  96.9320996  74.5292675
  20.7326427 100.2816490  67.5802822  20.6162685  99.6061393  68.2483907
  20.8428687  99.7948864  66.7634975  23.0757968  99.7426637  71.2849512
  22.7116175  99.2157258  71.9962433  23.9325084  99.3525106  71.1115997
  28.9807269  91.0320969  78.5480778  28.6490594  91.9016380  78.3241993
  28.3852882  90.7157253  79.2274808  22.7163455  94.7716536  66.2810860
  22.8837858  95.6396773  66.6481331  22.5260624  94.9343818  65.3572149
  25.4738788 103.2333515  77.9476690  25.1739511 104.1358554  77.8392498
  25.1289848 102.9665699  78.7997843  18.9251270  99.6847312  73.9813395
  18.0001766  99.5523526  74.1891087  19.1735683 100.4641531  74.4783337
  28.8735932  95.7516056  75.6274128  27.9652809  95.6831464  75.3332889
  28.8223528  96.2288000  76.4555953  22.6952676  97.2274194  67.2657527
  22.5752301  97.6731245  68.1043007  22.0005264  97.5759512  66.7071065
  16.2860081  99.3280586  74.8157184  16.4152462  99.5815065  75.7296596
  15.6057532  99.9208294  74.4961839  20.4559568 109.9977836  70.9147658
  20.3783598 110.9485661  70.9936139  19.8521212 109.6523708  71.5722584
  22.9476798  97.1705701  83.5709025  22.1710132  97.7299621  83.5611890
  23.5867361  97.6562484  84.0923895  30.7397579  93.9532494  77.4052002
  30.0971959  94.2465027  76.7591796  30.2352507  93.8385414  78.2105198
  28.3937742  97.6995667  68.0937861  29.3055598  97.9323054  67.9185558
  27.8847389  98.2832711  67.5312940  21.2023170  99.9791154  83.1326992
  21.9437855 100.5176198  82.8561816  20.4960156 100.6057443  83.2898544
  26.6778510 102.1220295  81.7299153  27.0861866 101.6802705  80.9853786
  25.9555771 101.5472922  81.9833346  23.0309580  97.0592902  79.1032710
  23.8770775  97.4832315  79.2467359  22.9708218  96.4026526  79.7971274
  27.0007324 102.6821486  75.4851442  26.3716187 102.8467200  74.7827510
  26.6132987 103.0963095  76.2562406  30.8796556 103.6175923  72.8395806
  30.1947595 103.9974825  72.2892839  30.9640406 104.2271250  73.5727754
  26.1809025  94.7197270  80.7613884  25.9369957  95.4739331  80.2248160
  26.4568956  95.0982618  81.5961131  28.1347488 101.2635882  79.4391150
  28.3464383 101.9067642  78.7625531  28.0877236 100.4298199  78.9713080
  25.7373717  93.8753703  76.3427722  24.8758196  94.1734957  76.6344459
  25.7636152  94.0924102  75.4108754  22.5535286 102.4195894  72.7501527
  23.0173632 102.6983597  71.9606150  22.2892084 101.5179338  72.5674618
  19.4459367 101.9667375  75.6881291  20.0160724 102.3954644  75.0498775
  20.0367479 101.6849960  76.3865476  21.4904172  98.5419046  69.5591093
  22.1928216  98.9940090  70.0265019  21.1584801  97.9002865  70.1870986
  19.9384534  97.1330803  83.9342302  19.3083195  97.8147084  84.1677699
  19.8320622  97.0213884  82.9895440  15.2329506  96.8002599  74.8608226
  14.4428560  97.0560127  74.3848337  15.7240754  97.6150937  74.9660267
  29.2493316 104.1407838  77.6113507  30.0710760 103.7388025  77.3296189
  29.2455719 104.0376072  78.5629623  17.1844252  97.1647178  71.8191703
  16.3875415  97.2765872  72.3375199  16.9569844  97.5033830  70.9532593
  23.0149919 103.6891881  79.7674217  23.0794352 104.1512288  80.6032389
  22.3060843 103.0589246  79.8956527  13.5167209  97.0533089  77.2923217
  13.7675248  97.9380099  77.5580793  14.0526758  96.8737691  76.5198309
  37.3399309 100.4846586  73.9598478  36.5863017  99.9153984  73.8042483
  37.4746850 100.4509251  74.9069113  22.7297937 105.3559989  69.6353198
  22.5943612 106.2011524  70.0638046  23.2707750 105.5579266  68.8719132
  19.2165277  91.4351568  86.2967553  18.8232222  90.8817767  86.9715197
  20.0331417  91.7462147  86.6874071  16.1827334 102.8735427  70.2081123
  16.6951855 103.6678677  70.3586688  16.8350047 102.1761717  70.1414724
  17.9922219 105.9901183  72.2903876  18.1688847 106.9119148  72.1024860
  18.7879053 105.6759602  72.7198256  22.1333238  92.8509448  83.8887810
  22.8742951  93.4516601  83.8092272  22.3651160  92.1087085  83.3305852
  17.2774576  98.0365815  82.1666039  17.1628091  97.1351072  82.4673138
  16.4219093  98.2829512  81.8150856  24.3566413 105.9783555  83.7653540
  23.9130268 105.1919934  83.4474444  25.0183627 106.1662706  83.0997431
  19.1153535 107.5079357  78.2914218  19.6660960 107.3796420  77.5191212
  18.2765011 107.8074246  77.9409111  26.4547651 106.2586355  81.7934941
  26.4366127 107.0795236  81.3015210  27.3767572 106.1340430  82.0185082
  22.9120706 103.7730485  82.6358450  23.4449042 103.0118773  82.4057758
  22.3834787 103.4804136  83.3782604  26.0790401  88.8790551  78.1652091
  25.7354670  89.7692192  78.0891202  26.4469363  88.6892208  77.3021676
  14.1476251 101.2024081  70.9840693  14.9851473 101.6121089  70.7674401
  14.3254519 100.2623523  70.9540887  26.0440683  98.8699162  66.6724526
  25.5287307  99.6403766  66.9112914  25.7717992  98.1964298  67.2957588
  23.6287794  93.7148862  71.7309765  22.7729391  93.3255713  71.5515403
  24.0414746  93.7940823  70.8709550  25.1586941  91.2495206  76.1301325
  24.6551737  91.2125341  75.3169130  25.4517548  92.1587948  76.1897981
  21.4029827  91.3333935  75.1367506  22.2682824  91.1376744  74.7773396
  21.4707336  91.1044287  76.0636863  31.0174957 101.6231516  68.6077700
  30.2404400 101.2842676  68.1632862  31.6966438 101.6284139  67.9332665
  25.8326986  96.7426254  68.4984308  25.5277122  97.0572403  69.3494451
  26.7857429  96.8207674  68.5411641  24.2773418 102.9016477  70.1477262
  23.7494780 102.1669237  69.8350499  23.7760921 103.6791153  69.9017230
  29.2566264 101.0965498  75.2644308  28.5989939 101.7864759  75.3524436
  30.0606664 101.4861929  75.6078294  19.0092146  93.5636143  72.5083873
  19.5835898  93.3411325  71.7757066  19.5963128  93.6324838  73.2612474
  28.0671723  99.4509870  73.3148250  28.5803605 100.0839862  73.8169959
  28.7172947  98.8511066  72.9491610  19.3361733  95.5940604  66.5279758
  18.4999045  95.9315291  66.8489033  19.1966503  95.4589584  65.5906895
  21.3114814  90.4377392  71.2358942  20.6579226  90.1226409  70.6115557
  21.2695288  89.8153133  71.9618765  22.4226019 100.7196687  63.1512235
  21.5153080 100.4885941  63.3503384  22.9197051  99.9234307  63.3386216
  25.3294097 109.4294194  66.0708921  24.6555796 109.7325891  66.6793879
  25.7159919 110.2323275  65.7214378  24.5452554  96.9259326  75.5606590
  23.6275115  97.1474273  75.4028278  24.9612698  97.0005636  74.7018297
  25.3287602  98.3250741  70.6909270  26.0759421  98.8372139  70.3816392
  25.5979191  98.0034794  71.5513664  23.6014252 100.8209282  67.6736225
  22.6925471 100.5368315  67.7708694  23.6309336 101.2408361  66.8139532
  28.8333519 104.4315872  71.4427392  28.3795846 103.5906782  71.4992583
  28.2027486 105.0677270  71.7802172  27.7766439  95.3607858  72.6728060
  27.0389196  94.8485244  73.0038302  28.0293212  94.9208239  71.8611337
  27.2766459 106.2692368  72.3777210  27.5689433 106.8297425  71.6589576
  27.7865079 106.5620929  73.1330369  27.8778066  88.1384110  73.2669829
  28.1836943  87.2781473  72.9795744  28.6030671  88.7301730  73.0668823
  14.1702422  98.5414796  71.6551427  13.9726822  97.9484157  70.9302493
  13.6149086  98.2367006  72.3727366  22.1499146  98.4337903  73.7746020
  22.2047756  97.4811739  73.6988497  21.3390348  98.5897342  74.2587318
  23.2990340 102.3618026  65.0124303  22.8609770 101.6453885  64.5529941
  24.0400781 102.5894141  64.4509395  20.0891506  97.0514963  71.5336399
  19.2759371  97.3509133  71.9401591  20.5850500  96.6570651  72.2510881
  22.2400084 107.0472719  73.4670664  22.1976263 107.2733566  72.5379196
  23.1562783 106.8136094  73.6156465  25.6865718  97.5156787  80.3651293
  26.0415105  97.7428260  81.2245759  26.3337849  97.8475164  79.7428548
  31.4163455 100.6375223  71.0700622  31.2781353 100.8276819  70.1421811
  31.0599673 101.3994606  71.5268673  19.5805581  94.6233318  77.1497634
  20.2204960  94.4822077  76.4520597  18.7483111  94.3367831  76.7736236
  31.4432834 102.7051750  76.0811893  31.8769341 102.6127039  76.9294947
  32.1564415 102.6809250  75.4431909  20.3565885 103.9235748  73.2632626
  21.1506483 103.4286069  73.0615201  19.6457577 103.3953612  72.9000332
  25.1760729 106.3053844  77.6144994  25.2297751 106.8744780  78.3822710
  24.3075510 106.4755729  77.2499031  16.6648648  98.0678830  69.3392379
  15.7346236  98.0063286  69.5562341  16.7606120  97.5454783  68.5429020
  16.5834197  94.5933643  71.9270621  16.8441014  95.5078976  71.8179781
  17.4051369  94.1258086  72.0767233  18.0559122  96.0071400  79.0969445
  18.7282176  95.7988762  78.4482094  17.2288909  95.8093486  78.6574677
  32.3048384 102.7475451  78.6144779  32.4984274 103.6521261  78.8604054
  32.2049002 102.2882870  79.4483364  23.9584694  92.6333341  81.1135106
  23.3112609  93.3323291  81.0199582  24.7285710  93.0669485  81.4811354
  27.3663492 102.8982193  84.1885659  27.2148999 102.6692745  83.2715743
  27.3568172 103.8552795  84.2017004  24.1348829 100.4714106  79.1731926
  25.0640889 100.6225266  79.0000893  23.7139859 100.5598127  78.3180572
  22.9337161 104.4964770  76.9430463  22.7948246 104.1283555  77.8156402
  22.1451757 105.0112410  76.7714421  23.5285313 109.5973867  68.2856000
  23.7037068 109.1261910  69.1001623  22.8418101 110.2239633  68.5137261
  24.4842376 103.8746373  74.3319301  24.1492208 103.8347143  75.2276951
  23.9846321 103.2091089  73.8589711  18.4586620  99.2814003  79.8571882
  18.3206418  98.5494242  80.4583421  19.3691543  99.1922903  79.5756070
  27.4201567 101.2202407  64.6056361  26.8030738 100.4949236  64.5089414
  26.9518056 101.9811768  64.2623435  21.0868920  98.9933963  79.3455562
  21.7968539  98.3527155  79.3042180  21.0438229  99.2446857  80.2681743
  29.0755699 105.9301316  82.2662141  29.0168245 105.2460536  81.5992724
  29.4775217 106.6720306  81.8142767  19.7997854  95.9799180  81.1651201
  19.2635211  95.5289919  81.8172798  19.2114563  96.1145089  80.4221666
  19.2100113  95.4387832  63.7277665  18.3329580  95.3176633  63.3639912
  19.6857866  94.6473910  63.4756554  29.0773106 103.8940900  80.4976121
  28.1899885 103.5566822  80.6202520  29.6471657 103.1623931  80.7344886
  10.7302253 100.2264992  73.8219172  11.4173293  99.9126722  73.2340188
  10.5750382 101.1306356  73.5486424  15.5336976  95.1155188  78.2504196
  15.4495164  94.5080858  77.5154606  14.7119682  95.6064206  78.2513692
  22.6074260 108.5542352  77.4637364  22.5344431 109.3597324  77.9756669
  22.1651653 108.7534318  76.6385385  22.3964039 107.7914122  70.9740186
  21.6131561 108.3335802  71.0678410  23.0956785 108.3088102  71.3734427
  25.7060689  93.6008752  73.6174391  26.2029389  92.8478714  73.2975461
  24.9347671  93.6373068  73.0517600  33.5590447  99.3049117  75.2592683
  33.5480323 100.1873833  74.8886616  32.6907826  98.9520668  75.0647220
  25.0672943 108.4529186  79.6195523  25.7800915 109.0876651  79.5471424
  24.5762972 108.5493052  78.8035525  26.7890470 102.3580439  71.1912814
  25.8546749 102.4781901  71.0217519  26.9667139 101.4552906  70.9272824
  22.2895658  95.7426135  73.3446076  21.9193446  95.1897175  74.0326981
  22.7854751  95.1384268  72.7921076  30.1763021  98.1997758  71.7262849
  30.6423474  99.0325750  71.6523151  30.6270522  97.7342740  72.4308107
  20.1184857 106.2023630  80.4401094  20.8194316 106.8360113  80.5930488
  19.6479972 106.5438361  79.6796733  28.2439253 104.5441579  68.7249001
  28.5199096 104.4298174  69.6342875  27.3743751 104.1459064  68.6861174
  28.1479684  90.5678345  75.7653750  27.2342764  90.7982572  75.9335957
  28.5772786  90.6516789  76.6167782  27.9186143  98.7568237  78.2653644
  27.2657593  99.0044145  77.6106097  28.2966523  97.9432375  77.9316121
  24.8793317 108.7927930  72.3681814  25.0615711 107.9749586  72.8309567
  25.7026303 109.0095622  71.9306704  25.2135482 107.7196115  69.6296863
  25.7423249 107.2088570  69.0167025  25.4763702 107.4038646  70.4942396
  23.9673716  99.4988048  84.7519681  23.2914353  99.3982177  85.4222056
  24.7901350  99.3427262  85.2155678  15.7152575 105.7359985  77.3732196
  16.3006012 104.9903673  77.5060100  15.5177413 106.0463941  78.2568860
  18.5691230 108.7711232  72.3894639  17.9001605 109.2557360  71.9058679
  18.4304100 109.0180453  73.3038017  10.3070230  98.3065585  76.0936639
  10.3454329  97.7729176  76.8873757   9.8010522  97.7800790  75.4747617
  22.7096499 110.8054976  78.9877297  23.2614807 110.9686597  79.7526382
  23.0502692 111.3959413  78.3157322  17.6860992  93.1530125  79.5899182
  17.7502318  94.0144956  79.1776579  17.6228112  92.5404127  78.8571540
  17.1613264  95.2253258  83.2372216  17.7885303  94.8430335  83.8509740
  16.3041183  95.0067460  83.6027908  27.5607373 105.6316233  84.8425951
  28.1047277 106.2446191  84.3480906  26.9794218 106.1895811  85.3592964
  13.9378807  97.0329687  69.1690571  14.2332248  96.1240365  69.1157624
  13.0366843  97.0117426  68.8471573  25.8464886 108.7536951  75.9740979
  25.7216025 107.9526691  75.4651925  26.5043977 109.2483144  75.4854949
  17.4673054  95.1085684  75.1518119  16.7459640  95.7221651  75.0125593
  18.2566310  95.6443448  75.0734765  27.9099794 106.5545971  77.6020529
  26.9630130 106.4351322  77.5298856  28.2582567 105.6668469  77.6846791
  20.2699368  92.4440110  81.4258771  20.7933769  92.6902407  82.1885080
  20.0511701  93.2760145  81.0061908  15.6666649  94.7143785  69.2929896
  15.3379355  93.8341164  69.1105002  16.0206019  94.6591453  70.1806285
  24.9146228 106.3498687  73.8024881  24.7671190 105.4215395  73.9832452
  25.7399721 106.3718778  73.3181957  18.7808472  95.0016754  69.6605374
  19.1204544  95.5302676  68.9383982  19.2280592  95.3397161  70.4363940
  28.5180349 107.1727246  74.8889754  29.4426897 106.9670107  74.7514205
  28.3495653 106.9243647  75.7979096  21.4751913  93.3853805  79.1108442
  21.1348733  92.5861618  79.5129122  20.7690919  93.6855516  78.5385275
  22.1268385  90.4703118  77.5635765  22.9494454  89.9963596  77.4414655
  22.3706448  91.2493601  78.0634451  20.7676619  93.4991376  67.8598666
  21.4884982  93.8772629  67.3562383  20.1441923  94.2180253  67.9633644
  24.9107742  94.2036525  68.7956999  25.1271356  95.0861163  68.4945827
  24.4301809  93.8122738  68.0662641  19.6506963  97.1622238  75.3727743
  19.5051544  97.4762541  76.2652025  19.1732167  97.7807139  74.8198642
  21.5103346  94.1524786  75.4208633  21.4964915  93.2565880  75.0840931
  22.2275774  94.1595450  76.0546919  23.3629477  94.5862126  77.4661760
  23.1047255  95.5079197  77.4646091  22.8314517  94.1892561  78.1562224
  28.3075666 107.6912914  70.2451846  28.4812543 107.1259336  69.4925698
  28.8004557 108.4913808  70.0631336  14.1252625  99.7027583  78.3115404
  13.5806094 100.4787391  78.4435679  15.0031975 100.0498387  78.1534526
  20.9140242  93.0339167  70.6896203  21.0356153  92.1055813  70.8887090
  20.6242284  93.0477853  69.7774518  23.7831432  90.7194077  73.8262923
  23.8053129  90.7833410  72.8714902  24.1999491  89.8798586  74.0203429
  34.1615057 100.4549337  71.8642145  34.6046203  99.7056662  71.4661269
  33.2841567 100.4459473  71.4815877  29.2950838 107.0079678  67.3448744
  29.9901743 107.6286371  67.5636059  29.6373988 106.1575029  67.6201122
  14.9118647  98.8297479  81.2045561  14.1700383  98.9780114  81.7910192
  14.5911392  99.0905745  80.3412311  31.1942261 104.4579384  68.8736075
  31.7193585 104.7966656  68.1485395  31.1064614 103.5226399  68.6899209
  22.8562310 108.3713457  81.0025951  23.1649436 108.1262604  81.8748651
  23.6537792 108.5760096  80.5144822  22.8782922 110.5251367  73.2331328
  22.4387912 110.0327745  73.9264185  23.6291039 109.9824334  72.9923403
  15.3575261 106.7162908  73.2355956  16.1833281 106.4166680  72.8554600
  15.0069313 105.9470530  73.6845745  20.3256794 106.0689376  75.3053630
  19.7036803 105.4060081  75.0055857  20.9961661 106.0950508  74.6227277
  13.5583866 104.6349234  74.1944890  12.7215774 104.2071408  74.0128891
  13.5307511 104.8281677  75.1315681  20.3981322  94.5471164  84.8986136
  20.4469477  95.4233287  84.5163905  20.9403836  94.0048557  84.3257779
  30.8836167 105.0912287  84.1787273  30.0931711 105.0736426  83.6391772
  30.6469522 105.6300581  84.9336309  31.0034042 101.9404754  81.4920001
  31.0532047 101.7754761  82.4335524  30.8947966 101.0732013  81.1017882
  19.8870301 104.6193299  68.7812090  20.0358421 105.3028764  68.1278763
  20.6936745 104.5998389  69.2961546  28.2937805  97.9235682  82.8079308
  29.1947668  97.7842146  82.5163306  28.3685779  98.0890136  83.7477485
  22.6280610  95.3002536  81.6532494  21.7583919  95.5936102  81.3815083
  22.8640090  95.8842981  82.3739758  32.5052239 104.3601695  81.7362023
  32.2137048 104.7231676  82.5725484  31.8924370 103.6468703  81.5575355
  33.7047922 101.9254575  74.2564593  34.5394813 102.3644379  74.4202153
  33.8407050 101.4493228  73.4372839  30.7539427  99.4834310  80.2042081
  31.2293549  99.6761956  79.3960932  29.8304993  99.5393496  79.9585464
  17.6422934 100.6458477  69.7873159  17.3968976  99.7420807  69.9853369
  17.8118849 100.6475627  68.8452637  25.3319644  91.5182153  79.1697915
  25.8501588  92.2543180  78.8444403  24.9774777  91.8246147  80.0044674
  16.9118582  96.3786834  67.2859320  16.2187827  96.4531189  66.6299356
  16.6670333  95.6147178  67.8080837  25.5832238  87.9382436  74.6898811
  25.8633992  87.2705625  75.3159238  26.3682845  88.1311531  74.1773475
  23.3865707 107.1141430  66.2523838  22.8139674 107.7331617  65.7994309
  23.9598500 107.6640791  66.7863759  29.4541096  96.3600070  78.4370386
  30.4058519  96.4598167  78.4582610  29.2844547  95.5678338  78.9468471
  27.4755476  93.4455653  78.6229787  26.8805408  93.7260666  77.9276276
  27.1905173  93.9349554  79.3946528  26.6062966 107.3978580  67.3832420
  27.5393640 107.3324141  67.5865295  26.5186179 108.2334847  66.9246952
  29.2350983 106.7144450  64.3436367  29.1564615 106.3804314  65.2372125
  30.0560650 107.2066218  64.3427840  31.9329174  99.5806189  77.5512686
  31.9005494  98.6422190  77.7372370  32.5429798  99.6590226  76.8178511
  23.7712505  98.4502242  63.5939890  24.7171610  98.3208451  63.6628308
  23.3926750  97.7116904  64.0709318  32.0823663  96.3717233  77.5970969
  31.5662711  95.5875690  77.4100898  32.9663611  96.0435950  77.7617489
  29.7434390  90.1158248  73.5566782  29.5459211  89.8073337  74.4410114
  30.3534095  90.8419887  73.6864712  37.7505724 100.6422196  76.6918723
  38.4809113 100.3807484  77.2526426  37.1412670  99.9050918  76.7320791
  35.8321021  98.7830059  77.2893174  35.1054185  98.6486024  76.6809666
  35.4168308  99.0906887  78.0949892  23.6551198 102.5019989  85.0540547
  24.5754207 102.6798588  85.2480594  23.6200781 101.5576034  84.9020246
  21.9555422  96.3752219  63.5294775  21.0486878  96.0785332  63.6057489
  22.2331403  96.0782037  62.6629061  12.8733363  97.6958582  73.9793822
  12.5536147  96.8423890  73.6868196  12.3266791  97.9107160  74.7351789
  16.6513270 100.4121023  77.6963328  16.8699280 101.3438131  77.7151362
  17.0639044 100.0528998  78.4818132  23.5717488  90.9189109  69.6839017
  22.7618216  90.5736194  70.0594263  24.2601905  90.6096652  70.2726628
  25.5008036  89.9967155  71.3063313  26.0539075  90.4162609  71.9653336
  25.7378123  89.0702903  71.3486269  21.5241135  95.9854229  87.0866077
  21.4237862  96.9348586  87.0178168  21.3062678  95.6572468  86.2142147
  20.7254207  93.2339154  63.6706754  21.5873371  93.5594052  63.9302572
  20.9104551  92.4470650  63.1579820  12.7421623 101.3161494  75.9486943
  12.0485094 100.9015447  75.4356898  13.4894614 101.3582030  75.3520362
  28.8786843  92.1067680  70.8141977  28.2985512  92.7652485  70.4320030
  28.6122776  91.2845025  70.4029395  27.3290410  91.5072738  73.0163298
  27.8290188  91.6189273  72.2077617  27.9726018  91.2033791  73.6564106
  21.3872406  99.4151368  85.9031139  20.9039487 100.2151728  86.1095028
  21.4733345  99.4259313  84.9498583  14.6558365 101.2479747  73.8252958
  14.6329053 101.3467435  72.8734841  14.9659002 102.0944898  74.1470124
  17.3145743 103.3055903  77.9399573  18.2688997 103.2739845  77.8729504
  17.1158267 102.8446526  78.7549798  17.9045125 101.8757019  80.5070370
  18.7238014 102.3701097  80.5305207  18.1781933 100.9588987  80.4787938
  27.6611721  94.2667771  69.8698326  26.7737576  94.5517422  69.6518520
  28.0765710  94.1061534  69.0225603  31.0126257  94.2914292  73.5852665
  31.7886648  94.7810744  73.8577282  30.2874392  94.7172346  74.0424534
  33.4498816  95.0041911  74.6426606  34.0443307  94.7637647  73.9319914
  33.5225400  94.2849042  75.2700142  15.6695972 108.8475522  74.9569770
  15.5350440 108.0875923  74.3907768  15.2528034 109.5716422  74.4898559
  26.8054935 104.0312446  63.9646346  27.5090785 104.2362448  64.5804001
  26.0817584 104.5989207  64.2295429  27.6352745  99.7822307  70.0848616
  27.5787947 100.2390858  69.2456248  28.1881088  99.0212991  69.9071459
  31.4457551  95.5712039  70.9098735  31.1894485  95.1708674  71.7406943
  30.8210419  96.2855833  70.7848875  35.7569889  98.3108112  73.4170027
  35.1969447  98.3801301  74.1901589  35.1513392  98.1349097  72.6969523
  18.8265098 109.7444839  75.1688213  18.7097482 110.6890272  75.0666903
  18.0057544 109.4418401  75.5574012  28.7141632 104.4694975  66.0144806
  29.5487236 104.0376173  65.8322281  28.5525975 104.2976988  66.9421700
  28.3687524 100.9727088  67.3801145  28.3136328 100.8071359  66.4389589
  27.7433580 101.6803121  67.5363335  13.1580039  96.2095152  81.2062567
  13.8038903  95.6994106  81.6949792  12.9497191  96.9463834  81.7805993
  25.6833432 103.2776000  86.7054708  26.5524591 103.4516652  86.3441343
  25.2040183 104.0970417  86.5830437  21.6783650  90.4735197  66.9586463
  21.6662320  91.4177037  67.1154734  22.5707072  90.2905342  66.6645925
  19.8519612 110.3973101  78.3844141  20.7546859 110.4296711  78.7010636
  19.6256982 109.4673552  78.3990477  21.6073214 109.1504087  75.0454220
  20.6568845 109.1505949  74.9318592  21.9105700 108.4036822  74.5290255
  25.4935769  87.0677974  71.2132400  24.7268165  86.5136460  71.3589083
  25.9046474  87.1399842  72.0746552  17.4977530  93.3562770  85.3037581
  18.3608992  92.9999574  85.5140906  16.9242941  93.0176664  85.9912986
  37.3425907 114.9864626  76.1099983  37.9804317 114.8671373  75.4063323
  37.2246750 115.9345470  76.1687935  34.1515614 114.9392054  76.0461507
  33.8134125 114.8233119  75.1582042  35.0205382 114.5383219  76.0262513
  34.6335397 116.0926906  82.0047713  34.6224037 115.6979704  81.1328216
  34.7956036 115.3592978  82.5981484  31.8523893 113.7080301  65.3778447
  32.1049414 113.1861823  64.6161910  30.9148452 113.5446447  65.4805131
  36.8967176 112.7116080  73.1853191  37.6830265 112.2935503  72.8343608
  37.1605880 113.6162172  73.3534839  42.2975603 112.6491313  74.0886169
  43.0300775 112.0790530  74.3223999  41.5414959 112.2612913  74.5292675
  33.9151723 115.0718554  71.2849512  33.5509930 114.5449175  71.9962433
  34.7718839 114.6817023  71.1115997  39.8201023 106.3612887  78.5480778
  39.4884348 107.2308298  78.3241993  39.2246637 106.0449171  79.2274808
  33.5557210 110.1008454  66.2810860  33.7231612 110.9688691  66.6481331
  33.3654379 110.2635736  65.3572149  39.7129687 111.0807973  75.6274128
  38.8046564 111.0123382  75.3332889  39.6617282 111.5579918  76.4555953
  33.5346431 112.5566112  67.2657527  33.4146056 113.0023162  68.1043007
  32.8399019 112.9051429  66.7071065  33.7870552 112.4997619  83.5709025
  33.0103886 113.0591539  83.5611890  34.4261115 112.9854402  84.0923895
  41.5791333 109.2824412  77.4052002  40.9365713 109.5756945  76.7591796
  41.0746262 109.1677332  78.2105198  39.2331497 113.0287585  68.0937861
  40.1449353 113.2614972  67.9185558  38.7241144 113.6124629  67.5312940
  37.5172264 117.4512213  81.7299153  37.9255620 117.0094623  80.9853786
  36.7949526 116.8764840  81.9833346  33.8703334 112.3884819  79.1032710
  34.7164530 112.8124233  79.2467359  33.8101972 111.7318444  79.7971274
  37.0202780 110.0489188  80.7613884  36.7763712 110.8031248  80.2248160
  37.2962710 110.4274535  81.5961131  38.9741242 116.5927800  79.4391150
  39.1858138 117.2359560  78.7625531  38.9270991 115.7590117  78.9713080
  36.5767471 109.2045621  76.3427722  35.7151950 109.5026874  76.6344459
  36.6029906 109.4216020  75.4108754  32.3297927 113.8710964  69.5591093
  33.0321970 114.3232007  70.0265019  31.9978555 113.2294783  70.1870986
  30.7778288 112.4622720  83.9342302  30.1476949 113.1439001  84.1677699
  30.6714376 112.3505802  82.9895440  26.0723261 112.1294516  74.8608226
  25.2822315 112.3852045  74.3848337  26.5634508 112.9442854  74.9660267
  28.0238006 112.4939096  71.8191703  27.2269170 112.6057790  72.3375199
  27.7963598 112.8325748  70.9532593  48.1793063 115.8138504  73.9598478
  47.4256772 115.2445902  73.8042483  48.3140605 115.7801169  74.9069113
  30.0559031 106.7643486  86.2967553  29.6625977 106.2109685  86.9715197
  30.8725171 107.0754065  86.6874071  32.9726992 108.1801365  83.8887810
  33.7136706 108.7808518  83.8092272  33.2044915 107.4379003  83.3305852
  28.1168330 113.3657733  82.1666039  28.0021845 112.4642990  82.4673138
  27.2612848 113.6121429  81.8150856  36.9184155 104.2082468  78.1652091
  36.5748424 105.0984110  78.0891202  37.2863118 104.0184126  77.3021676
  36.8834438 114.1991079  66.6724526  36.3681061 114.9695684  66.9112914
  36.6111746 113.5256215  67.2957588  34.4681549 109.0440780  71.7309765
  33.6123145 108.6547630  71.5515403  34.8808501 109.1232741  70.8709550
  35.9980695 106.5787123  76.1301325  35.4945491 106.5417259  75.3169130
  36.2911302 107.4879866  76.1897981  32.2423581 106.6625853  75.1367506
  33.1076578 106.4668662  74.7773396  32.3101090 106.4336205  76.0636863
  41.8568712 116.9523434  68.6077700  41.0798155 116.6134593  68.1632862
  42.5360193 116.9576057  67.9332665  36.6720741 112.0718171  68.4984308
  36.3670877 112.3864321  69.3494451  37.6251183 112.1499591  68.5411641
  40.0960019 116.4257415  75.2644308  39.4383693 117.1156677  75.3524436
  40.9000418 116.8153847  75.6078294  29.8485900 108.8928061  72.5083873
  30.4229652 108.6703242  71.7757066  30.4356883 108.9616756  73.2612474
  38.9065478 114.7801788  73.3148250  39.4197359 115.4131780  73.8169959
  39.5566702 114.1802983  72.9491610  30.1755488 110.9232522  66.5279758
  29.3392800 111.2607209  66.8489033  30.0360257 110.7881502  65.5906895
  32.1508568 105.7669310  71.2358942  31.4972980 105.4518327  70.6115557
  32.1089042 105.1445050  71.9618765  33.2619773 116.0488605  63.1512235
  32.3546835 115.8177858  63.3503384  33.7590805 115.2526224  63.3386216
  35.3846309 112.2551243  75.5606590  34.4668870 112.4766190  75.4028278
  35.8006452 112.3297554  74.7018297  36.1681356 113.6542659  70.6909270
  36.9153175 114.1664056  70.3816392  36.4372946 113.3326712  71.5513664
  34.4408006 116.1501200  67.6736225  33.5319226 115.8660233  67.7708694
  34.4703090 116.5700278  66.8139532  38.6160193 110.6899775  72.6728060
  37.8782950 110.1777162  73.0038302  38.8686967 110.2500157  71.8611337
  38.7171821 103.4676027  73.2669829  39.0230698 102.6073391  72.9795744
  39.4424426 104.0593648  73.0668823  32.9892900 113.7629820  73.7746020
  33.0441510 112.8103657  73.6988497  32.1784103 113.9189260  74.2587318
  30.9285260 112.3806880  71.5336399  30.1153126 112.6801051  71.9401591
  31.4244255 111.9862569  72.2510881  36.5259472 112.8448705  80.3651293
  36.8808860 113.0720178  81.2245759  37.1731603 113.1767081  79.7428548
  42.2557209 115.9667141  71.0700622  42.1175108 116.1568737  70.1421811
  41.8993428 116.7286523  71.5268673  30.4199335 109.9525236  77.1497634
  31.0598714 109.8113995  76.4520597  29.5876866 109.6659749  76.7736236
  42.2826589 118.0343668  76.0811893  42.7163095 117.9418957  76.9294947
  42.9958169 118.0101168  75.4431909  27.5042403 113.3970748  69.3392379
  26.5739991 113.3355203  69.5562341  27.5999875 112.8746701  68.5429020
  27.4227952 109.9225561  71.9270621  27.6834769 110.8370894  71.8179781
  28.2445124 109.4550003  72.0767233  28.8952877 111.3363318  79.0969445
  29.5675930 111.1280680  78.4482094  28.0682663 111.1385404  78.6574677
  43.1442138 118.0767368  78.6144779  43.3378028 118.9813179  78.8604054
  43.0442756 117.6174787  79.4483364  34.7978449 107.9625259  81.1135106
  34.1506364 108.6615208  81.0199582  35.5679464 108.3961403  81.4811354
  34.9742583 115.8006024  79.1731926  35.9034643 115.9517183  79.0000893
  34.5533613 115.8890044  78.3180572  29.2980374 114.6105921  79.8571882
  29.1600172 113.8786160  80.4583421  30.2085298 114.5214821  79.5756070
  38.2595322 116.5494325  64.6056361  37.6424493 115.8241153  64.5089414
  37.7911810 117.3103685  64.2623435  31.9262675 114.3225880  79.3455562
  32.6362293 113.6819072  79.3042180  31.8831983 114.5738775  80.2681743
  30.6391609 111.3091098  81.1651201  30.1028966 110.8581837  81.8172798
  30.0508317 111.4437007  80.4221666  30.0493868 110.7679749  63.7277665
  29.1723334 110.6468550  63.3639912  30.5251621 109.9765828  63.4756554
  26.3730730 110.4447106  78.2504196  26.2888919 109.8372775  77.5154606
  25.5513436 110.9356124  78.2513692  36.5454444 108.9300669  73.6174391
  37.0423143 108.1770632  73.2975461  35.7741425 108.9664986  73.0517600
  44.3984201 114.6341035  75.2592683  44.3874078 115.5165750  74.8886616
  43.5301581 114.2812586  75.0647220  33.1289413 111.0718052  73.3446076
  32.7587200 110.5189093  74.0326981  33.6248505 110.4676186  72.7921076
  41.0156776 113.5289676  71.7262849  41.4817228 114.3617667  71.6523151
  41.4664276 113.0634657  72.4308107  38.9873439 105.8970263  75.7653750
  38.0736519 106.1274490  75.9335957  39.4166540 105.9808707  76.6167782
  38.7579897 114.0860155  78.2653644  38.1051347 114.3336062  77.6106097
  39.1360277 113.2724293  77.9316121  34.8067470 114.8279966  84.7519681
  34.1308107 114.7274095  85.4222056  35.6295104 114.6719180  85.2155678
  28.5254746 108.4822043  79.5899182  28.5896073 109.3436874  79.1776579
  28.4621867 107.8696045  78.8571540  28.0007019 110.5545176  83.2372216
  28.6279058 110.1722253  83.8509740  27.1434938 110.3359378  83.6027908
  24.7772562 112.3621605  69.1690571  25.0726003 111.4532283  69.1157624
  23.8760597 112.3409344  68.8471573  28.3066809 110.4377601  75.1518119
  27.5853394 111.0513569  75.0125593  29.0960064 110.9735366  75.0734765
  31.1093122 107.7732028  81.4258771  31.6327524 108.0194324  82.1885080
  30.8905455 108.6052063  81.0061908  26.5060403 110.0435702  69.2929896
  26.1773109 109.1633081  69.1105002  26.8599774 109.9883371  70.1806285
  29.6202226 110.3308672  69.6605374  29.9598299 110.8594593  68.9383982
  30.0674347 110.6689078  70.4363940  32.3145667 108.7145723  79.1108442
  31.9742488 107.9153536  79.5129122  31.6084673 109.0147434  78.5385275
  32.9662139 105.7995035  77.5635765  33.7888208 105.3255514  77.4414655
  33.2100203 106.5785519  78.0634451  31.6070374 108.8283294  67.8598666
  32.3278736 109.2064547  67.3562383  30.9835678 109.5472171  67.9633644
  35.7501496 109.5328443  68.7956999  35.9665111 110.4153081  68.4945827
  35.2695564 109.1414656  68.0662641  30.4900718 112.4914156  75.3727743
  30.3445298 112.8054459  76.2652025  30.0125921 113.1099056  74.8198642
  32.3497101 109.4816704  75.4208633  32.3358669 108.5857797  75.0840931
  33.0669529 109.4887368  76.0546919  34.2023231 109.9154044  77.4661760
  33.9441009 110.8371115  77.4646091  33.6708272 109.5184479  78.1562224
  31.7533997 108.3631084  70.6896203  31.8749908 107.4347730  70.8887090
  31.4636039 108.3769770  69.7774518  34.6225187 106.0485995  73.8262923
  34.6446884 106.1125328  72.8714902  35.0393246 105.2090503  74.0203429
  45.0008811 115.7841254  71.8642145  45.4439957 115.0348579  71.4661269
  44.1235322 115.7751391  71.4815877  31.2375076 109.8763082  84.8986136
  31.2863232 110.7525204  84.5163905  31.7797590 109.3340475  84.3257779
  41.8427797 117.2696671  81.4920001  41.8925802 117.1046679  82.4335524
  41.7341720 116.4023930  81.1017882  39.1331559 113.2527599  82.8079308
  40.0341422 113.1134064  82.5163306  39.2079534 113.4182054  83.7477485
  33.4674365 110.6294454  81.6532494  32.5977674 110.9228020  81.3815083
  33.7033845 111.2134899  82.3739758  44.5441676 117.2546493  74.2564593
  45.3788567 117.6936297  74.4202153  44.6800805 116.7785146  73.4372839
  41.5933182 114.8126227  80.2042081  42.0687304 115.0053874  79.3960932
  40.6698747 114.8685413  79.9585464  36.1713398 106.8474071  79.1697915
  36.6895342 107.5835098  78.8444403  35.8168531 107.1538064  80.0044674
  27.7512336 111.7078752  67.2859320  27.0581581 111.7823107  66.6299356
  27.5064088 110.9439096  67.8080837  36.4225993 103.2674353  74.6898811
  36.7027746 102.5997543  75.3159238  37.2076600 103.4603449  74.1773475
  40.2934851 111.6891987  78.4370386  41.2452274 111.7890085  78.4582610
  40.1238301 110.8970256  78.9468471  38.3149230 108.7747571  78.6229787
  37.7199163 109.0552583  77.9276276  38.0298927 109.2641472  79.3946528
  42.7722929 114.9098107  77.5512686  42.7399249 113.9714108  77.7372370
  43.3823552 114.9882144  76.8178511  34.6106260 113.7794160  63.5939890
  35.5565364 113.6500368  63.6628308  34.2320505 113.0408822  64.0709318
  42.9217417 111.7009151  77.5970969  42.4056466 110.9167607  77.4100898
  43.8057366 111.3727867  77.7617489  40.5828144 105.4450166  73.5566782
  40.3852965 105.1365254  74.4410114  41.1927850 106.1711805  73.6864712
  48.5899479 115.9714114  76.6918723  49.3202867 115.7099402  77.2526426
  47.9806424 115.2342836  76.7320791  46.6714776 114.1121977  77.2893174
  45.9447939 113.9777941  76.6809666  46.2562063 114.4198805  78.0949892
  32.7949177 111.7044136  63.5294775  31.8880632 111.4077249  63.6057489
  33.0725158 111.4073955  62.6629061  34.4111242 106.2481026  69.6839017
  33.6011971 105.9028111  70.0594263  35.0995659 105.9388570  70.2726628
  36.3401791 105.3259073  71.3063313  36.8932829 105.7454526  71.9653336
  36.5771877 104.3994821  71.3486269  32.3634890 111.3146147  87.0866077
  32.2631617 112.2640504  87.0178168  32.1456432 110.9864386  86.2142147
  31.5647961 108.5631072  63.6706754  32.4267125 108.8885970  63.9302572
  31.7498306 107.7762568  63.1579820  39.7180598 107.4359598  70.8141977
  39.1379267 108.0944402  70.4320030  39.4516531 106.6136943  70.4029395
  38.1684164 106.8364656  73.0163298  38.6683943 106.9481190  72.2077617
  38.8119772 106.5325709  73.6564106  32.2266160 114.7443286  85.9031139
  31.7433242 115.5443646  86.1095028  32.3127099 114.7551230  84.9498583
  38.5005476 109.5959689  69.8698326  37.6131331 109.8809339  69.6518520
  38.9159465 109.4353452  69.0225603  41.8520012 109.6206210  73.5852665
  42.6280402 110.1102662  73.8577282  41.1268146 110.0464264  74.0424534
  44.2892571 110.3333829  74.6426606  44.8837061 110.0929565  73.9319914
  44.3619154 109.6140959  75.2700142  38.4746500 115.1114224  70.0848616
  38.4181701 115.5682776  69.2456248  39.0274842 114.3504909  69.9071459
  42.2851306 110.9003956  70.9098735  42.0288240 110.5000592  71.7406943
  41.6604174 111.6147750  70.7848875  46.5963643 113.6400030  73.4170027
  46.0363201 113.7093219  74.1901589  45.9907147 113.4641014  72.6969523
  39.2081279 116.3019006  67.3801145  39.1530083 116.1363277  66.4389589
  38.5827334 117.0095039  67.5363335  23.9973794 111.5387070  81.2062567
  24.6432657 111.0286024  81.6949792  23.7890945 112.2755752  81.7805993
  32.5177404 105.8027115  66.9586463  32.5056074 106.7468955  67.1154734
  33.4100826 105.6197260  66.6645925  36.3329524 102.3969891  71.2132400
  35.5661920 101.8428378  71.3589083  36.7440229 102.4691760  72.0746552
  28.3371285 108.6854687  85.3037581  29.2002746 108.3291492  85.5140906
  27.7636696 108.3468582  85.9912986  47.7577910 119.5374386  78.1652091
  47.4142179 120.4276028  78.0891202  48.1256872 119.3476044  77.3021676
  49.5565575 118.7967945  73.2669829  49.8624452 117.9365308  72.9795744
  50.2818180 119.3885565  73.0668823  49.8267193 121.2262180  75.7653750
  48.9130273 121.4566407  75.9335957  50.2560295 121.3100625  76.6167782
  47.2619747 118.5966271  74.6898811  47.5421501 117.9289460  75.3159238
  48.0470354 118.7895367  74.1773475  51.4221899 120.7742084  73.5566782
  51.2246720 120.4657172  74.4410114  52.0321604 121.5003723  73.6864712
  47.1795545 120.6550991  71.3063313  47.7326584 121.0746444  71.9653336
  47.4165632 119.7286739  71.3486269  47.1723278 117.7261809  71.2132400
  46.4055674 117.1720296  71.3589083  47.5833983 117.7983678  72.0746552
   4.8218047  31.5032956  60.6843785   4.0681755  30.9340354  60.5287790
   4.9565588  31.4695620  61.6314420   1.6433795  31.4735706  58.5887452
   2.0864941  30.7243031  58.1906575   0.7660305  31.4645842  58.2061184
   1.1866659  32.9440944  60.9809900   2.0213551  33.3830748  61.1447460
   1.3225788  32.4679598  60.1618145   5.2324462  31.6608566  63.4164029
   5.9627850  31.3993854  63.9771733   4.6231407  30.9237288  63.4566097
   3.3139759  29.8016428  64.0138481   2.5872923  29.6672393  63.4054972
   2.8987046  30.1093257  64.8195199   0.9317554  26.0228281  61.3671912
   1.5262045  25.7824017  60.6565220   1.0044138  25.3035411  61.9945449
   3.2388627  29.3294481  60.1415333   2.6788185  29.3987671  60.9146895
   2.6332130  29.1535466  59.4214830   4.8244645  46.0050995  62.8345289
   5.4623055  45.8857743  62.1308629   4.7065488  46.9531839  62.8933241
   1.6334351  45.9578424  62.7706814   1.2952863  45.8419488  61.8827349
   2.5024120  45.5569589  62.7507820   2.1154134  47.1113275  68.7293019
   2.1042775  46.7166074  67.8573523   2.2774774  46.3779348  69.3226791
   3.0720726  51.4784868  54.0718170   2.4208706  52.0638948  53.6852183
   3.8665089  52.0091063  54.1313207   4.3785914  43.7302449  59.9098497
   5.1649003  43.3121872  59.5588914   4.6424618  44.6348541  60.0780146
   4.5495991  49.1675300  54.6087154   3.9141824  49.2409926  55.3208059
   4.2193397  49.7568898  53.9306233   9.7794341  43.6677682  60.8131476
  10.5119513  43.0976899  61.0469305   9.0233696  43.2799283  61.2537981
   1.3970460  46.0904924  58.0094818   1.0328668  45.5635545  58.7207740
   2.2537576  45.7003393  57.8361304   7.3019761  37.3799257  65.2726084
   6.9703086  38.2494668  65.0487299   6.7065374  37.0635541  65.9520115
   1.0375947  41.1194824  53.0056167   1.2050350  41.9875060  53.3726638
   0.8473117  41.2822105  52.0817456   3.7951281  49.5811803  64.6721997
   3.4952004  50.4836841  64.5637804   3.4502340  49.3143986  65.5243150
   7.1948424  42.0994343  62.3519434   6.2865302  42.0309751  62.0578195
   7.1436020  42.5766288  63.1801260   1.2689290  43.5183988  70.2954332
   0.4922624  44.0777908  70.2857196   1.9079853  44.0040771  70.8169202
   9.0610071  40.3010781  64.1297308   8.4184451  40.5943314  63.4837103
   8.5564999  40.1863701  64.9350505   6.7150234  44.0473954  54.8183168
   7.6268091  44.2801341  54.6430865   6.2059882  44.6310999  54.2558246
   4.9991002  48.4698582  68.4544460   5.4074358  48.0280993  67.7099092
   4.2768264  47.8951210  68.7078653   1.3522072  43.4071189  65.8278017
   2.1983267  43.8310603  65.9712666   1.2920710  42.7504813  66.5216580
   5.3219817  49.0299773  62.2096749   4.6928679  49.1945487  61.5072817
   4.9345479  49.4441382  62.9807713   9.2009049  49.9654211  59.5641113
   8.5160087  50.3453112  59.0138146   9.2852898  50.5749537  60.2973061
   4.5021518  41.0675557  67.4859191   4.2582449  41.8217618  66.9493466
   4.7781448  41.4460905  68.3206438   6.4559980  47.6114170  66.1636456
   6.6676876  48.2545930  65.4870837   6.4089729  46.7776486  65.6958386
   4.0586209  40.2231990  63.0673028   3.1970688  40.5213244  63.3589766
   4.0848644  40.4402389  62.1354061   0.8747779  48.7674181  59.4746834
   1.3386124  49.0461884  58.6851457   0.6104577  47.8657625  59.2919925
   7.5705808  50.4886125  64.3358814   8.3923252  50.0866312  64.0541495
   7.5668211  50.3854359  65.2874929   1.3362412  50.0370168  66.4919524
   1.4006844  50.4990576  67.3277696   0.6273336  49.4067533  66.6201834
  15.6611801  46.8324874  60.6843785  14.9075510  46.2632272  60.5287790
  15.7959342  46.7987538  61.6314420   1.0510429  51.7038276  56.3598504
   0.9156104  52.5489812  56.7883352   1.5920242  51.9057554  55.5964438
   2.6778906  52.3261842  70.4898847   2.2342760  51.5398221  70.1719751
   3.3396119  52.5140993  69.8242737   4.7760144  52.6064642  68.5180248
   4.7578619  53.4273523  68.0260517   5.6980064  52.4818718  68.7430389
   1.2333198  50.1208772  69.3603756   1.7661535  49.3597060  69.1303064
   0.7047279  49.8282424  70.1027911   4.4002893  35.2268838  64.8897398
   4.0567162  36.1170479  64.8136508   4.7681855  35.0370495  64.0266983
   4.3653176  45.2177449  53.3969833   3.8499799  45.9882054  53.6358220
   4.0930484  44.5442585  54.0202894   1.9500287  40.0627150  58.4555071
   1.0941883  39.6734000  58.2760710   2.3627238  40.1419110  57.5954857
   3.4799433  37.5973493  62.8546631   2.9764229  37.5603628  62.0414436
   3.7730040  38.5066236  62.9143288   9.3387450  47.9709804  55.3323007
   8.5616893  47.6320963  54.8878169  10.0178931  47.9762427  54.6577972
   4.1539479  43.0904541  55.2229614   3.8489614  43.4050690  56.0739757
   5.1069921  43.1685961  55.2656947   2.5985911  49.2494764  56.8722568
   2.0707272  48.5147524  56.5595806   2.0973413  50.0269441  56.6262537
   7.5778757  47.4443785  61.9889614   6.9202431  48.1343046  62.0769743
   8.3819156  47.8340217  62.3323601   6.3884215  45.7988157  60.0393556
   6.9016097  46.4318149  60.5415266   7.0385439  45.1989353  59.6736916
   3.6506590  55.7772482  52.7954227   2.9768288  56.0804178  53.4039185
   4.0372412  56.5801562  52.4459684   2.8665046  43.2737613  62.2851897
   1.9487608  43.4952560  62.1273585   3.2825190  43.3483923  61.4263604
   3.6500094  44.6729029  57.4154577   4.3971913  45.1850426  57.1061699
   3.9191684  44.3513081  58.2758971   1.9226744  47.1687569  54.3981531
   1.0137964  46.8846602  54.4954001   1.9521828  47.5886648  53.5384838
   7.1546012  50.7794159  58.1672699   6.7008339  49.9385069  58.2237889
   6.5239978  51.4155557  58.5047479   6.0978931  41.7086145  59.3973366
   5.3601688  41.1963531  59.7283609   6.3505705  41.2686527  58.5856643
   5.5978951  52.6170656  59.1022517   5.8901925  53.1775713  58.3834883
   6.1077571  52.9099217  59.8575676   6.1990559  34.4862397  59.9915136
   6.5049435  33.6259760  59.7041051   6.9243163  35.0780017  59.7914129
   1.6202832  48.7096313  51.7369610   1.1822262  47.9932172  51.2775247
   2.3613273  48.9372428  51.1754701   0.5612576  53.3951007  60.1915970
   0.5188755  53.6211853  59.2624502   1.4775275  53.1614381  60.3401771
   4.0078210  43.8635074  67.0896599   4.3627598  44.0906547  67.9491065
   4.6550341  44.1953451  66.4673855   9.7375947  46.9853510  57.7945928
   9.5993845  47.1755106  56.8667118   9.3812166  47.7472893  58.2513980
   9.7645326  49.0530037  62.8057200  10.1981833  48.9605326  63.6540254
  10.4776907  49.0287538  62.1677216   3.4973221  52.6532131  64.3390301
   3.5510244  53.2223068  65.1068016   2.6288003  52.8234016  63.9744338
  10.6260876  49.0953738  65.3390085  10.8196766  49.9999548  65.5849360
  10.5261494  48.6361157  66.1728670   2.2797187  38.9811628  67.8380413
   1.6325102  39.6801578  67.7444889   3.0498202  39.4147772  68.2056661
   5.6875985  49.2460481  70.9130966   5.5361491  49.0171032  69.9961050
   5.6780664  50.2031082  70.9262311   2.4561321  46.8192393  65.8977232
   3.3853381  46.9703553  65.7246200   2.0352351  46.9076414  65.0425879
   1.8497805  55.9452154  55.0101307   2.0249561  55.4740197  55.8246929
   1.1630593  56.5717920  55.2382567   2.8054868  50.2224660  61.0564608
   2.4704701  50.1825430  61.9522258   2.3058814  49.5569376  60.5835018
   5.7414060  47.5680695  51.3301667   5.1243230  46.8427523  51.2334720
   5.2730548  48.3290055  50.9868742   7.3968191  52.2779603  68.9907448
   7.3380737  51.5938823  68.3238031   7.7987710  53.0198593  68.5388074
   7.3985599  50.2419187  67.2221428   6.5112377  49.9045109  67.3447826
   7.9684150  49.5102218  67.4590193   0.9286752  54.9020639  64.1882671
   0.8556923  55.7075611  64.7001975   0.4864145  55.1012605  63.3630692
   4.0273182  39.9487039  60.3419698   4.5241881  39.1957001  60.0220768
   3.2560163  39.9851356  59.7762907  11.8802939  45.6527404  61.9837989
  11.8692815  46.5352120  61.6131922  11.0120319  45.2998955  61.7892526
   3.3885436  54.8007473  66.3440829   4.1013408  55.4354938  66.2716731
   2.8975464  54.8971339  65.5280831   5.1102962  48.7058726  57.9158121
   4.1759241  48.8260189  57.7462825   5.2879631  47.8031193  57.6518131
   8.4975514  44.5476045  58.4508155   8.9635966  45.3804037  58.3768458
   8.9483014  44.0821027  59.1553414   6.5651745  50.8919867  55.4494307
   6.8411589  50.7776461  56.3588181   5.6956244  50.4937352  55.4106480
   6.4692177  36.9156632  62.4899057   5.5555256  37.1460859  62.6581263
   6.8985278  36.9995076  63.3413089   6.2398635  45.1046524  64.9898951
   5.5870085  45.3522432  64.3351403   6.6179015  44.2910663  64.6561428
   3.2005809  55.1406217  59.0927121   3.3828203  54.3227873  59.5554873
   4.0238795  55.3573910  58.6552011   3.5347974  54.0674403  56.3542169
   4.0635741  53.5566857  55.7412331   3.7976194  53.7516933  57.2187702
   2.2886208  45.8466335  71.4764988   1.6126845  45.7460465  72.1467363
   3.1113842  45.6905549  71.9400985   1.0308991  57.1533263  65.7122604
   1.5827299  57.3164884  66.4771689   1.3715184  57.7437701  65.0402628
   5.8819865  51.9794520  71.5671258   6.4259769  52.5924479  71.0726213
   5.3006710  52.5374099  72.0838271   4.1677378  55.1015238  62.6986286
   4.0428518  54.3004978  62.1897231   4.8256469  55.5961432  62.2100256
   6.2312287  52.9024258  64.3265836   5.2842622  52.7829610  64.2544163
   6.5795060  52.0146756  64.4092097   3.2358720  52.6976975  60.5270188
   3.0883682  51.7693682  60.7077758   4.0612213  52.7197065  60.0427263
   6.8392842  53.5205533  61.6135061   7.7639389  53.3148395  61.4759512
   6.6708145  53.2721935  62.5224402   3.2320234  40.5514812  55.5202305
   3.4483849  41.4339450  55.2191133   2.7514301  40.1601026  54.7907947
   1.6841969  40.9340414  64.1907067   1.4259747  41.8557484  64.1891397
   1.1527010  40.5370848  64.8807531   6.6288158  54.0391201  56.9697152
   6.8025035  53.4737623  56.2171005   7.1217049  54.8392096  56.7876642
   2.1043925  37.0672364  60.5508229   2.1265622  37.1311697  59.5960209
   2.5211984  36.2276873  60.7448736  12.4827549  46.8027624  58.5887452
  12.9258695  46.0534949  58.1906575  11.6054059  46.7937760  58.2061184
   7.6163330  53.3557965  54.0694051   8.3114235  53.9764658  54.2881365
   7.9586481  52.5053316  54.3446428   9.5154754  50.8057671  55.5981381
  10.0406078  51.1444944  54.8730701   9.4277106  49.8704686  55.4144516
   1.1774802  54.7191744  67.7271258   1.4861929  54.4740891  68.5993958
   1.9750284  54.9238383  67.2390128   1.1995414  56.8729654  59.9576635
   0.7600405  56.3806033  60.6509491   1.9503531  56.3302622  59.7168710
   9.2048660  51.4390574  70.9032579   8.4144203  51.4214713  70.3637079
   8.9682014  51.9778868  71.6581616   9.3246535  48.2883041  68.2165308
   9.3744540  48.1233048  69.1580831   9.2160458  47.4210300  67.8263189
   6.6150297  44.2713969  69.5324615   7.5160160  44.1320434  69.2408612
   6.6898272  44.4368424  70.4722792  10.8264731  50.7079982  68.4607329
  10.5349540  51.0709963  69.2970790  10.2136863  49.9946991  68.2820661
  12.0260414  48.2732862  60.9809900  12.8607305  48.7122666  61.1447460
  12.1619543  47.7971515  60.1618145   9.0751920  45.8312597  66.9287387
   9.5506041  46.0240243  66.1206239   8.1517485  45.8871783  66.6830771
   3.6532136  37.8660440  65.8943221   4.1714080  38.6021467  65.5689710
   3.2987269  38.1724434  66.7289980   3.9044730  34.2860723  61.4144118
   4.1846484  33.6183912  62.0404544   4.6895337  34.4789819  60.9018782
   1.7078199  53.4619717  52.9769144   1.1352166  54.0809904  52.5239616
   2.2810993  54.0119079  53.5109066   7.7753589  42.7078357  65.1615693
   8.7271012  42.8076455  65.1827917   7.6057039  41.9156626  65.6713777
   5.7967968  39.7933940  65.3475094   5.2017900  40.0738953  64.6521583
   5.5117665  40.2827841  66.1191835   4.9275459  53.7456867  54.1077726
   5.8606132  53.6802429  54.3110602   4.8398671  54.5813134  53.6492259
   7.5563475  53.0622737  51.0681674   7.4777107  52.7282601  51.9617432
   8.3773142  53.5544505  51.0673146  10.2541667  45.9284477  64.2757993
  10.2217987  44.9900477  64.4617676  10.8642290  46.0068513  63.5423817
   2.0924997  44.7980530  50.3185197   3.0384102  44.6686738  50.3873615
   1.7139242  44.0595192  50.7954625  10.4036155  42.7195520  64.3216276
   9.8875204  41.9353977  64.1346205  11.2876104  42.3914237  64.4862795
   8.0646882  36.4636536  60.2812088   7.8671703  36.1551624  61.1655420
   8.6746587  37.1898175  60.4110018  16.0718216  46.9900484  63.4164029
  16.8021605  46.7285772  63.9771733  15.4625162  46.2529205  63.4566097
  14.1533513  45.1308346  64.0138481  13.4266677  44.9964311  63.4054972
  13.7380800  45.4385175  64.8195199   1.9763690  48.8498276  71.7785854
   2.8966699  49.0276875  71.9725900   1.9413273  47.9054321  71.6265553
   1.8929980  37.2667396  56.4084323   1.0830709  36.9214481  56.7839569
   2.5814397  36.9574940  56.9971935   3.8220529  36.3445443  58.0308620
   4.3751567  36.7640896  58.6898643   4.0590615  35.4181191  58.0731576
   7.1999336  38.4545968  57.5387284   6.6198005  39.1130772  57.1565336
   6.9335268  37.6323312  57.1274702   5.6502902  37.8551025  59.7408604
   6.1502680  37.9667560  58.9322923   6.2938510  37.5512078  60.3809413
   5.9824214  40.6146058  56.5943632   5.0950069  40.8995709  56.3763827
   6.3978203  40.4539821  55.7470909   9.3338750  40.6392579  60.3097972
  10.1099140  41.1289032  60.5822588   8.6086884  41.0650633  60.7669841
  11.7711308  41.3520198  61.3671912  12.3655799  41.1115934  60.6565220
  11.8437892  40.6327329  61.9945449   5.1267427  50.3790733  50.6891652
   5.8303277  50.5840735  51.3049308   4.4030076  50.9467495  50.9540736
   5.9565237  46.1300594  56.8093922   5.9000439  46.5869145  55.9701555
   6.5093580  45.3691279  56.6316765   9.7670043  41.9190326  57.6344042
   9.5106978  41.5186962  58.4652250   9.1422911  42.6334120  57.5094181
  14.0782381  44.6586399  60.1415333  13.5181939  44.7279588  60.9146895
  13.4725885  44.4827384  59.4214830   7.0354125  50.8173262  52.7390112
   7.8699728  50.3854460  52.5567587   6.8738467  50.6455276  53.6667007
   6.6900017  47.3205375  54.1046452   6.6348820  47.1549647  53.1634896
   6.0646072  48.0281408  54.2608641   4.0045924  49.6254287  73.4300014
   4.8737083  49.7994939  73.0686649   3.5252675  50.4448704  73.3075744
   3.8148262  33.4156261  57.9377707   3.0480657  32.8614748  58.0834389
   4.2258967  33.4878130  58.7991859  15.6638400  61.3342913  62.8345289
  16.3016810  61.2149660  62.1308629  15.5459242  62.2823757  62.8933241
  12.4728106  61.2870341  62.7706814  12.1346617  61.1711406  61.8827349
  13.3417874  60.8861506  62.7507820   8.3314922  63.1405818  58.7603705
   7.7679787  63.0495755  57.9919993   8.2167317  62.3205722  59.2406197
  12.9547889  62.4405193  68.7293019  12.9436530  62.0457991  67.8573523
  13.1168528  61.7071266  69.3226791   5.8779354  64.6357009  61.5987925
   6.6700645  64.2947834  61.1834225   6.1176004  64.7451984  62.5190079
  13.9114480  66.8076785  54.0718170  13.2602460  67.3930866  53.6852183
  14.7058843  67.3382980  54.1313207   7.8370107  63.8965922  54.4705304
   8.6100983  63.3494910  54.3318180   8.1895506  64.7610172  54.6819765
   9.6755150  65.2242305  67.6772203   9.3845016  66.1287936  67.5618870
  10.3112134  65.2658832  68.3916273  10.6011357  62.6019153  64.2673563
  11.1974929  62.3775176  63.5530526  10.6586328  61.8603899  64.8699011
  10.1736385  60.0558589  52.1023754  10.4261906  59.5340110  51.3407217
   9.2360944  59.8924734  52.2050438  15.2179668  59.0594367  59.9098497
  16.0042757  58.6413790  59.5588914  15.4818372  59.9640459  60.0780146
  15.3889745  64.4967217  54.6087154  14.7535578  64.5701844  55.3208059
  15.0587152  65.0860816  53.9306233  20.6188095  58.9969600  60.8131476
  21.3513267  58.4268817  61.0469305  19.8627451  58.6091201  61.2537981
   9.8932674  61.9586695  54.3048129   9.7768932  61.2831598  54.9729213
  10.0034934  61.4719068  53.4880282  12.2364215  61.4196842  58.0094818
  11.8722422  60.8927463  58.7207740  13.0931331  61.0295311  57.8361304
  18.1413516  52.7091174  65.2726084  17.8096840  53.5786585  65.0487299
  17.5459129  52.3927458  65.9520115  11.8769702  56.4486741  53.0056167
  12.0444104  57.3166978  53.3726638  11.6866871  56.6114023  52.0817456
  14.6345035  64.9103720  64.6721997  14.3345758  65.8128759  64.5637804
  14.2896095  64.6435903  65.5243150   8.0857517  61.3617517  60.7058701
   7.1608013  61.2293731  60.9136393   8.3341930  62.1411736  61.2028644
  18.0342179  57.4286260  62.3519434  17.1259056  57.3601669  62.0578195
  17.9829775  57.9058205  63.1801260  11.8558923  58.9044399  53.9902833
  11.7358548  59.3501450  54.8288314  11.1611511  59.2529717  53.4316372
   5.4466328  61.0050791  61.5402491   5.5758709  61.2585270  62.4541902
   4.7663779  61.5978499  61.2207146   9.6165815  71.6748041  57.6392965
   9.5389845  72.6255866  57.7181445   9.0127458  71.3293913  58.2967891
  12.1083045  58.8475906  70.2954332  11.3316379  59.4069826  70.2857196
  12.7473608  59.3332689  70.8169202  19.9003825  55.6302699  64.1297308
  19.2578206  55.9235232  63.4837103  19.3958754  55.5155619  64.9350505
  17.5543989  59.3765872  54.8183168  18.4661845  59.6093259  54.6430865
  17.0453636  59.9602916  54.2558246  10.3629417  61.6561359  69.8572299
  11.1044101  62.1946403  69.5807122   9.6566402  62.2827648  70.0143850
  15.8384757  63.7990500  68.4544460  16.2468113  63.3572910  67.7099092
  15.1162018  63.2243127  68.7078653  12.1915827  58.7363107  65.8278017
  13.0377022  59.1602520  65.9712666  12.1314464  58.0796731  66.5216580
  16.1613571  64.3591690  62.2096749  15.5322434  64.5237405  61.5072817
  15.7739233  64.7733300  62.9807713  20.0402803  65.2946128  59.5641113
  19.3553841  65.6745030  59.0138146  20.1246652  65.9041455  60.2973061
  15.3415272  56.3967475  67.4859191  15.0976204  57.1509536  66.9493466
  15.6175202  56.7752823  68.3206438  17.2953735  62.9406087  66.1636456
  17.5070630  63.5837847  65.4870837  17.2483483  62.1068404  65.6958386
  14.8979964  55.5523908  63.0673028  14.0364443  55.8505162  63.3589766
  14.9242398  55.7694307  62.1354061  11.7141533  64.0966099  59.4746834
  12.1779879  64.3753802  58.6851457  11.4498331  63.1949543  59.2919925
   8.6065614  63.6437580  62.4126597   9.1766971  64.0724848  61.7744082
   9.1973726  63.3620165  63.1110783  10.6510419  60.2189251  56.2836399
  11.3534463  60.6710295  56.7510326  10.3191048  59.5773070  56.9116292
   9.0990781  58.8101008  70.6587609   8.4689441  59.4917288  70.8923005
   8.9926869  58.6984089  69.7140747   4.3935753  58.4772804  61.5853533
   3.6034807  58.7330332  61.1093643   4.8847001  59.2921141  61.6905573
  18.4099563  65.8178043  64.3358814  19.2317006  65.4158230  64.0541495
  18.4061966  65.7146277  65.2874929   6.3450499  58.8417383  58.5437009
   5.5481662  58.9536077  59.0620505   6.1176091  59.1804035  57.6777900
  12.1756166  65.3662086  66.4919524  12.2400599  65.8282493  67.3277696
  11.4667090  64.7359451  66.6201834   2.6773456  58.7303294  64.0168524
   2.9281495  59.6150304  64.2826100   3.2133005  58.5507896  63.2443615
  26.5005556  62.1616791  60.6843785  25.7469264  61.5924189  60.5287790
  26.6353097  62.1279456  61.6314420  11.8904184  67.0330194  56.3598504
  11.7549859  67.8781729  56.7883352  12.4313996  67.2349471  55.5964438
   8.3771523  53.1121773  73.0212860   7.9838469  52.5587972  73.6960504
   9.1937664  53.4232352  73.4119377   5.3433581  64.5505632  56.9326430
   5.8558102  65.3448882  57.0831994   5.9956294  63.8531922  56.8660031
   7.1528466  67.6671388  59.0149183   7.3295094  68.5889353  58.8270167
   7.9485299  67.3529807  59.4443562  11.2939484  54.5279653  70.6133116
  12.0349198  55.1286806  70.5337579  11.5257407  53.7857290  70.0551159
   6.4380822  59.7136020  68.8911346   6.3234338  58.8121277  69.1918445
   5.5825340  59.9599717  68.5396162  13.5172660  67.6553760  70.4898847
  13.0736514  66.8690139  70.1719751  14.1789874  67.8432911  69.8242737
   8.2759781  69.1849562  65.0159525   8.8267206  69.0566625  64.2436519
   7.4371257  69.4844451  64.6654418  15.6153898  67.9356560  68.5180248
  15.5972374  68.7565441  68.0260517  16.5373818  67.8110635  68.7430389
  12.0726952  65.4500689  69.3603756  12.6055289  64.6888978  69.1303064
  11.5441034  65.1574341  70.1027911  15.2396647  50.5560755  64.8897398
  14.8960917  51.4462397  64.8136508  15.6075610  50.3662413  64.0266983
   3.3082498  62.8794286  57.7086000   4.1457720  63.2891294  57.4919708
   3.4860766  61.9393728  57.6786194  15.2046930  60.5469367  53.3969833
  14.6893554  61.3173971  53.6358220  14.9324239  59.8734503  54.0202894
  12.7894041  55.3919067  58.4555071  11.9335637  55.0025918  58.2760710
  13.2020993  55.4711028  57.5954857  14.3193188  52.9265411  62.8546631
  13.8157983  52.8895546  62.0414436  14.6123795  53.8358153  62.9143288
  10.5636074  53.0104140  61.8612813  11.4289070  52.8146949  61.5018702
  10.6313583  52.7814492  62.7882170  20.1781204  63.3001721  55.3323007
  19.4010647  62.9612881  54.8878169  20.8572685  63.3054344  54.6577972
  14.9933233  58.4196459  55.2229614  14.6883369  58.7342608  56.0739757
  15.9463675  58.4977879  55.2656947  13.4379665  64.5786682  56.8722568
  12.9101027  63.8439442  56.5595806  12.9367168  65.3561358  56.6262537
  18.4172511  62.7735702  61.9889614  17.7596186  63.4634964  62.0769743
  19.2212910  63.1632134  62.3323601   8.1698393  55.2406348  59.2329180
   8.7442145  55.0181530  58.5002373   8.7569375  55.3095043  59.9857781
  17.2277970  61.1280075  60.0393556  17.7409852  61.7610067  60.5415266
  17.8779194  60.5281271  59.6736916   8.4967980  57.2710809  53.2525065
   7.6605292  57.6085496  53.5734340   8.3572749  57.1359789  52.3152202
  10.4721060  52.1147597  57.9604249   9.8185473  51.7996614  57.3360864
  10.4301535  51.4923338  58.6864072  11.5832265  62.3966892  49.8757541
  10.6759327  62.1656146  50.0748690  12.0803297  61.6004511  50.0631523
  14.4900344  71.1064399  52.7954227  13.8162043  71.4096096  53.4039185
  14.8766166  71.9093480  52.4459684  13.7058801  58.6029531  62.2851897
  12.7881362  58.8244478  62.1273585  14.1218944  58.6775841  61.4263604
  14.4893849  60.0020946  57.4154577  15.2365668  60.5142344  57.1061699
  14.7585438  59.6804999  58.2758971  12.7620499  62.4979487  54.3981531
  11.8531718  62.2138520  54.4954001  12.7915583  62.9178566  53.5384838
  17.9939766  66.1086077  58.1672699  17.5402093  65.2676986  58.2237889
  17.3633733  66.7447475  58.5047479  16.9372686  57.0378063  59.3973366
  16.1995443  56.5255449  59.7283609  17.1899459  56.5978444  58.5856643
  16.4372705  67.9462573  59.1022517  16.7295680  68.5067630  58.3834883
  16.9471326  68.2391134  59.8575676  17.0384313  49.8154315  59.9915136
  17.3443190  48.9551678  59.7041051  17.7636918  50.4071935  59.7914129
   3.3308669  60.2185001  58.3796734   3.1333069  59.6254362  57.6547800
   2.7755333  59.9137211  59.0972672  11.3105393  60.1108108  60.4991327
  11.3654003  59.1581944  60.4233803  10.4996595  60.2667547  60.9832625
  12.4596587  64.0388231  51.7369610  12.0216016  63.3224090  51.2775247
  13.2007027  64.2664346  51.1754701   9.2497753  58.7285167  58.2581706
   8.4365618  59.0279338  58.6646898   9.7456747  58.3340856  58.9756188
  11.4006331  68.7242924  60.1915970  11.3582509  68.9503771  59.2624502
  12.3169029  68.4906299  60.3401771  14.8471964  59.1926992  67.0896599
  15.2021352  59.4198465  67.9491065  15.4944096  59.5245369  66.4673855
  20.5769701  62.3145428  57.7945928  20.4387600  62.5047024  56.8667118
  20.2205920  63.0764811  58.2513980   8.7411827  56.3003523  63.8742940
   9.3811207  56.1592282  63.1765904   7.9089358  56.0138036  63.4981542
  20.6039081  64.3821955  62.8057200  21.0375588  64.2897244  63.6540254
  21.3170662  64.3579455  62.1677216   9.5172131  65.6005953  59.9877933
  10.3112730  65.1056274  59.7860508   8.8063824  65.0723817  59.6245639
  14.3366976  67.9824049  64.3390301  14.3903998  68.5514985  65.1068016
  13.4681757  68.1525934  63.9744338   5.8254895  59.7449035  56.0637686
   4.8952483  59.6833491  56.2807648   5.9212367  59.2224988  55.2674327
   5.7440444  56.2703848  58.6515927   6.0047261  57.1849181  58.5425088
   6.5657616  55.8028291  58.8012540   7.2165369  57.6841605  65.8214752
   7.8888423  57.4758967  65.1727401   6.3895156  57.4863691  65.3819984
  21.4654630  64.4245655  65.3390085  21.6590521  65.3291466  65.5849360
  21.3655249  63.9653075  66.1728670  13.1190941  54.3103546  67.8380413
  12.4718856  55.0093496  67.7444889  13.8891957  54.7439690  68.2056661
  16.5269739  64.5752398  70.9130966  16.3755246  64.3462950  69.9961050
  16.5174419  65.5323000  70.9262311  13.2955076  62.1484311  65.8977232
  14.2247136  62.2995471  65.7246200  12.8746106  62.2368332  65.0425879
  12.0943407  66.1734975  63.6675770  11.9554493  65.8053760  64.5401708
  11.3058004  66.6882615  63.4959728  12.6891559  71.2744072  55.0101307
  12.8643315  70.8032115  55.8246929  12.0024347  71.9009838  55.2382567
  13.6448623  65.5516578  61.0564608  13.3098455  65.5117348  61.9522258
  13.1452568  64.8861294  60.5835018   7.6192866  60.9584208  66.5817189
   7.4812664  60.2264447  67.1828728   8.5297790  60.8693108  66.3001377
  16.5807814  62.8972612  51.3301667  15.9636985  62.1719441  51.2334720
  16.1124303  63.6581973  50.9868742  10.2475167  60.6704167  66.0700869
  10.9574786  60.0297360  66.0287487  10.2044475  60.9217062  66.9927049
  18.2361946  67.6071521  68.9907448  18.1774492  66.9230741  68.3238031
  18.6381464  68.3490511  68.5388074   8.9604101  57.6569385  67.8896508
   8.4241458  57.2060124  68.5418104   8.3720810  57.7915294  67.1466972
   7.2552645  74.4233435  61.7841167   7.4949243  75.0551959  62.4620185
   6.4121841  74.0721475  62.0706526   8.3706360  57.1158037  50.4522972
   7.4935826  56.9946837  50.0885218   8.8464113  56.3244115  50.2001860
  18.2379353  65.5711105  67.2221428  17.3506132  65.2337026  67.3447826
  18.8077904  64.8394136  67.4590193   4.6943222  56.7925393  64.9749503
   4.6101411  56.1851063  64.2399913   3.8725929  57.2834411  64.9758999
  11.7680506  70.2312557  64.1882671  11.6950678  71.0367529  64.7001975
  11.3257900  70.4304523  63.3630692  11.5570286  69.4684327  57.6985492
  10.7737808  70.0106007  57.7923717  12.2563031  69.9858307  58.0979733
  14.8666936  55.2778957  60.3419698  15.3635636  54.5248919  60.0220768
  14.0953918  55.3143273  59.7762907  22.7196694  60.9819322  61.9837989
  22.7086570  61.8644037  61.6131922  21.8514073  60.6290873  61.7892526
  14.2279190  70.1299391  66.3440829  14.9407162  70.7646856  66.2716731
  13.7369219  70.2263257  65.5280831  15.9496717  64.0350644  57.9158121
  15.0152996  64.1552106  57.7462825  16.1273385  63.1323111  57.6518131
  11.4501905  57.4196340  60.0691382  11.0799692  56.8667380  60.7572288
  11.9460997  56.8154473  59.5166382  19.3369268  59.8767963  58.4508155
  19.8029720  60.7095955  58.3768458  19.7876769  59.4112945  59.1553414
   9.2791104  67.8793835  67.1646400   9.9800563  68.5130318  67.3175794
   8.8086219  68.2208566  66.4042039  17.4045499  66.2211784  55.4494307
  17.6805343  66.1068379  56.3588181  16.5349998  65.8229269  55.4106480
  17.3085931  52.2448550  62.4899057  16.3949011  52.4752777  62.6581263
  17.7379032  52.3286994  63.3413089  17.0792389  60.4338442  64.9898951
  16.4263840  60.6814349  64.3351403  17.4572769  59.6202580  64.6561428
  14.0399563  70.4698135  59.0927121  14.2221958  69.6519791  59.5554873
  14.8632549  70.6865827  58.6552011  14.3741729  69.3966320  56.3542169
  14.9029495  68.8858775  55.7412331  14.6369948  69.0808851  57.2187702
  13.1279963  61.1758253  71.4764988  12.4520600  61.0752382  72.1467363
  13.9507596  61.0197467  71.9400985   4.8758822  67.4130190  64.0977503
   5.4612258  66.6673877  64.2305407   4.6783660  67.7234146  64.9814167
   7.7297477  70.4481437  59.1139945   7.0607852  70.9327565  58.6303985
   7.5910347  70.6950657  60.0283324  11.8702745  72.4825180  65.7122604
  12.4221053  72.6456802  66.4771689  12.2108939  73.0729618  65.0402628
   6.8467239  54.8300330  66.3144488   6.9108565  55.6915161  65.9021886
   6.7834359  54.2174332  65.5816847   6.3219511  56.9023463  69.9617523
   6.9491550  56.5200540  70.5755047   5.4647430  56.6837665  70.3273215
  16.7213620  67.3086438  71.5671258  17.2653524  67.9216396  71.0726213
  16.1400465  67.8666016  72.0838271   3.0985054  58.7099892  55.8935877
   3.3938495  57.8010570  55.8402931   2.1973090  58.6887631  55.5716880
  15.0071133  70.4307156  62.6986286  14.8822272  69.6296896  62.1897231
  15.6650224  70.9253349  62.2100256   6.6279301  56.7855889  61.8763426
   5.9065887  57.3991856  61.7370899   7.4172557  57.3213653  61.7980072
  17.0706041  68.2316176  64.3265836  16.1236377  68.1121527  64.2544163
  17.4188814  67.3438674  64.4092097   9.4305614  54.1210315  68.1504078
   9.9540016  54.3672612  68.9130387   9.2117948  54.9530350  67.7307215
   4.8272895  56.3913990  56.0175203   4.4985602  55.5111369  55.8350308
   5.1812266  56.3361658  56.9051592  14.0752474  68.0268892  60.5270188
  13.9277437  67.0985600  60.7077758  14.9005968  68.0488983  60.0427263
   7.9414719  56.6786959  56.3850680   8.2810791  57.2072881  55.6629289
   8.3886839  57.0167366  57.1609247  17.6786596  68.8497451  61.6135061
  18.6033144  68.6440312  61.4759512  17.5101900  68.6013852  62.5224402
  10.6358159  55.0624010  65.8353748  10.2954980  54.2631823  66.2374428
   9.9297166  55.3625721  65.2630581  11.2874631  52.1473323  64.2881071
  12.1100701  51.6733801  64.1659962  11.5312695  52.9263806  64.7879758
   9.9282866  55.1761581  54.5843973  10.6491228  55.5542834  54.0807690
   9.3048170  55.8950458  54.6878951  14.0713989  55.8806730  55.5202305
  14.2877603  56.7631368  55.2191133  13.5908056  55.4892943  54.7907947
   8.8113210  58.8392443  62.0973050   8.6657791  59.1532746  62.9897331
   8.3338414  59.4577344  61.5443949  10.6709593  55.8294991  62.1453939
  10.6571162  54.9336084  61.8086237  11.3882021  55.8365655  62.7792226
  12.5235724  56.2632331  64.1907067  12.2653501  57.1849402  64.1891397
  11.9920764  55.8662766  64.8807531  17.4681912  69.3683119  56.9697152
  17.6418790  68.8029541  56.2171005  17.9610804  70.1684013  56.7876642
   3.2858872  61.3797788  65.0360711   2.7412340  62.1557596  65.1680985
   4.1638222  61.7268592  64.8779833  10.0746489  54.7109371  57.4141510
  10.1962400  53.7826018  57.6132397   9.7848531  54.7248057  56.5019825
  12.9437679  52.3964282  60.5508229  12.9659376  52.4603615  59.5960209
  13.3605738  51.5568791  60.7448736  23.3221304  62.1319541  58.5887452
  23.7652450  61.3826867  58.1906575  22.4447814  62.1229678  58.2061184
  18.4557085  68.6849883  54.0694051  19.1507990  69.3056576  54.2881365
  18.7980235  67.8345234  54.3446428   4.0724894  60.5067684  67.9290868
   3.3306630  60.6550319  68.5155498   3.7517638  60.7675949  67.0657617
  20.3548508  66.1349588  55.5981381  20.8799832  66.4736861  54.8730701
  20.2670861  65.1996604  55.4144516  12.0168557  70.0483662  67.7271258
  12.3255683  69.8032809  68.5993958  12.8144039  70.2530301  67.2390128
  12.0389169  72.2021572  59.9576635  11.5994159  71.7097950  60.6509491
  12.7897286  71.6594539  59.7168710   4.5181508  68.3933113  59.9601263
   5.3439528  68.0936884  59.5799906   4.1675560  67.6240735  60.4091051
   9.4863041  67.7459581  62.0298936   8.8643050  67.0830286  61.7301164
  10.1567908  67.7720713  61.3472584   2.7190113  66.3119439  60.9190196
   1.8822021  65.8841613  60.7374197   2.6913758  66.5051882  61.8560987
   9.5587568  56.2241369  71.6231442   9.6075724  57.1003492  71.2409212
  10.1010083  55.6818762  71.0503085  20.0442414  66.7682492  70.9032579
  19.2537958  66.7506631  70.3637079  19.8075769  67.3070786  71.6581616
  20.1640289  63.6174958  68.2165308  20.2138294  63.4524966  69.1580831
  20.0554212  62.7502217  67.8263189   9.0476548  66.2963504  55.5057397
   9.1964668  66.9798969  54.8524069   9.8542991  66.2768594  56.0206852
  17.4544052  59.6005886  69.5324615  18.3553914  59.4612351  69.2408612
  17.5292026  59.7660341  70.4722792  11.7886857  56.9772741  68.3777801
  10.9190166  57.2706307  68.1060389  12.0246337  57.5613186  69.0985065
  21.6658486  66.0371900  68.4607329  21.3743294  66.4001881  69.2970790
  21.0530617  65.3238908  68.2820661  22.8654168  63.6024780  60.9809900
  23.7001060  64.0414584  61.1447460  23.0013297  63.1263433  60.1618145
  19.9145674  61.1604515  66.9287387  20.3899796  61.3532161  66.1206239
  18.9911240  61.2163700  66.6830771   6.8029181  62.3228682  56.5118466
   6.5575223  61.4191012  56.7098676   6.9725095  62.3245832  55.5697944
  14.4925891  53.1952358  65.8943221  15.0107835  53.9313385  65.5689710
  14.1381023  53.5016351  66.7289980   6.0724828  58.0557039  54.0104627
   5.3794073  58.1301394  53.3544663   5.8276580  57.2917383  54.5326144
  14.7438485  49.6152641  61.4144118  15.0240239  48.9475830  62.0404544
  15.5289092  49.8081736  60.9018782  12.5471953  68.7911635  52.9769144
  11.9745920  69.4101822  52.5239616  13.1204747  69.3410996  53.5109066
  18.6147343  58.0370275  65.1615693  19.5664766  58.1368372  65.1827917
  18.4450794  57.2448543  65.6713777  16.6361723  55.1225858  65.3475094
  16.0411655  55.4030871  64.6521583  16.3511419  55.6119759  66.1191835
  15.7669213  69.0748785  54.1077726  16.6999886  69.0094346  54.3110602
  15.6792426  69.9105052  53.6492259  18.3957230  68.3914655  51.0681674
  18.3170861  68.0574519  51.9617432  19.2166897  68.8836423  51.0673146
  21.0935421  61.2576394  64.2757993  21.0611741  60.3192395  64.4617676
  21.7036045  61.3360431  63.5423817  12.9318752  60.1272447  50.3185197
  13.8777857  59.9978655  50.3873615  12.5532997  59.3887109  50.7954625
  21.2429909  58.0487438  64.3216276  20.7268958  57.2645894  64.1346205
  22.1269858  57.7206154  64.4862795  18.9040636  51.7928453  60.2812088
  18.7065458  51.4843542  61.1655420  19.5140342  52.5190092  60.4110018
  26.9111971  62.3192401  63.4164029  27.6415359  62.0577689  63.9771733
  26.3018916  61.5821123  63.4566097  24.9927268  60.4600264  64.0138481
  24.2660432  60.3256229  63.4054972  24.5774555  60.7677092  64.8195199
  12.8157444  64.1790193  71.7785854  13.7360454  64.3568792  71.9725900
  12.7807027  63.2346239  71.6265553  11.1161669  58.0522424  50.2540082
  10.2093124  57.7555536  50.3302795  11.3937650  57.7552242  49.3874368
   2.0339609  59.3728787  60.7039128   1.7142394  58.5194095  60.4113502
   1.4873038  59.5877365  61.4597096   5.8119517  62.0891228  64.4208635
   6.0305527  63.0208336  64.4396669   6.2245291  61.7299203  65.2063439
  12.7323735  52.5959313  56.4084323  11.9224463  52.2506398  56.7839569
  13.4208152  52.2866857  56.9971935  14.6614283  51.6737360  58.0308620
  15.2145322  52.0932814  58.6898643  14.8984369  50.7473108  58.0731576
  10.6847382  57.6624434  73.8111384  10.5844109  58.6118791  73.7423475
  10.4668924  57.3342673  72.9387454   9.8860454  54.9109359  50.3952061
  10.7479618  55.2364257  50.6547878  10.0710798  54.1240855  49.8825127
   1.9027869  62.9931699  62.6732250   1.2091341  62.5785651  62.1602204
   2.6500860  63.0352235  62.0765669  18.0393090  53.7837885  57.5387284
  17.4591759  54.4422689  57.1565336  17.7729023  52.9615230  57.1274702
  16.4896656  53.1842943  59.7408604  16.9896435  53.2959478  58.9322923
  17.1332264  52.8803996  60.3809413  10.5478652  61.0921573  72.6276445
  10.0645734  61.8921933  72.8340334  10.6339591  61.1029518  71.6743889
   3.8164612  62.9249952  60.5498265   3.7935300  63.0237640  59.5980148
   4.1265248  63.7715103  60.8715431   6.4751990  64.9826107  64.6644879
   7.4295243  64.9510050  64.5974811   6.2764513  64.5216731  65.4795105
   7.0651372  63.5527223  67.2315677   7.8844261  64.0471302  67.2550514
   7.3388180  62.6359192  67.2033244  16.8217968  55.9437976  56.5943632
  15.9343823  56.2287626  56.3763827  17.2371957  55.7831739  55.7470909
  20.1732504  55.9684497  60.3097972  20.9492894  56.4580949  60.5822588
  19.4480638  56.3942551  60.7669841  22.6105063  56.6812116  61.3671912
  23.2049554  56.4407852  60.6565220  22.6831647  55.9619247  61.9945449
   4.8302219  70.5245727  61.6815077   4.6956687  69.7646128  61.1153075
   4.4134281  71.2486627  61.2143866  15.9661182  65.7082650  50.6891652
  16.6697032  65.9132653  51.3049308  15.2423830  66.2759412  50.9540736
  16.7958992  61.4592512  56.8093922  16.7394193  61.9161063  55.9701555
  17.3487334  60.6983196  56.6316765  20.6063798  57.2482244  57.6344042
  20.3500732  56.8478879  58.4652250  19.9816666  57.9626038  57.5094181
  24.9176136  59.9878317  60.1415333  24.3575694  60.0571506  60.9146895
  24.3119639  59.8119301  59.4214830   7.9871344  71.4215044  61.8933520
   7.8703729  72.3660476  61.7912210   7.1663791  71.1188606  62.2819319
  17.8747879  66.1465180  52.7390112  18.7093483  65.7146378  52.5567587
  17.7132222  65.9747193  53.6667007  17.5293771  62.6497293  54.1046452
  17.4742575  62.4841564  53.1634896  16.9039826  63.3573326  54.2608641
   2.3186286  57.8865357  67.9307874   2.9645150  57.3764311  68.4195099
   2.1103437  58.6234039  68.5051299  14.8439678  64.9546205  73.4300014
  15.7130838  65.1286857  73.0686649  14.3646430  65.7740622  73.3075744
  10.8389897  52.1505402  53.6831770  10.8268566  53.0947242  53.8400041
  11.7313319  51.9675547  53.3891231   9.0125859  72.0743306  65.1089448
   9.9153105  72.1066916  65.4255943   8.7863229  71.1443757  65.1235784
  10.7679461  70.8274292  61.7699527   9.8175092  70.8276154  61.6563899
  11.0711947  70.0807027  61.2535561  14.6542016  48.7448179  57.9377707
  13.8874412  48.1906665  58.0834389  15.0652721  48.8170047  58.7991859
   6.6583777  55.0332974  72.0282888   7.5215239  54.6769779  72.2386213
   6.0849188  54.6946869  72.7158292  23.3121860  76.6162259  62.7706814
  22.9740372  76.5003324  61.8827349  24.1811629  76.2153424  62.7507820
  19.1708676  78.4697735  58.7603705  18.6073541  78.3787672  57.9919993
  19.0561071  77.6497640  59.2406197  23.7941643  77.7697111  68.7293019
  23.7830284  77.3749909  67.8573523  23.9562283  77.0363183  69.3226791
  16.7173108  79.9648927  61.5987925  17.5094400  79.6239752  61.1834225
  16.9569758  80.0743902  62.5190079  24.7508235  82.1368703  54.0718170
  24.0996215  82.7222783  53.6852183  25.5452598  82.6674898  54.1313207
  18.6763862  79.2257840  54.4705304  19.4494738  78.6786827  54.3318180
  19.0289261  80.0902089  54.6819765  20.5148905  80.5534222  67.6772203
  20.2238770  81.4579853  67.5618870  21.1505889  80.5950750  68.3916273
  21.4405111  77.9311071  64.2673563  22.0368684  77.7067093  63.5530526
  21.4980083  77.1895816  64.8699011  21.0130140  75.3850506  52.1023754
  21.2655660  74.8632028  51.3407217  20.0754699  75.2216652  52.2050438
  26.0573423  74.3886285  59.9098497  26.8436512  73.9705708  59.5588914
  26.3212127  75.2932377  60.0780146  26.2283500  79.8259135  54.6087154
  25.5929333  79.8993761  55.3208059  25.8980906  80.4152734  53.9306233
  20.7326428  77.2878612  54.3048129  20.6162687  76.6123516  54.9729213
  20.8428688  76.8010986  53.4880282  23.0757969  76.7488759  58.0094818
  22.7116177  76.2219380  58.7207740  23.9325085  76.3587228  57.8361304
  28.9807270  68.0383092  65.2726084  28.6490595  68.9078503  65.0487299
  28.3852883  67.7219376  65.9520115  22.7163456  71.7778659  53.0056167
  22.8837859  72.6458895  53.3726638  22.5260625  71.9405941  52.0817456
  18.9251271  76.6909435  60.7058701  18.0001768  76.5585649  60.9136393
  19.1735684  77.4703654  61.2028644  28.8735933  72.7578178  62.3519434
  27.9652811  72.6893587  62.0578195  28.8223529  73.2350123  63.1801260
  22.6952677  74.2336317  53.9902833  22.5752302  74.6793367  54.8288314
  22.0005266  74.5821634  53.4316372  16.2860082  76.3342708  61.5402491
  16.4152463  76.5877187  62.4541902  15.6057533  76.9270416  61.2207146
  20.4559569  87.0039958  57.6392965  20.3783599  87.9547783  57.7181445
  19.8521213  86.6585831  58.2967891  22.9476799  74.1767824  70.2954332
  22.1710133  74.7361744  70.2857196  23.5867362  74.6624607  70.8169202
  28.3937743  74.7057790  54.8183168  29.3055600  74.9385176  54.6430865
  27.8847391  75.2894834  54.2558246  21.2023171  76.9853277  69.8572299
  21.9437856  77.5238321  69.5807122  20.4960157  77.6119566  70.0143850
  23.0309581  74.0655024  65.8278017  23.8770776  74.4894438  65.9712666
  22.9708219  73.4088649  66.5216580  26.1809026  71.7259393  67.4859191
  25.9369958  72.4801453  66.9493466  26.4568957  72.1044740  68.3206438
  25.7373718  70.8815826  63.0673028  24.8758197  71.1797079  63.3589766
  25.7636153  71.0986225  62.1354061  22.5535288  79.4258016  59.4746834
  23.0173633  79.7045719  58.6851457  22.2892086  78.5241461  59.2919925
  19.4459369  78.9729498  62.4126597  20.0160726  79.4016766  61.7744082
  20.0367481  78.6912082  63.1110783  21.4904174  75.5481169  56.2836399
  22.1928217  76.0002212  56.7510326  21.1584802  74.9064987  56.9116292
  19.9384535  74.1392925  70.6587609  19.3083196  74.8209206  70.8923005
  19.8320623  74.0276007  69.7140747  15.2329508  73.8064721  61.5853533
  14.4428562  74.0622250  61.1093643  15.7240755  74.6213059  61.6905573
  17.1844253  74.1709301  58.5437009  16.3875416  74.2827995  59.0620505
  16.9569845  74.5095953  57.6777900  23.0149921  80.6954004  66.4919524
  23.0794353  81.1574411  67.3277696  22.3060845  80.0651369  66.6201834
  13.5167211  74.0595212  64.0168524  13.7675249  74.9442222  64.2826100
  14.0526759  73.8799813  63.2443615  22.7297938  82.3622111  56.3598504
  22.5943613  83.2073647  56.7883352  23.2707751  82.5641389  55.5964438
  19.2165278  68.4413691  73.0212860  18.8232224  67.8879890  73.6960504
  20.0331418  68.7524270  73.4119377  16.1827336  79.8797549  56.9326430
  16.6951856  80.6740800  57.0831994  16.8350049  79.1823840  56.8660031
  17.9922220  82.9963306  59.0149183  18.1688849  83.9181270  58.8270167
  18.7879054  82.6821725  59.4443562  22.1333239  69.8571570  70.6133116
  22.8742952  70.4578723  70.5337579  22.3651162  69.1149208  70.0551159
  17.2774577  75.0427937  68.8911346  17.1628092  74.1413195  69.1918445
  16.4219095  75.2891634  68.5396162  24.3566415  82.9845678  70.4898847
  23.9130269  82.1982056  70.1719751  25.0183628  83.1724828  69.8242737
  19.1153536  84.5141479  65.0159525  19.6660961  84.3858543  64.2436519
  18.2765012  84.8136368  64.6654418  26.4547653  83.2648478  68.5180248
  26.4366128  84.0857359  68.0260517  27.3767573  83.1402553  68.7430389
  22.9120707  80.7792607  69.3603756  23.4449044  80.0180895  69.1303064
  22.3834788  80.4866259  70.1027911  26.0790402  65.8852673  64.8897398
  25.7354671  66.7754315  64.8136508  26.4469364  65.6954331  64.0266983
  14.1476252  78.2086204  57.7086000  14.9851474  78.6183212  57.4919708
  14.3254520  77.2685646  57.6786194  26.0440685  75.8761284  53.3969833
  25.5287308  76.6465889  53.6358220  25.7717993  75.2026420  54.0202894
  23.6287796  70.7210985  58.4555071  22.7729392  70.3317835  58.2760710
  24.0414747  70.8002946  57.5954857  25.1586942  68.2557328  62.8546631
  24.6551738  68.2187463  62.0414436  25.4517549  69.1650071  62.9143288
  21.4029828  68.3396058  61.8612813  22.2682825  68.1438867  61.5018702
  21.4707337  68.1106410  62.7882170  25.8326988  73.7488376  55.2229614
  25.5277123  74.0634526  56.0739757  26.7857430  73.8269796  55.2656947
  24.2773420  79.9078600  56.8722568  23.7494781  79.1731359  56.5595806
  23.7760922  80.6853276  56.6262537  19.0092147  70.5698266  59.2329180
  19.5835899  70.3473447  58.5002373  19.5963130  70.6386960  59.9857781
  19.3361734  72.6002727  53.2525065  18.4999047  72.9377413  53.5734340
  19.1966504  72.4651707  52.3152202  21.3114815  67.4439515  57.9604249
  20.6579227  67.1288532  57.3360864  21.2695289  66.8215255  58.6864072
  22.4226020  77.7258810  49.8757541  21.5153082  77.4948063  50.0748690
  22.9197052  76.9296429  50.0631523  25.3294099  86.4356317  52.7954227
  24.6555797  86.7388014  53.4039185  25.7159921  87.2385397  52.4459684
  24.5452555  73.9321448  62.2851897  23.6275117  74.1536395  62.1273585
  24.9612699  74.0067759  61.4263604  25.3287603  75.3312864  57.4154577
  26.0759422  75.8434261  57.1061699  25.5979193  75.0096917  58.2758971
  23.6014253  77.8271405  54.3981531  22.6925472  77.5430438  54.4954001
  23.6309337  78.2470483  53.5384838  27.7766440  72.3669980  59.3973366
  27.0389197  71.8547367  59.7283609  28.0293214  71.9270362  58.5856643
  27.2766460  83.2754491  59.1022517  27.5689434  83.8359548  58.3834883
  27.7865080  83.5683052  59.8575676  27.8778068  65.1446232  59.9915136
  28.1836944  64.2843596  59.7041051  28.6030672  65.7363852  59.7914129
  14.1702424  75.5476919  58.3796734  13.9726823  74.9546280  57.6547800
  13.6149088  75.2429129  59.0972672  22.1499147  75.4400025  60.4991327
  22.2047757  74.4873862  60.4233803  21.3390349  75.5959464  60.9832625
  23.2990341  79.3680148  51.7369610  22.8609771  78.6516007  51.2775247
  24.0400782  79.5956263  51.1754701  20.0891507  74.0577085  58.2581706
  19.2759373  74.3571256  58.6646898  20.5850501  73.6632774  58.9756188
  22.2400085  84.0534842  60.1915970  22.1976264  84.2795688  59.2624502
  23.1562784  83.8198217  60.3401771  19.5805582  71.6295441  63.8742940
  20.2204961  71.4884200  63.1765904  18.7483112  71.3429954  63.4981542
  20.3565886  80.9297871  59.9877933  21.1506484  80.4348191  59.7860508
  19.6457578  80.4015734  59.6245639  25.1760730  83.3115967  64.3390301
  25.2297753  83.8806903  65.1068016  24.3075512  83.4817852  63.9744338
  16.6648649  75.0740953  56.0637686  15.7346237  75.0125408  56.2807648
  16.7606121  74.5516906  55.2674327  16.5834198  71.5995766  58.6515927
  16.8441016  72.5141099  58.5425088  17.4051371  71.1320208  58.8012540
  18.0559124  73.0133523  65.8214752  18.7282177  72.8050885  65.1727401
  17.2288910  72.8155609  65.3819984  23.9584696  69.6395464  67.8380413
  23.3112611  70.3385413  67.7444889  24.7285711  70.0731608  68.2056661
  24.1348830  77.4776229  65.8977232  25.0640890  77.6287388  65.7246200
  23.7139860  77.5660249  65.0425879  22.9337162  81.5026893  63.6675770
  22.7948248  81.1345677  64.5401708  22.1451758  82.0174532  63.4959728
  23.5285314  86.6035990  55.0101307  23.7037070  86.1324033  55.8246929
  22.8418102  87.2301756  55.2382567  24.4842377  80.8808496  61.0564608
  24.1492210  80.8409266  61.9522258  23.9846323  80.2153212  60.5835018
  18.4586621  76.2876126  66.5817189  18.3206419  75.5556365  67.1828728
  19.3691544  76.1985026  66.3001377  27.4201569  78.2264530  51.3301667
  26.8030739  77.5011358  51.2334720  26.9518057  78.9873890  50.9868742
  21.0868922  75.9996085  66.0700869  21.7968540  75.3589277  66.0287487
  21.0438230  76.2508980  66.9927049  19.7997856  72.9861303  67.8896508
  19.2635213  72.5352041  68.5418104  19.2114564  73.1207212  67.1466972
  18.0946399  89.7525352  61.7841167  18.3342997  90.3843876  62.4620185
  17.2515596  89.4013392  62.0706526  19.2100115  72.4449954  50.4522972
  18.3329581  72.3238755  50.0885218  19.6857868  71.6536033  50.2001860
  10.7302255  77.2327114  60.5464479  11.4173295  76.9188844  59.9585494
  10.5750383  78.1368479  60.2731730  15.5336977  72.1217311  64.9749503
  15.4495166  71.5142980  64.2399913  14.7119683  72.6126329  64.9758999
  22.6074261  85.5604475  64.1882671  22.5344432  86.3659446  64.7001975
  22.1651654  85.7596441  63.3630692  22.3964041  84.7976245  57.6985492
  21.6131562  85.3397925  57.7923717  23.0956786  85.3150224  58.0979733
  25.7060691  70.6070874  60.3419698  26.2029390  69.8540837  60.0220768
  24.9347672  70.6435191  59.7762907  25.0672944  85.4591309  66.3440829
  25.7800917  86.0938774  66.2716731  24.5762973  85.5555175  65.5280831
  22.2895659  72.7488257  60.0691382  21.9193447  72.1959298  60.7572288
  22.7854752  72.1446391  59.5166382  20.1184858  83.2085752  67.1646400
  20.8194318  83.8422235  67.3175794  19.6479973  83.5500484  66.4042039
  28.2439254  81.5503702  55.4494307  28.5199098  81.4360297  56.3588181
  27.3743753  81.1521187  55.4106480  28.1479685  67.5740468  62.4899057
  27.2342765  67.8044695  62.6581263  28.5772787  67.6578912  63.3413089
  24.8793318  85.7990053  59.0927121  25.0615712  84.9811709  59.5554873
  25.7026304  86.0157745  58.6552011  25.2135483  84.7258238  56.3542169
  25.7423250  84.2150693  55.7412331  25.4763703  84.4100768  57.2187702
  23.9673717  76.5050171  71.4764988  23.2914354  76.4044300  72.1467363
  24.7901351  76.3489384  71.9400985  15.7152576  82.7422107  64.0977503
  16.3006013  81.9965795  64.2305407  15.5177415  83.0526064  64.9814167
  18.5691231  85.7773355  59.1139945  17.9001607  86.2619482  58.6303985
  18.4304101  86.0242575  60.0283324  10.3070231  75.3127707  62.8181946
  10.3454330  74.7791298  63.6119064   9.8010524  74.7862913  62.1992923
  22.7096500  87.8117098  65.7122604  23.2614808  87.9748720  66.4771689
  23.0502693  88.4021536  65.0402628  17.6860993  70.1592248  66.3144488
  17.7502320  71.0207079  65.9021886  17.6228113  69.5466250  65.5816847
  17.1613266  72.2315381  69.9617523  17.7885304  71.8492458  70.5755047
  16.3041185  72.0129582  70.3273215  13.9378808  74.0391810  55.8935877
  14.2332249  73.1302488  55.8402931  13.0366844  74.0179549  55.5716880
  25.8464887  85.7599074  62.6986286  25.7216027  84.9588814  62.1897231
  26.5043978  86.2545267  62.2100256  17.4673055  72.1147806  61.8763426
  16.7459641  72.7283774  61.7370899  18.2566311  72.6505571  61.7980072
  27.9099796  83.5608094  64.3265836  26.9630131  83.4413445  64.2544163
  28.2582569  82.6730592  64.4092097  20.2699369  69.4502233  68.1504078
  20.7933771  69.6964529  68.9130387  20.0511702  70.2822268  67.7307215
  15.6666650  71.7205907  56.0175203  15.3379356  70.8403286  55.8350308
  16.0206021  71.6653576  56.9051592  24.9146229  83.3560810  60.5270188
  24.7671191  82.4277517  60.7077758  25.7399722  83.3780901  60.0427263
  18.7808473  72.0078877  56.3850680  19.1204546  72.5364798  55.6629289
  19.2280594  72.3459283  57.1609247  28.5180351  84.1789369  61.6135061
  29.4426898  83.9732230  61.4759512  28.3495654  83.9305770  62.5224402
  21.4751914  70.3915928  65.8353748  21.1348734  69.5923741  66.2374428
  20.7690920  70.6917639  65.2630581  22.1268386  67.4765240  64.2881071
  22.9494455  67.0025718  64.1659962  22.3706449  68.2555724  64.7879758
  20.7676620  70.5053499  54.5843973  21.4884983  70.8834751  54.0807690
  20.1441924  71.2242375  54.6878951  24.9107743  71.2098648  55.5202305
  25.1271358  72.0923286  55.2191133  24.4301810  70.8184861  54.7907947
  19.6506965  74.1684361  62.0973050  19.5051545  74.4824664  62.9897331
  19.1732168  74.7869261  61.5443949  21.5103347  71.1586909  62.1453939
  21.4964916  70.2628002  61.8086237  22.2275776  71.1657573  62.7792226
  23.3629478  71.5924249  64.1907067  23.1047256  72.5141320  64.1891397
  22.8314519  71.1954684  64.8807531  28.3075667  84.6975036  56.9697152
  28.4812544  84.1321459  56.2171005  28.8004558  85.4975931  56.7876642
  14.1252627  76.7089705  65.0360711  13.5806095  77.4849513  65.1680985
  15.0031977  77.0560510  64.8779833  20.9140243  70.0401289  57.4141510
  21.0356155  69.1117935  57.6132397  20.6242286  70.0539975  56.5019825
  23.7831434  67.7256200  60.5508229  23.8053131  67.7895533  59.5960209
  24.1999493  66.8860708  60.7448736  29.2950839  84.0141801  54.0694051
  29.9901744  84.6348493  54.2881365  29.6373990  83.1637152  54.3446428
  14.9118649  75.8359602  67.9290868  14.1700385  75.9842237  68.5155498
  14.5911393  76.0967867  67.0657617  31.1942263  81.4641506  55.5981381
  31.7193587  81.8028779  54.8730701  31.1064615  80.5288521  55.4144516
  22.8562311  85.3775580  67.7271258  23.1649438  85.1324727  68.5993958
  23.6537793  85.5822218  67.2390128  22.8782923  87.5313489  59.9576635
  22.4387914  87.0389868  60.6509491  23.6291040  86.9886457  59.7168710
  15.3575262  83.7225030  59.9601263  16.1833282  83.4228802  59.5799906
  15.0069314  82.9532653  60.4091051  20.3256795  83.0751498  62.0298936
  19.7036805  82.4122204  61.7301164  20.9961662  83.1012630  61.3472584
  13.5583867  81.6411357  60.9190196  12.7215776  81.2133531  60.7374197
  13.5307513  81.8343800  61.8560987  20.3981323  71.5533287  71.6231442
  20.4469478  72.4295409  71.2409212  20.9403837  71.0110680  71.0503085
  19.8870302  81.6255422  55.5057397  20.0358423  82.3090886  54.8524069
  20.6936746  81.6060512  56.0206852  22.6280611  72.3064659  68.3777801
  21.7583921  72.5998225  68.1060389  22.8640092  72.8905104  69.0985065
  17.6422935  77.6520599  56.5118466  17.3968977  76.7482929  56.7098676
  17.8118850  77.6537750  55.5697944  25.3319645  68.5244276  65.8943221
  25.8501589  69.2605303  65.5689710  24.9774778  68.8308269  66.7289980
  16.9118583  73.3848957  54.0104627  16.2187828  73.4593312  53.3544663
  16.6670335  72.6209301  54.5326144  25.5832239  64.9444558  61.4144118
  25.8633993  64.2767747  62.0404544  26.3682846  65.1373654  60.9018782
  23.3865708  84.1203552  52.9769144  22.8139675  84.7393739  52.5239616
  23.9598502  84.6702914  53.5109066  27.4755477  70.4517776  65.3475094
  26.8805409  70.7322788  64.6521583  27.1905174  70.9411677  66.1191835
  26.6062968  84.4040702  54.1077726  27.5393641  84.3386264  54.3110602
  26.5186180  85.2396969  53.6492259  29.2350984  83.7206573  51.0681674
  29.1564616  83.3866436  51.9617432  30.0560651  84.2128341  51.0673146
  23.7712506  75.4564365  50.3185197  24.7171611  75.3270573  50.3873615
  23.3926751  74.7179027  50.7954625  29.7434391  67.1220371  60.2812088
  29.5459212  66.8135459  61.1655420  30.3534096  67.8482010  60.4110018
  23.6551199  79.5082111  71.7785854  24.5754208  79.6860710  71.9725900
  23.6200782  78.5638157  71.6265553  21.9555423  73.3814341  50.2540082
  21.0486879  73.0847454  50.3302795  22.2331405  73.0844159  49.3874368
  12.8733364  74.7020705  60.7039128  12.5536148  73.8486013  60.4113502
  12.3266792  74.9169283  61.4597096  16.6513271  77.4183146  64.4208635
  16.8699281  78.3500254  64.4396669  17.0639045  77.0591120  65.2063439
  23.5717489  67.9251231  56.4084323  22.7618218  67.5798316  56.7839569
  24.2601906  67.6158775  56.9971935  25.5008038  67.0029278  58.0308620
  26.0539076  67.4224731  58.6898643  25.7378124  66.0765026  58.0731576
  21.5241137  72.9916352  73.8111384  21.4237864  73.9410709  73.7423475
  21.3062679  72.6634590  72.9387454  20.7254208  70.2401277  50.3952061
  21.5873372  70.5656175  50.6547878  20.9104552  69.4532773  49.8825127
  12.7421624  78.3223616  62.6732250  12.0485095  77.9077569  62.1602204
  13.4894615  78.3644153  62.0765669  28.8786845  69.1129803  57.5387284
  28.2985514  69.7714607  57.1565336  28.6122777  68.2907148  57.1274702
  27.3290411  68.5134861  59.7408604  27.8290189  68.6251395  58.9322923
  27.9726019  68.2095914  60.3809413  21.3872407  76.4213490  72.6276445
  20.9039489  77.2213851  72.8340334  21.4733346  76.4321435  71.6743889
  14.6558366  78.2541870  60.5498265  14.6329055  78.3529557  59.5980148
  14.9659003  79.1007021  60.8715431  17.3145744  80.3118025  64.6644879
  18.2688998  80.2801967  64.5974811  17.1158268  79.8508649  65.4795105
  17.9045126  78.8819141  67.2315677  18.7238015  79.3763220  67.2550514
  18.1781934  77.9651109  67.2033244  27.6611723  71.2729893  56.5943632
  26.7737578  71.5579544  56.3763827  28.0765712  71.1123657  55.7470909
  31.0126259  71.2976414  60.3097972  31.7886649  71.7872867  60.5822588
  30.2874393  71.7234469  60.7669841  15.6695973  85.8537645  61.6815077
  15.5350441  85.0938045  61.1153075  15.2528035  86.5778544  61.2143866
  26.8054936  81.0374568  50.6891652  27.5090786  81.2424571  51.3049308
  26.0817585  81.6051330  50.9540736  18.8265099  86.7506962  61.8933520
  18.7097483  87.6952394  61.7912210  18.0057545  86.4480523  62.2819319
  28.7141633  81.4757097  52.7390112  29.5487237  81.0438296  52.5567587
  28.5525976  81.3039111  53.6667007  28.3687526  77.9789211  54.1046452
  28.3136329  77.8133482  53.1634896  27.7433581  78.6865244  54.2608641
  13.1580041  73.2157275  67.9307874  13.8038904  72.7056229  68.4195099
  12.9497192  73.9525957  68.5051299  25.6833433  80.2838123  73.4300014
  26.5524592  80.4578775  73.0686649  25.2040184  81.1032539  73.3075744
  21.6783651  67.4797320  53.6831770  21.6662321  68.4239160  53.8400041
  22.5707073  67.2967465  53.3891231  19.8519613  87.4035224  65.1089448
  20.7546860  87.4358834  65.4255943  19.6256983  86.4735674  65.1235784
  21.6073215  86.1566210  61.7699527  20.6568846  86.1568072  61.6563899
  21.9105701  85.4098945  61.2535561  25.4935771  64.0740096  57.9377707
  24.7268166  63.5198583  58.0834389  25.9046476  64.1461965  58.7991859
  17.4977532  70.3624892  72.0282888  18.3608993  70.0061697  72.2386213
  16.9242942  70.0238787  72.7158292  37.3425909  91.9926748  62.8345289
  37.9804319  91.8733496  62.1308629  37.2246751  92.9407592  62.8933241
  34.1515615  91.9454177  62.7706814  33.8134126  91.8295241  61.8827349
  35.0205383  91.5445342  62.7507820  30.0102431  93.7989653  58.7603705
  29.4467296  93.7079590  57.9919993  29.8954826  92.9789557  59.2406197
  34.6335398  93.0989028  68.7293019  34.6224039  92.7041827  67.8573523
  34.7956037  92.3655101  69.3226791  27.5566862  95.2940845  61.5987925
  28.3488154  94.9531669  61.1834225  27.7963513  95.4035820  62.5190079
  35.5901989  97.4660621  54.0718170  34.9389969  98.0514701  53.6852183
  36.3846352  97.9966816  54.1313207  29.5157616  94.5549758  54.4705304
  30.2888492  94.0078745  54.3318180  29.8683015  95.4194007  54.6819765
  31.3542659  95.8826140  67.6772203  31.0632525  96.7871771  67.5618870
  31.9899643  95.9242668  68.3916273  32.2798866  93.2602989  64.2673563
  32.8762438  93.0359011  63.5530526  32.3373837  92.5187734  64.8699011
  31.8523894  90.7142424  52.1023754  32.1049415  90.1923945  51.3407217
  30.9148453  90.5508569  52.2050438  36.8967177  89.7178202  59.9098497
  37.6830266  89.2997625  59.5588914  37.1605881  90.6224294  60.0780146
  37.0677254  95.1551053  54.6087154  36.4323087  95.2285679  55.3208059
  36.7374661  95.7444651  53.9306233  42.2975604  89.6553436  60.8131476
  43.0300776  89.0852652  61.0469305  41.5414960  89.2675036  61.2537981
  31.5720183  92.6170530  54.3048129  31.4556441  91.9415433  54.9729213
  31.6822443  92.1302904  53.4880282  33.9151724  92.0780677  58.0094818
  33.5509931  91.5511298  58.7207740  34.7718840  91.6879146  57.8361304
  33.5557211  87.1070577  53.0056167  33.7231613  87.9750813  53.3726638
  33.3654380  87.2697858  52.0817456  36.3132544  95.5687556  64.6721997
  36.0133267  96.4712594  64.5637804  35.9683604  95.3019739  65.5243150
  29.7645026  92.0201352  60.7058701  28.8395522  91.8877567  60.9136393
  30.0129439  92.7995572  61.2028644  39.7129688  88.0870096  62.3519434
  38.8046565  88.0185504  62.0578195  39.6617284  88.5642041  63.1801260
  33.5346432  89.5628234  53.9902833  33.4146057  90.0085285  54.8288314
  32.8399020  89.9113552  53.4316372  27.1253837  91.6634626  61.5402491
  27.2546218  91.9169105  62.4541902  26.4451288  92.2562334  61.2207146
  31.2953324 102.3331876  57.6392965  31.2177354 103.2839701  57.7181445
  30.6914967 101.9877748  58.2967891  33.7870554  89.5059741  70.2954332
  33.0103888  90.0653662  70.2857196  34.4261117  89.9916524  70.8169202
  41.5791334  86.2886534  64.1297308  40.9365715  86.5819067  63.4837103
  41.0746263  86.1739455  64.9350505  39.2331498  90.0349707  54.8183168
  40.1449354  90.2677094  54.6430865  38.7241145  90.6186752  54.2558246
  32.0416926  92.3145195  69.8572299  32.7831610  92.8530239  69.5807122
  31.3353911  92.9411483  70.0143850  37.5172266  94.4574335  68.4544460
  37.9255622  94.0156746  67.7099092  36.7949527  93.8826963  68.7078653
  33.8703336  89.3946942  65.8278017  34.7164531  89.8186356  65.9712666
  33.8101973  88.7380566  66.5216580  37.8401080  95.0175526  62.2096749
  37.2109943  95.1821240  61.5072817  37.4526742  95.4317135  62.9807713
  41.7190312  95.9529964  59.5641113  41.0341350  96.3328865  59.0138146
  41.8034161  96.5625290  60.2973061  37.0202781  87.0551310  67.4859191
  36.7763713  87.8093371  66.9493466  37.2962711  87.4336658  68.3206438
  38.9741244  93.5989923  66.1636456  39.1858139  94.2421683  65.4870837
  38.9270992  92.7652239  65.6958386  36.5767473  86.2107743  63.0673028
  35.7151952  86.5088997  63.3589766  36.6029907  86.4278142  62.1354061
  33.3929042  94.7549934  59.4746834  33.8567388  95.0337637  58.6851457
  33.1285840  93.8533378  59.2919925  30.2853123  94.3021415  62.4126597
  30.8554480  94.7308684  61.7744082  30.8761235  94.0204000  63.1110783
  32.3297928  90.8773086  56.2836399  33.0321972  91.3294130  56.7510326
  31.9978557  90.2356905  56.9116292  30.7778290  89.4684843  70.6587609
  30.1476950  90.1501124  70.8923005  30.6714378  89.3567925  69.7140747
  26.0723262  89.1356639  61.5853533  25.2822316  89.3914167  61.1093643
  26.5634510  89.9504977  61.6905573  40.0887072  96.4761878  64.3358814
  40.9104515  96.0742065  64.0541495  40.0849475  96.3730112  65.2874929
  28.0238008  89.5001218  58.5437009  27.2269171  89.6119912  59.0620505
  27.7963600  89.8387870  57.6777900  33.8543675  96.0245921  66.4919524
  33.9188108  96.4866329  67.3277696  33.1454599  95.3943286  66.6201834
  24.3560965  89.3887129  64.0168524  24.6069004  90.2734139  64.2826100
  24.8920514  89.2091731  63.2443615  48.1793065  92.8200627  60.6843785
  47.4256773  92.2508025  60.5287790  48.3140606  92.7863291  61.6314420
  33.5691693  97.6914029  56.3598504  33.4337368  98.5365565  56.7883352
  34.1101505  97.8933307  55.5964438  27.0221090  95.2089467  56.9326430
  27.5345611  96.0032717  57.0831994  27.6743803  94.5115757  56.8660031
  28.8315975  98.3255223  59.0149183  29.0082603  99.2473188  58.8270167
  29.6272808  98.0113642  59.4443562  32.9726993  85.1863488  70.6133116
  33.7136707  85.7870641  70.5337579  33.2044916  84.4441126  70.0551159
  28.1168331  90.3719855  68.8911346  28.0021847  89.4705112  69.1918445
  27.2612849  90.6183552  68.5396162  35.1960169  98.3137595  70.4898847
  34.7524023  97.5273974  70.1719751  35.8577383  98.5016746  69.8242737
  29.9547290  99.8433397  65.0159525  30.5054715  99.7150460  64.2436519
  29.1158766 100.1428286  64.6654418  37.2941407  98.5940395  68.5180248
  37.2759883  99.4149276  68.0260517  38.2161327  98.4694471  68.7430389
  33.7514461  96.1084525  69.3603756  34.2842798  95.3472813  69.1303064
  33.2228542  95.8158177  70.1027911  24.9870007  93.5378121  57.7086000
  25.8245229  93.9475130  57.4919708  25.1648275  92.5977563  57.6786194
  36.8834439  91.2053202  53.3969833  36.3681063  91.9757807  53.6358220
  36.6111748  90.5318338  54.0202894  34.4681550  86.0502903  58.4555071
  33.6123146  85.6609753  58.2760710  34.8808502  86.1294863  57.5954857
  32.2423583  83.6687976  61.8612813  33.1076579  83.4730784  61.5018702
  32.3101092  83.4398327  62.7882170  41.8568713  93.9585557  55.3323007
  41.0798156  93.6196716  54.8878169  42.5360194  93.9638180  54.6577972
  36.6720742  89.0780294  55.2229614  36.3670878  89.3926443  56.0739757
  37.6251184  89.1561714  55.2656947  35.1167174  95.2370517  56.8722568
  34.5888536  94.5023277  56.5595806  34.6154677  96.0145194  56.6262537
  40.0960020  93.4319538  61.9889614  39.4383695  94.1218799  62.0769743
  40.9000419  93.8215970  62.3323601  29.8485902  85.8990184  59.2329180
  30.4229654  85.6765365  58.5002373  30.4356884  85.9678878  59.9857781
  38.9065479  91.7863910  60.0393556  39.4197361  92.4193902  60.5415266
  39.5566703  91.1865106  59.6736916  30.1755489  87.9294645  53.2525065
  29.3392801  88.2669331  53.5734340  30.0360258  87.7943624  52.3152202
  32.1508569  82.7731432  57.9604249  31.4972982  82.4580450  57.3360864
  32.1089044  82.1507173  58.6864072  33.2619774  93.0550728  49.8757541
  32.3546836  92.8239981  50.0748690  33.7590806  92.2588347  50.0631523
  36.1687853 101.7648235  52.7954227  35.4949552 102.0679932  53.4039185
  36.5553675 102.5677315  52.4459684  35.3846310  89.2613366  62.2851897
  34.4668871  89.4828313  62.1273585  35.8006453  89.3359677  61.4263604
  36.1681358  90.6604782  57.4154577  36.9153176  91.1726179  57.1061699
  36.4372947  90.3388834  58.2758971  34.4408008  93.1563322  54.3981531
  33.5319227  92.8722355  54.4954001  34.4703092  93.5762401  53.5384838
  39.6727275  96.7669912  58.1672699  39.2189602  95.9260822  58.2237889
  39.0421242  97.4031310  58.5047479  38.6160195  87.6961898  59.3973366
  37.8782951  87.1839284  59.7283609  38.8686968  87.2562280  58.5856643
  38.1160214  98.6046409  59.1022517  38.4083189  99.1651466  58.3834883
  38.6258835  98.8974970  59.8575676  38.7171822  80.4738150  59.9915136
  39.0230699  79.6135513  59.7041051  39.4424427  81.0655770  59.7914129
  25.0096178  90.8768837  58.3796734  24.8120578  90.2838197  57.6547800
  24.4542842  90.5721047  59.0972672  32.9892902  90.7691943  60.4991327
  33.0441512  89.8165779  60.4233803  32.1784104  90.9251382  60.9832625
  34.1384096  94.6972066  51.7369610  33.7003525  93.9807925  51.2775247
  34.8794536  94.9248181  51.1754701  30.9285262  89.3869003  58.2581706
  30.1153127  89.6863173  58.6646898  31.4244256  88.9924692  58.9756188
  33.0793840  99.3826760  60.1915970  33.0370018  99.6087606  59.2624502
  33.9956538  99.1490134  60.3401771  36.5259473  89.8510827  67.0896599
  36.8808861  90.0782300  67.9491065  37.1731605  90.1829204  66.4673855
  42.2557210  92.9729263  57.7945928  42.1175109  93.1630859  56.8667118
  41.8993429  93.7348646  58.2513980  30.4199336  86.9587358  63.8742940
  31.0598716  86.8176117  63.1765904  29.5876867  86.6721872  63.4981542
  42.2826590  95.0405790  62.8057200  42.7163097  94.9481079  63.6540254
  42.9958171  95.0163291  62.1677216  31.1959640  96.2589789  59.9877933
  31.9900239  95.7640109  59.7860508  30.4851333  95.7307652  59.6245639
  36.0154485  98.6407884  64.3390301  36.0691507  99.2098821  65.1068016
  35.1469266  98.8109769  63.9744338  27.5042404  90.4032870  56.0637686
  26.5739992  90.3417326  56.2807648  27.5999876  89.8808823  55.2674327
  27.4227953  86.9287683  58.6515927  27.6834770  87.8433017  58.5425088
  28.2445125  86.4612126  58.8012540  28.8952878  88.3425440  65.8214752
  29.5675932  88.1342803  65.1727401  28.0682665  88.1447526  65.3819984
  43.1442139  95.0829491  65.3390085  43.3378030  95.9875301  65.5849360
  43.0442758  94.6236910  66.1728670  34.7978450  84.9687381  67.8380413
  34.1506365  85.6677331  67.7444889  35.5679466  85.4023525  68.2056661
  38.2057248  95.2336234  70.9130966  38.0542755  95.0046785  69.9961050
  38.1961928  96.1906835  70.9262311  34.9742585  92.8068146  65.8977232
  35.9034645  92.9579306  65.7246200  34.5533615  92.8952167  65.0425879
  33.7730916  96.8318811  63.6675770  33.6342002  96.4637595  64.5401708
  32.9845513  97.3466450  63.4959728  34.3679068 101.9327907  55.0101307
  34.5430824 101.4615950  55.8246929  33.6811856 102.5593673  55.2382567
  35.3236131  96.2100413  61.0564608  34.9885964  96.1701183  61.9522258
  34.8240077  95.5445129  60.5835018  29.2980375  91.6168043  66.5817189
  29.1600173  90.8848282  67.1828728  30.2085299  91.5276944  66.3001377
  38.2595323  93.5556448  51.3301667  37.6424494  92.8303276  51.2334720
  37.7911812  94.3165808  50.9868742  31.9262676  91.3288003  66.0700869
  32.6362295  90.6881195  66.0287487  31.8831984  91.5800898  66.9927049
  39.9149455  98.2655356  68.9907448  39.8562001  97.5814576  68.3238031
  40.3168973  99.0074346  68.5388074  30.6391610  88.3153221  67.8896508
  30.1028967  87.8643959  68.5418104  30.0508319  88.4499129  67.1466972
  28.9340154 105.0817270  61.7841167  29.1736752 105.7135794  62.4620185
  28.0909350 104.7305310  62.0706526  30.0493869  87.7741872  50.4522972
  29.1723335  87.6530673  50.0885218  30.5251622  86.9827950  50.2001860
  39.9166862  96.2294940  67.2221428  39.0293641  95.8920862  67.3447826
  40.4865413  95.4977971  67.4590193  21.5696009  92.5619032  60.5464479
  22.2567049  92.2480762  59.9585494  21.4144138  93.4660396  60.2731730
  26.3730731  87.4509228  64.9749503  26.2888920  86.8434898  64.2399913
  25.5513438  87.9418247  64.9758999  33.4468015 100.8896392  64.1882671
  33.3738187 101.6951364  64.7001975  33.0045409 101.0888358  63.3630692
  33.2357795 100.1268162  57.6985492  32.4525317 100.6689843  57.7923717
  33.9350540 100.6442142  58.0979733  36.5454445  85.9362792  60.3419698
  37.0423145  85.1832754  60.0220768  35.7741427  85.9727109  59.7762907
  44.3984203  91.6403157  61.9837989  44.3874079  92.5227873  61.6131922
  43.5301582  91.2874708  61.7892526  35.9066699 100.7883226  66.3440829
  36.6194671 101.4230691  66.2716731  35.4156728 100.8847092  65.5280831
  37.6284226  94.6934479  57.9158121  36.6940505  94.8135942  57.7462825
  37.8060894  93.7906946  57.6518131  33.1289414  88.0780175  60.0691382
  32.7587201  87.5251215  60.7572288  33.6248506  87.4738308  59.5166382
  41.0156777  90.5351798  58.4508155  41.4817229  91.3679790  58.3768458
  41.4664278  90.0696780  59.1553414  30.9578613  98.5377670  67.1646400
  31.6588072  99.1714153  67.3175794  30.4873728  98.8792401  66.4042039
  39.0833008  96.8795620  55.4494307  39.3592852  96.7652214  56.3588181
  38.2137507  96.4813105  55.4106480  38.7579898  91.0922277  64.9898951
  38.1051349  91.3398185  64.3351403  39.1360278  90.2786416  64.6561428
  35.7187072 101.1281971  59.0927121  35.9009467 100.3103626  59.5554873
  36.5420058 101.3449663  58.6552011  36.0529238 100.0550156  56.3542169
  36.5817004  99.5442610  55.7412331  36.3157457  99.7392686  57.2187702
  34.8067471  91.8342088  71.4764988  34.1308109  91.7336218  72.1467363
  35.6295105  91.6781302  71.9400985  26.5546331  98.0714025  64.0977503
  27.1399767  97.3257713  64.2305407  26.3571169  98.3817982  64.9814167
  29.4084986 101.1065272  59.1139945  28.7395361 101.5911400  58.6303985
  29.2697855 101.3534493  60.0283324  21.1463985  90.6419625  62.8181946
  21.1848085  90.1083216  63.6119064  20.6404278  90.1154831  62.1992923
  33.5490254 103.1409016  65.7122604  34.1008562 103.3040637  66.4771689
  33.8896448 103.7313454  65.0402628  28.5254748  85.4884166  66.3144488
  28.5896074  86.3498997  65.9021886  28.4621868  84.8758167  65.5816847
  28.0007020  87.5607298  69.9617523  28.6279059  87.1784376  70.5755047
  27.1434939  87.3421500  70.3273215  38.4001129  97.9670273  71.5671258
  38.9441033  98.5800232  71.0726213  37.8187974  98.5249852  72.0838271
  24.7772563  89.3683727  55.8935877  25.0726004  88.4594406  55.8402931
  23.8760599  89.3471467  55.5716880  36.6858642 101.0890991  62.6986286
  36.5609781 100.2880731  62.1897231  37.3437733 101.5837185  62.2100256
  28.3066810  87.4439724  61.8763426  27.5853396  88.0575692  61.7370899
  29.0960066  87.9797489  61.7980072  38.7493550  98.8900011  64.3265836
  37.8023886  98.7705363  64.2544163  39.0976323  98.0022510  64.4092097
  31.1093123  84.7794150  68.1504078  31.6327525  85.0256447  68.9130387
  30.8905457  85.6114185  67.7307215  26.5060404  87.0497825  56.0175203
  26.1773111  86.1695204  55.8350308  26.8599775  86.9945494  56.9051592
  35.7539983  98.6852728  60.5270188  35.6064946  97.7569435  60.7077758
  36.5793477  98.7072818  60.0427263  29.6202228  87.3370795  56.3850680
  29.9598300  87.8656716  55.6629289  30.0674348  87.6751201  57.1609247
  39.3574105  99.5081286  61.6135061  40.2820653  99.3024148  61.4759512
  39.1889409  99.2597688  62.5224402  32.3145668  85.7207845  65.8353748
  31.9742489  84.9215659  66.2374428  31.6084675  86.0209556  65.2630581
  31.6070375  85.8345416  54.5843973  32.3278737  86.2126669  54.0807690
  30.9835679  86.5534293  54.6878951  35.7501498  86.5390565  55.5202305
  35.9665112  87.4215203  55.2191133  35.2695565  86.1476779  54.7907947
  30.4900719  89.4976279  62.0973050  30.3445300  89.8116582  62.9897331
  30.0125923  90.1161179  61.5443949  32.3497102  86.4878827  62.1453939
  32.3358671  85.5919920  61.8086237  33.0669530  86.4949490  62.7792226
  34.2023233  86.9216167  64.1907067  33.9441010  87.8433237  64.1891397
  33.6708273  86.5246601  64.8807531  39.1469421 100.0266954  56.9697152
  39.3206299  99.4613376  56.2171005  39.6398313 100.8267849  56.7876642
  24.9646381  92.0381623  65.0360711  24.4199849  92.8141431  65.1680985
  25.8425731  92.3852427  64.8779833  31.7533998  85.3693207  57.4141510
  31.8749909  84.4409853  57.6132397  31.4636040  85.3831893  56.5019825
  45.0008813  92.7903377  58.5887452  45.4439959  92.0410702  58.1906575
  44.1235323  92.7813513  58.2061184  40.1344594  99.3433718  54.0694051
  40.8295499  99.9640411  54.2881365  40.4767744  98.4929069  54.3446428
  25.7512403  91.1651519  67.9290868  25.0094139  91.3134155  68.5155498
  25.4305147  91.4259785  67.0657617  42.0336017  96.7933424  55.5981381
  42.5587341  97.1320697  54.8730701  41.9458370  95.8580439  55.4144516
  33.6956066 100.7067497  67.7271258  34.0043192 100.4616644  68.5993958
  34.4931548 100.9114136  67.2390128  33.7176678 102.8605407  59.9576635
  33.2781668 102.3681786  60.6509491  34.4684795 102.3178375  59.7168710
  26.1969017  99.0516948  59.9601263  27.0227037  98.7520720  59.5799906
  25.8463069  98.2824570  60.4091051  31.1650550  98.4043416  62.0298936
  30.5430559  97.7414121  61.7301164  31.8355417  98.4304548  61.3472584
  24.3977622  96.9703274  60.9190196  23.5609530  96.5425449  60.7374197
  24.3701267  97.1635718  61.8560987  31.2375077  86.8825204  71.6231442
  31.2863233  87.7587327  71.2409212  31.7797592  86.3402597  71.0503085
  41.7229923  97.4266327  70.9032579  40.9325467  97.4090466  70.3637079
  41.4863278  97.9654621  71.6581616  41.8427798  94.2758794  68.2165308
  41.8925803  94.1108801  69.1580831  41.7341721  93.4086053  67.8263189
  30.7264057  96.9547340  55.5057397  30.8752177  97.6382804  54.8524069
  31.5330500  96.9352430  56.0206852  39.1331561  90.2589722  69.5324615
  40.0341423  90.1196187  69.2408612  39.2079535  90.4244177  70.4722792
  33.4674366  87.6356577  68.3777801  32.5977675  87.9290143  68.1060389
  33.7033846  88.2197022  69.0985065  43.3445995  96.6955735  68.4607329
  43.0530803  97.0585716  69.2970790  42.7318126  95.9822744  68.2820661
  44.5441677  94.2608615  60.9809900  45.3788569  94.6998419  61.1447460
  44.6800806  93.7847268  60.1618145  41.5933183  91.8188350  66.9287387
  42.0687305  92.0115996  66.1206239  40.6698749  91.8747536  66.6830771
  28.4816690  92.9812517  56.5118466  28.2362732  92.0774847  56.7098676
  28.6512604  92.9829668  55.5697944  27.7512337  88.7140875  54.0104627
  27.0581582  88.7885230  53.3544663  27.5064089  87.9501218  54.5326144
  34.2259462  99.4495470  52.9769144  33.6533429 100.0685657  52.5239616
  34.7992256  99.9994832  53.5109066  40.2934852  88.6954110  65.1615693
  41.2452275  88.7952208  65.1827917  40.1238303  87.9032379  65.6713777
  38.3149232  85.7809693  65.3475094  37.7199164  86.0614706  64.6521583
  38.0298928  86.2703594  66.1191835  37.4456722  99.7332620  54.1077726
  38.3787395  99.6678182  54.3110602  37.3579935 100.5688887  53.6492259
  40.0744739  99.0498490  51.0681674  39.9958370  98.7158354  51.9617432
  40.8954406  99.5420258  51.0673146  42.7722930  91.9160230  64.2757993
  42.7399250  90.9776230  64.4617676  43.3823554  91.9944266  63.5423817
  34.6106261  90.7856283  50.3185197  35.5565366  90.6562491  50.3873615
  34.2320506  90.0470945  50.7954625  42.9217418  88.7071273  64.3216276
  42.4056467  87.9229730  64.1346205  43.8057367  88.3789990  64.4862795
  40.5828145  82.4512289  60.2812088  40.3852967  82.1427377  61.1655420
  41.1927851  83.1773928  60.4110018  48.5899480  92.9776237  63.4164029
  49.3202868  92.7161525  63.9771733  47.9806425  92.2404959  63.4566097
  46.6714777  91.1184099  64.0138481  45.9447941  90.9840064  63.4054972
  46.2562064  91.4260928  64.8195199  34.4944953  94.8374029  71.7785854
  35.4147963  95.0152628  71.9725900  34.4594536  93.8930074  71.6265553
  32.7949178  88.7106259  50.2540082  31.8880633  88.4139372  50.3302795
  33.0725159  88.4136077  49.3874368  23.7127118  90.0312623  60.7039128
  23.3929903  89.1777931  60.4113502  23.1660547  90.2461201  61.4597096
  27.4907026  92.7475064  64.4208635  27.7093036  93.6792171  64.4396669
  27.9032800  92.3883038  65.2063439  34.4111244  83.2543149  56.4084323
  33.6011972  82.9090234  56.7839569  35.0995661  82.9450693  56.9971935
  36.3401792  82.3321196  58.0308620  36.8932831  82.7516649  58.6898643
  36.5771878  81.4056944  58.0731576  32.3634891  88.3208269  73.8111384
  32.2631618  89.2702626  73.7423475  32.1456433  87.9926508  72.9387454
  31.5647963  85.5693194  50.3952061  32.4267127  85.8948093  50.6547878
  31.7498307  84.7824690  49.8825127  23.5815378  93.6515534  62.6732250
  22.8878850  93.2369487  62.1602204  24.3288369  93.6936071  62.0765669
  39.7180599  84.4421721  57.5387284  39.1379268  85.1006525  57.1565336
  39.4516532  83.6199065  57.1274702  38.1684165  83.8426778  59.7408604
  38.6683944  83.9543313  58.9322923  38.8119773  83.5387831  60.3809413
  32.2266161  91.7505408  72.6276445  31.7433243  92.5505768  72.8340334
  32.3127100  91.7613353  71.6743889  25.4952121  93.5833788  60.5498265
  25.4722809  93.6821475  59.5980148  25.8052757  94.4298939  60.8715431
  28.1539499  95.6409943  64.6644879  29.1082752  95.6093885  64.5974811
  27.9552022  95.1800567  65.4795105  28.7438881  94.2111059  67.2315677
  29.5631770  94.7055138  67.2550514  29.0175689  93.2943027  67.2033244
  38.5005477  86.6021811  56.5943632  37.6131332  86.8871462  56.3763827
  38.9159466  86.4415575  55.7470909  41.8520013  86.6268332  60.3097972
  42.6280403  87.1164785  60.5822588  41.1268147  87.0526386  60.7669841
  44.2892572  87.3395951  61.3671912  44.8837063  87.0991687  60.6565220
  44.3619156  86.6203082  61.9945449  26.5089728 101.1829562  61.6815077
  26.3744195 100.4229963  61.1153075  26.0921790 101.9070462  61.2143866
  37.6448691  96.3666486  50.6891652  38.3484541  96.5716488  51.3049308
  36.9211339  96.9343248  50.9540736  38.4746501  92.1176347  56.8093922
  38.4181702  92.5744899  55.9701555  39.0274843  91.3567032  56.6316765
  42.2851307  87.9066079  57.6344042  42.0288241  87.5062715  58.4652250
  41.6604175  88.6209873  57.5094181  46.5963645  90.6462152  60.1415333
  46.0363203  90.7155342  60.9146895  45.9907148  90.4703137  59.4214830
  29.6658853 102.0798879  61.8933520  29.5491238 103.0244312  61.7912210
  28.8451300 101.7772441  62.2819319  39.5535388  96.8049015  52.7390112
  40.3880992  96.3730214  52.5567587  39.3919731  96.6331029  53.6667007
  39.2081280  93.3081128  54.1046452  39.1530084  93.1425400  53.1634896
  38.5827335  94.0157161  54.2608641  23.9973795  88.5449193  67.9307874
  24.6432659  88.0348147  68.4195099  23.7890946  89.2817874  68.5051299
  36.5227187  95.6130040  73.4300014  37.3918347  95.7870692  73.0686649
  36.0433939  96.4324457  73.3075744  32.5177406  82.8089237  53.6831770
  32.5056075  83.7531077  53.8400041  33.4100827  82.6259383  53.3891231
  30.6913368 102.7327141  65.1089448  31.5940614 102.7650751  65.4255943
  30.4650738 101.8027592  65.1235784  32.4466970 101.4858128  61.7699527
  31.4962601 101.4859989  61.6563899  32.7499456 100.7390862  61.2535561
  28.3371286  85.6916810  72.0282888  29.2002748  85.3353615  72.2386213
  27.7636697  85.3530705  72.7158292  48.1819663 107.3218666  62.8345289
  48.8198073 107.2025413  62.1308629  48.0640506 108.2699510  62.8933241
  44.9909369 107.2746094  62.7706814  44.6527881 107.1587159  61.8827349
  45.8599138 106.8737259  62.7507820  40.8496185 109.1281571  58.7603705
  40.2861050 109.0371508  57.9919993  40.7348580 108.3081475  59.2406197
  45.4729152 108.4280946  68.7293019  45.4617793 108.0333744  67.8573523
  45.6349792 107.6947019  69.3226791  38.3960617 110.6232762  61.5987925
  39.1881909 110.2823587  61.1834225  38.6357267 110.7327737  62.5190079
  46.4295744 112.7952538  54.0718170  45.7783724 113.3806619  53.6852183
  47.2240107 113.3258733  54.1313207  40.3551371 109.8841676  54.4705304
  41.1282247 109.3370663  54.3318180  40.7076770 110.7485925  54.6819765
  42.1936413 111.2118058  67.6772203  41.9026279 112.1163689  67.5618870
  42.8293398 111.2534585  68.3916273  43.1192620 108.5894906  64.2673563
  43.7156193 108.3650929  63.5530526  43.1767592 107.8479652  64.8699011
  42.6917649 106.0434342  52.1023754  42.9443169 105.5215863  51.3407217
  41.7542208 105.8800487  52.2050438  47.7360932 105.0470120  59.9098497
  48.5224021 104.6289543  59.5588914  47.9999636 105.9516212  60.0780146
  47.9071009 110.4842970  54.6087154  47.2716842 110.5577597  55.3208059
  47.5768415 111.0736569  53.9306233  53.1369359 104.9845353  60.8131476
  53.8694531 104.4144570  61.0469305  52.3808714 104.5966954  61.2537981
  42.4113937 107.9462448  54.3048129  42.2950196 107.2707351  54.9729213
  42.5216197 107.4594822  53.4880282  44.7545478 107.4072595  58.0094818
  44.3903686 106.8803216  58.7207740  45.6112594 107.0171064  57.8361304
  50.6594779  98.6966927  65.2726084  50.3278104  99.5662338  65.0487299
  50.0640392  98.3803211  65.9520115  44.3950965 102.4362494  53.0056167
  44.5625368 103.3042731  53.3726638  44.2048134 102.5989776  52.0817456
  47.1526299 110.8979473  64.6721997  46.8527022 111.8004512  64.5637804
  46.8077358 110.6311656  65.5243150  40.6038780 107.3493270  60.7058701
  39.6789277 107.2169484  60.9136393  40.8523193 108.1287489  61.2028644
  50.5523442 103.4162013  62.3519434  49.6440320 103.3477422  62.0578195
  50.5011038 103.8933958  63.1801260  44.3740186 104.8920152  53.9902833
  44.2539811 105.3377203  54.8288314  43.6792775 105.2405470  53.4316372
  37.9647591 106.9926544  61.5402491  38.0939972 107.2461023  62.4541902
  37.2845042 107.5854252  61.2207146  42.1347078 117.6623794  57.6392965
  42.0571108 118.6131619  57.7181445  41.5308722 117.3169666  58.2967891
  44.6264308 104.8351659  70.2954332  43.8497642 105.3945579  70.2857196
  45.2654871 105.3208442  70.8169202  52.4185089 101.6178452  64.1297308
  51.7759469 101.9110985  63.4837103  51.9140017 101.5031372  64.9350505
  50.0725252 105.3641625  54.8183168  50.9843109 105.5969012  54.6430865
  49.5634899 105.9478669  54.2558246  42.8810680 107.6437112  69.8572299
  43.6225365 108.1822156  69.5807122  42.1747666 108.2703401  70.0143850
  48.3566020 109.7866253  68.4544460  48.7649376 109.3448663  67.7099092
  47.6343282 109.2118880  68.7078653  44.7097090 104.7238860  65.8278017
  45.5558285 105.1478273  65.9712666  44.6495728 104.0672484  66.5216580
  48.6794835 110.3467444  62.2096749  48.0503697 110.5113158  61.5072817
  48.2920497 110.7609053  62.9807713  52.5584067 111.2821881  59.5641113
  51.8735105 111.6620783  59.0138146  52.6427916 111.8917208  60.2973061
  47.8596535 102.3843228  67.4859191  47.6157467 103.1385289  66.9493466
  48.1356466 102.7628576  68.3206438  49.8134998 108.9281840  66.1636456
  50.0251893 109.5713600  65.4870837  49.7664746 108.0944157  65.6958386
  47.4161227 101.5399661  63.0673028  46.5545706 101.8380915  63.3589766
  47.4423662 101.7570060  62.1354061  44.2322797 110.0841852  59.4746834
  44.6961142 110.3629555  58.6851457  43.9679595 109.1825296  59.2919925
  41.1246878 109.6313333  62.4126597  41.6948235 110.0600602  61.7744082
  41.7154990 109.3495918  63.1110783  43.1691683 106.2065004  56.2836399
  43.8715726 106.6586048  56.7510326  42.8372311 105.5648823  56.9116292
  41.6172044 104.7976761  70.6587609  40.9870705 105.4793041  70.8923005
  41.5108132 104.6859842  69.7140747  36.9117017 104.4648557  61.5853533
  36.1216071 104.7206085  61.1093643  37.4028264 105.2796894  61.6905573
  50.9280826 111.8053796  64.3358814  51.7498270 111.4033983  64.0541495
  50.9243229 111.7022030  65.2874929  38.8631762 104.8293136  58.5437009
  38.0662925 104.9411830  59.0620505  38.6357354 105.1679788  57.6777900
  44.6937430 111.3537839  66.4919524  44.7581862 111.8158246  67.3277696
  43.9848354 110.7235204  66.6201834  35.1954720 104.7179047  64.0168524
  35.4462758 105.6026057  64.2826100  35.7314268 104.5383649  63.2443615
  59.0186819 108.1492544  60.6843785  58.2650528 107.5799942  60.5287790
  59.1534360 108.1155209  61.6314420  44.4085447 113.0205947  56.3598504
  44.2731122 113.8657482  56.7883352  44.9495260 113.2225224  55.5964438
  40.8952787  99.0997526  73.0212860  40.5019732  98.5463725  73.6960504
  41.7118927  99.4108105  73.4119377  37.8614845 110.5381385  56.9326430
  38.3739365 111.3324635  57.0831994  38.5137557 109.8407675  56.8660031
  39.6709729 113.6547141  59.0149183  39.8476358 114.5765106  58.8270167
  40.4666563 113.3405560  59.4443562  43.8120748 100.5155406  70.6133116
  44.5530461 101.1162559  70.5337579  44.0438671  99.7733043  70.0551159
  38.9562086 105.7011773  68.8911346  38.8415601 104.7997030  69.1918445
  38.1006604 105.9475470  68.5396162  46.0353924 113.6429513  70.4898847
  45.5917778 112.8565892  70.1719751  46.6971137 113.8308664  69.8242737
  40.7941045 115.1725315  65.0159525  41.3448470 115.0442378  64.2436519
  39.9552521 115.4720204  64.6654418  48.1335162 113.9232313  68.5180248
  48.1153637 114.7441194  68.0260517  49.0555082 113.7986388  68.7430389
  44.5908216 111.4376443  69.3603756  45.1236553 110.6764731  69.1303064
  44.0622297 111.1450094  70.1027911  47.7577911  96.5436508  64.8897398
  47.4142180  97.4338150  64.8136508  48.1256873  96.3538166  64.0266983
  35.8263761 108.8670039  57.7086000  36.6638983 109.2767047  57.4919708
  36.0042029 107.9269481  57.6786194  47.7228194 106.5345120  53.3969833
  47.2074817 107.3049724  53.6358220  47.4505502 105.8610256  54.0202894
  45.3075305 101.3794820  58.4555071  44.4516901 100.9901671  58.2760710
  45.7202256 101.4586781  57.5954857  46.8374451  98.9141164  62.8546631
  46.3339247  98.8771299  62.0414436  47.1305058  99.8233906  62.9143288
  43.0817337  98.9979893  61.8612813  43.9470334  98.8022702  61.5018702
  43.1494846  98.7690245  62.7882170  52.6962468 109.2877474  55.3323007
  51.9191910 108.9488634  54.8878169  53.3753949 109.2930097  54.6577972
  47.5114497 104.4072212  55.2229614  47.2064632 104.7218361  56.0739757
  48.4644939 104.4853632  55.2656947  45.9560929 110.5662435  56.8722568
  45.4282290 109.8315195  56.5595806  45.4548431 111.3437111  56.6262537
  50.9353775 108.7611455  61.9889614  50.2777449 109.4510717  62.0769743
  51.7394174 109.1507887  62.3323601  40.6879656 101.2282101  59.2329180
  41.2623408 101.0057283  58.5002373  41.2750639 101.2970796  59.9857781
  49.7459233 107.1155828  60.0393556  50.2591115 107.7485820  60.5415266
  50.3960457 106.5157024  59.6736916  41.0149243 103.2586562  53.2525065
  40.1786556 103.5961249  53.5734340  40.8754013 103.1235542  52.3152202
  42.9902324  98.1023350  57.9604249  42.3366736  97.7872367  57.3360864
  42.9482798  97.4799091  58.6864072  44.1013529 108.3842645  49.8757541
  43.1940591 108.1531899  50.0748690  44.5984561 107.5880265  50.0631523
  47.0081608 117.0940152  52.7954227  46.3343306 117.3971849  53.4039185
  47.3947430 117.8969233  52.4459684  46.2240064 104.5905284  62.2851897
  45.3062626 104.8120231  62.1273585  46.6400208 104.6651594  61.4263604
  47.0075112 105.9896699  57.4154577  47.7546931 106.5018097  57.1061699
  47.2766702 105.6680752  58.2758971  45.2801762 108.4855240  54.3981531
  44.3712981 108.2014273  54.4954001  45.3096846 108.9054319  53.5384838
  50.5121030 112.0961830  58.1672699  50.0583357 111.2552740  58.2237889
  49.8814996 112.7323228  58.5047479  49.4553949 103.0253816  59.3973366
  48.7176706 102.5131202  59.7283609  49.7080723 102.5854197  58.5856643
  48.9553969 113.9338326  59.1022517  49.2476943 114.4943383  58.3834883
  49.4652589 114.2266887  59.8575676  49.5565576  95.8030068  59.9915136
  49.8624453  94.9427431  59.7041051  50.2818181  96.3947688  59.7914129
  35.8489933 106.2060754  58.3796734  35.6514332 105.6130115  57.6547800
  35.2936597 105.9012964  59.0972672  43.8286656 106.0983861  60.4991327
  43.8835266 105.1457697  60.4233803  43.0177858 106.2543300  60.9832625
  44.9777850 110.0263984  51.7369610  44.5397280 109.3099843  51.2775247
  45.7188291 110.2540099  51.1754701  41.7679016 104.7160920  58.2581706
  40.9546882 105.0155091  58.6646898  42.2638010 104.3216609  58.9756188
  43.9187594 114.7118677  60.1915970  43.8763773 114.9379524  59.2624502
  44.8350293 114.4782052  60.3401771  47.3653228 105.1802745  67.0896599
  47.7202616 105.4074218  67.9491065  48.0125359 105.5121122  66.4673855
  53.0950965 108.3021181  57.7945928  52.9568863 108.4922777  56.8667118
  52.7387184 109.0640564  58.2513980  41.2593091 102.2879276  63.8742940
  41.8992470 102.1468035  63.1765904  40.4270621 102.0013789  63.4981542
  53.1220344 110.3697708  62.8057200  53.5556851 110.2772997  63.6540254
  53.8351925 110.3455208  62.1677216  42.0353395 111.5881706  59.9877933
  42.8293993 111.0932027  59.7860508  41.3245087 111.0599570  59.6245639
  46.8548239 113.9699802  64.3390301  46.9085262 114.5390738  65.1068016
  45.9863021 114.1401687  63.9744338  38.3436158 105.7324788  56.0637686
  37.4133746 105.6709244  56.2807648  38.4393630 105.2100741  55.2674327
  38.2621707 102.2579601  58.6515927  38.5228525 103.1724934  58.5425088
  39.0838880 101.7904044  58.8012540  39.7346633 103.6717358  65.8214752
  40.4069686 103.4634720  65.1727401  38.9076419 103.4739444  65.3819984
  53.9835894 110.4121408  65.3390085  54.1771784 111.3167219  65.5849360
  53.8836512 109.9528828  66.1728670  45.6372205 100.2979299  67.8380413
  44.9900120 100.9969249  67.7444889  46.4073220 100.7315443  68.2056661
  49.0451003 110.5628151  70.9130966  48.8936509 110.3338703  69.9961050
  49.0355682 111.5198753  70.9262311  45.8136339 108.1360064  65.8977232
  46.7428399 108.2871224  65.7246200  45.3927369 108.2244085  65.0425879
  44.6124671 112.1610728  63.6675770  44.4735757 111.7929513  64.5401708
  43.8239267 112.6758368  63.4959728  45.2072823 117.2619825  55.0101307
  45.3824578 116.7907868  55.8246929  44.5205611 117.8885591  55.2382567
  46.1629886 111.5392331  61.0564608  45.8279719 111.4993101  61.9522258
  45.6633832 110.8737047  60.5835018  40.1374130 106.9459961  66.5817189
  39.9993928 106.2140200  67.1828728  41.0479053 106.8568861  66.3001377
  49.0989078 108.8848365  51.3301667  48.4818248 108.1595194  51.2334720
  48.6305566 109.6457726  50.9868742  42.7656431 106.6579920  66.0700869
  43.4756049 106.0173113  66.0287487  42.7225739 106.9092815  66.9927049
  50.7543209 113.5947274  68.9907448  50.6955755 112.9106494  68.3238031
  51.1562728 114.3366264  68.5388074  41.4785365 103.6445138  67.8896508
  40.9422722 103.1935877  68.5418104  40.8902073 103.7791047  67.1466972
  40.8887624 103.1033790  50.4522972  40.0117090 102.9822591  50.0885218
  41.3645377 102.3119868  50.2001860  50.7560617 111.5586858  67.2221428
  49.8687395 111.2212780  67.3447826  51.3259168 110.8269889  67.4590193
  32.4089764 107.8910949  60.5464479  33.0960804 107.5772679  59.9585494
  32.2537892 108.7952314  60.2731730  37.2124486 102.7801146  64.9749503
  37.1282675 102.1726816  64.2399913  36.3907192 103.2710164  64.9758999
  44.2861770 116.2188310  64.1882671  44.2131941 117.0243282  64.7001975
  43.8439163 116.4180276  63.3630692  44.0751550 115.4560080  57.6985492
  43.2919071 115.9981760  57.7923717  44.7744295 115.9734060  58.0979733
  47.3848200 101.2654710  60.3419698  47.8816899 100.5124672  60.0220768
  46.6135181 101.3019026  59.7762907  55.2377957 106.9695075  61.9837989
  55.2267833 107.8519791  61.6131922  54.3695337 106.6166626  61.7892526
  46.7460453 116.1175144  66.3440829  47.4588426 116.7522609  66.2716731
  46.2550482 116.2139010  65.5280831  48.4677980 110.0226397  57.9158121
  47.5334259 110.1427859  57.7462825  48.6454649 109.1198864  57.6518131
  43.9683168 103.4072093  60.0691382  43.5980956 102.8543133  60.7572288
  44.4642261 102.8030226  59.5166382  51.8550532 105.8643716  58.4508155
  52.3210984 106.6971708  58.3768458  52.3058032 105.3988698  59.1553414
  41.7972367 113.8669588  67.1646400  42.4981826 114.5006071  67.3175794
  41.3267482 114.2084319  66.4042039  49.9226763 112.2087537  55.4494307
  50.1986607 112.0944132  56.3588181  49.0531262 111.8105022  55.4106480
  49.8267194  98.2324303  62.4899057  48.9130274  98.4628530  62.6581263
  50.2560296  98.3162747  63.3413089  49.5973653 106.4214195  64.9898951
  48.9445103 106.6690102  64.3351403  49.9754033 105.6078333  64.6561428
  46.5580827 116.4573888  59.0927121  46.7403221 115.6395544  59.5554873
  47.3813813 116.6741580  58.6552011  46.8922992 115.3842073  56.3542169
  47.4210759 114.8734528  55.7412331  47.1551212 115.0684604  57.2187702
  45.6461226 107.1634006  71.4764988  44.9701863 107.0628135  72.1467363
  46.4688860 107.0073220  71.9400985  37.3940085 113.4005943  64.0977503
  37.9793522 112.6549631  64.2305407  37.1964924 113.7109899  64.9814167
  40.2478740 116.4357190  59.1139945  39.5789116 116.9203318  58.6303985
  40.1091610 116.6826410  60.0283324  31.9857740 105.9711543  62.8181946
  32.0241839 105.4375134  63.6119064  31.4798033 105.4446748  62.1992923
  44.3884009 118.4700934  65.7122604  44.9402317 118.6332555  66.4771689
  44.7290202 119.0605371  65.0402628  39.3648502 100.8176083  66.3144488
  39.4289829 101.6790914  65.9021886  39.3015622 100.2050085  65.5816847
  38.8400775 102.8899216  69.9617523  39.4672813 102.5076293  70.5755047
  37.9828693 102.6713418  70.3273215  49.2394883 113.2962191  71.5671258
  49.7834787 113.9092149  71.0726213  48.6581728 113.8541769  72.0838271
  35.6166317 104.6975645  55.8935877  35.9119758 103.7886323  55.8402931
  34.7154353 104.6763384  55.5716880  47.5252396 116.4182909  62.6986286
  47.4003536 115.6172649  62.1897231  48.1831487 116.9129102  62.2100256
  39.1460564 102.7731642  61.8763426  38.4247150 103.3867609  61.7370899
  39.9353820 103.3089406  61.7980072  49.5887305 114.2191929  64.3265836
  48.6417640 114.0997280  64.2544163  49.9370078 113.3314427  64.4092097
  41.9486878 100.1086068  68.1504078  42.4721280 100.3548365  68.9130387
  41.7299211 100.9406103  67.7307215  37.3454159 102.3789743  56.0175203
  37.0166865 101.4987122  55.8350308  37.6993530 102.3237411  56.9051592
  46.5933738 114.0144645  60.5270188  46.4458700 113.0861353  60.7077758
  47.4187231 114.0364736  60.0427263  40.4595982 102.6662712  56.3850680
  40.7992055 103.1948634  55.6629289  40.9068103 103.0043119  57.1609247
  50.1967860 114.8373204  61.6135061  51.1214407 114.6316065  61.4759512
  50.0283163 114.5889605  62.5224402  43.1539423 101.0499763  65.8353748
  42.8136243 100.2507576  66.2374428  42.4478429 101.3501474  65.2630581
  43.8055895  98.1349076  64.2881071  44.6281964  97.6609554  64.1659962
  44.0493958  98.9139559  64.7879758  42.4464129 101.1637334  54.5843973
  43.1672492 101.5418587  54.0807690  41.8229433 101.8826211  54.6878951
  46.5895252 101.8682483  55.5202305  46.8058867 102.7507121  55.2191133
  46.1089319 101.4768696  54.7907947  41.3294474 104.8268196  62.0973050
  41.1839054 105.1408499  62.9897331  40.8519677 105.4453097  61.5443949
  43.1890856 101.8170744  62.1453939  43.1752425 100.9211838  61.8086237
  43.9063285 101.8241408  62.7792226  45.0416987 102.2508084  64.1907067
  44.7834765 103.1725155  64.1891397  44.5102027 101.8538519  64.8807531
  49.9863176 115.3558872  56.9697152  50.1600053 114.7905294  56.2171005
  50.4792067 116.1559766  56.7876642  35.8040136 107.3673541  65.0360711
  35.2593604 108.1433349  65.1680985  36.6819486 107.7144345  64.8779833
  42.5927752 100.6985124  57.4141510  42.7143664  99.7701771  57.6132397
  42.3029795 100.7123810  56.5019825  45.4618943  98.3840035  60.5508229
  45.4840640  98.4479368  59.5960209  45.8787002  97.5444544  60.7448736
  55.8402567 108.1195294  58.5887452  56.2833713 107.3702620  58.1906575
  54.9629077 108.1105431  58.2061184  50.9738348 114.6725636  54.0694051
  51.6689253 115.2932329  54.2881365  51.3161499 113.8220987  54.3446428
  36.5906158 106.4943437  67.9290868  35.8487894 106.6426072  68.5155498
  36.2698902 106.7551703  67.0657617  52.8729771 112.1225341  55.5981381
  53.3981096 112.4612614  54.8730701  52.7852124 111.1872357  55.4144516
  44.5349820 116.0359415  67.7271258  44.8436947 115.7908562  68.5993958
  45.3325302 116.2406054  67.2390128  44.5570432 118.1897325  59.9576635
  44.1175423 117.6973703  60.6509491  45.3078549 117.6470292  59.7168710
  37.0362771 114.3808866  59.9601263  37.8620791 114.0812637  59.5799906
  36.6856823 113.6116488  60.4091051  42.0044304 113.7335334  62.0298936
  41.3824314 113.0706039  61.7301164  42.6749171 113.7596466  61.3472584
  35.2371376 112.2995192  60.9190196  34.4003285 111.8717366  60.7374197
  35.2095022 112.4927635  61.8560987  42.0768832 102.2117122  71.6231442
  42.1256987 103.0879245  71.2409212  42.6191346 101.6694515  71.0503085
  52.5623678 112.7558245  70.9032579  51.7719221 112.7382384  70.3637079
  52.3257032 113.2946539  71.6581616  52.6821553 109.6050711  68.2165308
  52.7319558 109.4400719  69.1580831  52.5735476 108.7377971  67.8263189
  41.5657811 112.2839257  55.5057397  41.7145932 112.9674722  54.8524069
  42.3724255 112.2644347  56.0206852  49.9725315 105.5881640  69.5324615
  50.8735178 105.4488104  69.2408612  50.0473290 105.7536094  70.4722792
  44.3068120 102.9648494  68.3777801  43.4371430 103.2582060  68.1060389
  44.5427601 103.5488939  69.0985065  54.1839749 112.0247653  68.4607329
  53.8924558 112.3877634  69.2970790  53.5711881 111.3114661  68.2820661
  55.3835432 109.5900533  60.9809900  56.2182323 110.0290337  61.1447460
  55.5194561 109.1139186  60.1618145  52.4326938 107.1480268  66.9287387
  52.9081059 107.3407914  66.1206239  51.5092503 107.2039453  66.6830771
  39.3210444 108.3104435  56.5118466  39.0756486 107.4066765  56.7098676
  39.4906359 108.3121585  55.5697944  47.0107154  99.1828111  65.8943221
  47.5289098  99.9189138  65.5689710  46.6562287  99.4892104  66.7289980
  38.5906092 104.0432792  54.0104627  37.8975337 104.1177147  53.3544663
  38.3457844 103.2793136  54.5326144  47.2619748  95.6028394  61.4144118
  47.5421502  94.9351583  62.0404544  48.0470355  95.7957489  60.9018782
  45.0653217 114.7787388  52.9769144  44.4927184 115.3977575  52.5239616
  45.6386010 115.3286749  53.5109066  51.1328607 104.0246028  65.1615693
  52.0846030 104.1244125  65.1827917  50.9632057 103.2324296  65.6713777
  49.1542986 101.1101611  65.3475094  48.5592918 101.3906624  64.6521583
  48.8692683 101.5995512  66.1191835  48.2850477 115.0624538  54.1077726
  49.2181150 114.9970099  54.3110602  48.1973689 115.8980805  53.6492259
  50.9138493 114.3790408  51.0681674  50.8352125 114.0450272  51.9617432
  51.7348160 114.8712176  51.0673146  53.6116684 107.2452147  64.2757993
  53.5793005 106.3068148  64.4617676  54.2217308 107.3236184  63.5423817
  45.4500015 106.1148200  50.3185197  46.3959120 105.9854408  50.3873615
  45.0714260 105.3762862  50.7954625  53.7611173 104.0363191  64.3216276
  53.2450222 103.2521647  64.1346205  54.6451121 103.7081907  64.4862795
  51.4221900  97.7804206  60.2812088  51.2246721  97.4719295  61.1655420
  52.0321605  98.5065845  60.4110018  59.4293234 108.3068154  63.4164029
  60.1596623 108.0453442  63.9771733  58.8200180 107.5696876  63.4566097
  57.5108531 106.4476017  64.0138481  56.7841695 106.3131982  63.4054972
  57.0955818 106.7552845  64.8195199  45.3338708 110.1665947  71.7785854
  46.2541717 110.3444546  71.9725900  45.2988291 109.2221992  71.6265553
  43.6342932 104.0398177  50.2540082  42.7274388 103.7431289  50.3302795
  43.9118913 103.7427995  49.3874368  34.5520873 105.3604540  60.7039128
  34.2323657 104.5069848  60.4113502  34.0054301 105.5753118  61.4597096
  38.3300780 108.0766981  64.4208635  38.5486790 109.0084089  64.4396669
  38.7426554 107.7174956  65.2063439  45.2504998  98.5835066  56.4084323
  44.4405727  98.2382151  56.7839569  45.9389415  98.2742610  56.9971935
  47.1795546  97.6613113  58.0308620  47.7326585  98.0808567  58.6898643
  47.4165633  96.7348861  58.0731576  43.2028646 103.6500187  73.8111384
  43.1025373 104.5994544  73.7423475  42.9850188 103.3218426  72.9387454
  42.4041717 100.8985112  50.3952061  43.2660881 101.2240010  50.6547878
  42.5892061 100.1116608  49.8825127  34.4209133 108.9807452  62.6732250
  33.7272604 108.5661404  62.1602204  35.1682124 109.0227988  62.0765669
  50.5574354  99.7713638  57.5387284  49.9773023 100.4298442  57.1565336
  50.2910286  98.9490983  57.1274702  49.0077920  99.1718696  59.7408604
  49.5077698  99.2835231  58.9322923  49.6513528  98.8679749  60.3809413
  43.0659916 107.0797326  72.6276445  42.5826997 107.8797686  72.8340334
  43.1520855 107.0905271  71.6743889  36.3345875 108.9125705  60.5498265
  36.3116563 109.0113393  59.5980148  36.6446512 109.7590856  60.8715431
  38.9933253 110.9701860  64.6644879  39.9476507 110.9385803  64.5974811
  38.7945777 110.5092484  65.4795105  39.5832635 109.5402977  67.2315677
  40.4025524 110.0347055  67.2550514  39.8569443 108.6234945  67.2033244
  49.3399232 101.9313729  56.5943632  48.4525087 102.2163379  56.3763827
  49.7553221 101.7707492  55.7470909  52.6913768 101.9560250  60.3097972
  53.4674158 102.4456702  60.5822588  51.9661902 102.3818304  60.7669841
  55.1286326 102.6687869  61.3671912  55.7230817 102.4283605  60.6565220
  55.2012910 101.9495000  61.9945449  37.3483482 116.5121480  61.6815077
  37.2137950 115.7521881  61.1153075  36.9315544 117.2362380  61.2143866
  48.4842445 111.6958403  50.6891652  49.1878295 111.9008406  51.3049308
  47.7605094 112.2635165  50.9540736  49.3140255 107.4468265  56.8093922
  49.2575457 107.9036816  55.9701555  49.8668598 106.6858949  56.6316765
  53.1245061 103.2357997  57.6344042  52.8681995 102.8354632  58.4652250
  52.4997929 103.9501791  57.5094181  57.4357399 105.9754070  60.1415333
  56.8756957 106.0447259  60.9146895  56.8300902 105.7995054  59.4214830
  40.5052608 117.4090797  61.8933520  40.3884992 118.3536229  61.7912210
  39.6845054 117.1064359  62.2819319  50.3929142 112.1340933  52.7390112
  51.2274746 111.7022131  52.5567587  50.2313485 111.9622946  53.6667007
  50.0475035 108.6373046  54.1046452  49.9923838 108.4717317  53.1634896
  49.4221090 109.3449079  54.2608641  34.8367550 103.8741110  67.9307874
  35.4826413 103.3640064  68.4195099  34.6284701 104.6109792  68.5051299
  47.3620942 110.9421958  73.4300014  48.2312101 111.1162610  73.0686649
  46.8827693 111.7616375  73.3075744  43.3571160  98.1381155  53.6831770
  43.3449830  99.0822995  53.8400041  44.2494582  97.9551300  53.3891231
  41.5307122 118.0619059  65.1089448  42.4334369 118.0942669  65.4255943
  41.3044492 117.1319510  65.1235784  43.2860724 116.8150045  61.7699527
  42.3356355 116.8151907  61.6563899  43.5893210 116.0682780  61.2535561
  47.1723280  94.7323932  57.9377707  46.4055675  94.1782418  58.0834389
  47.5833985  94.8045800  58.7991859  39.1765041 101.0208727  72.0282888
  40.0396502 100.6645532  72.2386213  38.6030451 100.6822622  72.7158292
  59.0213418 122.6510584  62.8345289  59.6591828 122.5317331  62.1308629
  58.9034260 123.5991428  62.8933241  55.8303124 122.6038012  62.7706814
  55.4921635 122.4879077  61.8827349  56.6992892 122.2029177  62.7507820
  56.3122907 123.7572864  68.7293019  56.3011548 123.3625662  67.8573523
  56.4743546 123.0238936  69.3226791  53.5311403 121.3726259  52.1023754
  53.7836924 120.8507781  51.3407217  52.5935962 121.2092405  52.2050438
  58.5754686 120.3762038  59.9098497  59.3617775 119.9581461  59.5588914
  58.8393390 121.2808130  60.0780146  63.9763113 120.3137271  60.8131476
  64.7088285 119.7436488  61.0469305  63.2202469 119.9258871  61.2537981
  55.5939233 122.7364512  58.0094818  55.2297440 122.2095133  58.7207740
  56.4506349 122.3462981  57.8361304  61.4988534 114.0258845  65.2726084
  61.1671858 114.8954256  65.0487299  60.9034147 113.7095129  65.9520115
  55.2344720 117.7654412  53.0056167  55.4019122 118.6334648  53.3726638
  55.0441889 117.9281694  52.0817456  61.3917197 118.7453931  62.3519434
  60.4834074 118.6769340  62.0578195  61.3404793 119.2225876  63.1801260
  55.2133941 120.2212070  53.9902833  55.0933566 120.6669120  54.8288314
  54.5186529 120.5697387  53.4316372  55.4658063 120.1643577  70.2954332
  54.6891397 120.7237497  70.2857196  56.1048626 120.6500360  70.8169202
  63.2578843 116.9470370  64.1297308  62.6153223 117.2402903  63.4837103
  62.7533772 116.8323290  64.9350505  60.9119007 120.6933543  54.8183168
  61.8236863 120.9260929  54.6430865  60.4028654 121.2770587  54.2558246
  59.1959775 125.1158171  68.4544460  59.6043131 124.6740581  67.7099092
  58.4737036 124.5410798  68.7078653  55.5490845 120.0530777  65.8278017
  56.3952040 120.4770191  65.9712666  55.4889482 119.3964402  66.5216580
  58.6990290 117.7135146  67.4859191  58.4551222 118.4677206  66.9493466
  58.9750220 118.0920493  68.3206438  60.6528753 124.2573758  66.1636456
  60.8645648 124.9005518  65.4870837  60.6058501 123.4236075  65.6958386
  58.2554982 116.8691579  63.0673028  57.3939461 117.1672832  63.3589766
  58.2817416 117.0861978  62.1354061  54.0085437 121.5356922  56.2836399
  54.7109480 121.9877965  56.7510326  53.6766066 120.8940741  56.9116292
  52.4565799 120.1268678  70.6587609  51.8264459 120.8084959  70.8923005
  52.3501887 120.0151760  69.7140747  47.7510771 119.7940474  61.5853533
  46.9609825 120.0498003  61.1093643  48.2422018 120.6088812  61.6905573
  49.7025516 120.1585054  58.5437009  48.9056680 120.2703748  59.0620505
  49.4751109 120.4971706  57.6777900  69.8580574 123.4784462  60.6843785
  69.1044282 122.9091860  60.5287790  69.9928115 123.4447126  61.6314420
  51.7346541 114.4289444  73.0212860  51.3413487 113.8755643  73.6960504
  52.5512682 114.7400023  73.4119377  54.6514502 115.8447323  70.6133116
  55.3924216 116.4454476  70.5337579  54.8832425 115.1024961  70.0551159
  49.7955840 121.0303690  68.8911346  49.6809356 120.1288948  69.1918445
  48.9400358 121.2767387  68.5396162  58.5971665 111.8728426  64.8897398
  58.2535935 112.7630068  64.8136508  58.9650628 111.6830084  64.0266983
  58.5621948 121.8637037  53.3969833  58.0468571 122.6341642  53.6358220
  58.2899257 121.1902173  54.0202894  56.1469059 116.7086738  58.4555071
  55.2910655 116.3193588  58.2760710  56.5596011 116.7878699  57.5954857
  57.6768206 114.2433081  62.8546631  57.1733001 114.2063216  62.0414436
  57.9698813 115.1525824  62.9143288  53.9211092 114.3271811  61.8612813
  54.7864088 114.1314620  61.5018702  53.9888601 114.0982163  62.7882170
  63.5356222 124.6169392  55.3323007  62.7585665 124.2780551  54.8878169
  64.2147703 124.6222015  54.6577972  58.3508251 119.7364129  55.2229614
  58.0458387 120.0510279  56.0739757  59.3038693 119.8145549  55.2656947
  61.7747529 124.0903373  61.9889614  61.1171204 124.7802635  62.0769743
  62.5787928 124.4799805  62.3323601  51.5273411 116.5574019  59.2329180
  52.1017163 116.3349200  58.5002373  52.1144393 116.6262713  59.9857781
  60.5852988 122.4447746  60.0393556  61.0984870 123.0777738  60.5415266
  61.2354212 121.8448941  59.6736916  51.8542998 118.5878480  53.2525065
  51.0180310 118.9253167  53.5734340  51.7147767 118.4527460  52.3152202
  53.8296078 113.4315268  57.9604249  53.1760491 113.1164285  57.3360864
  53.7876553 112.8091008  58.6864072  54.9407283 123.7134563  49.8757541
  54.0334345 123.4823816  50.0748690  55.4378315 122.9172182  50.0631523
  57.0633819 119.9197201  62.2851897  56.1456380 120.1412148  62.1273585
  57.4793962 119.9943512  61.4263604  57.8468867 121.3188617  57.4154577
  58.5940685 121.8310014  57.1061699  58.1160456 120.9972670  58.2758971
  56.1195517 123.8147158  54.3981531  55.2106736 123.5306191  54.4954001
  56.1490600 124.2346236  53.5384838  60.2947704 118.3545733  59.3973366
  59.5570460 117.8423120  59.7283609  60.5474477 117.9146115  58.5856643
  60.3959331 111.1321985  59.9915136  60.7018208 110.2719349  59.7041051
  61.1211936 111.7239606  59.7914129  54.6680411 121.4275778  60.4991327
  54.7229021 120.4749615  60.4233803  53.8571613 121.5835217  60.9832625
  52.6072771 120.0452838  58.2581706  51.7940636 120.3447009  58.6646898
  53.1031765 119.6508527  58.9756188  58.2046982 120.5094663  67.0896599
  58.5596370 120.7366136  67.9491065  58.8519114 120.8413039  66.4673855
  63.9344719 123.6313099  57.7945928  63.7962618 123.8214694  56.8667118
  63.5780938 124.3932481  58.2513980  52.0986845 117.6171194  63.8742940
  52.7386225 117.4759953  63.1765904  51.2664376 117.3305707  63.4981542
  63.9614099 125.6989626  62.8057200  64.3950606 125.6064915  63.6540254
  64.6745680 125.6747126  62.1677216  49.1829913 121.0616706  56.0637686
  48.2527501 121.0001161  56.2807648  49.2787385 120.5392659  55.2674327
  49.1015462 117.5871519  58.6515927  49.3622279 118.5016852  58.5425088
  49.9232634 117.1195961  58.8012540  50.5740387 119.0009276  65.8214752
  51.2463441 118.7926638  65.1727401  49.7470174 118.8031362  65.3819984
  64.8229648 125.7413326  65.3390085  65.0165539 126.6459137  65.5849360
  64.7230267 125.2820745  66.1728670  56.4765959 115.6271217  67.8380413
  55.8293874 116.3261166  67.7444889  57.2466975 116.0607361  68.2056661
  56.6530094 123.4651982  65.8977232  57.5822154 123.6163141  65.7246200
  56.2321124 123.5536002  65.0425879  50.9767884 122.2751879  66.5817189
  50.8387682 121.5432118  67.1828728  51.8872808 122.1860779  66.3001377
  59.9382832 124.2140283  51.3301667  59.3212003 123.4887111  51.2334720
  59.4699321 124.9749643  50.9868742  53.6050185 121.9871838  66.0700869
  54.3149804 121.3465030  66.0287487  53.5619493 122.2384733  66.9927049
  52.3179119 118.9737056  67.8896508  51.7816476 118.5227794  68.5418104
  51.7295828 119.1082965  67.1466972  51.7281378 118.4325707  50.4522972
  50.8510844 118.3114508  50.0885218  52.2039131 117.6411786  50.2001860
  48.0518240 118.1093064  64.9749503  47.9676429 117.5018733  64.2399913
  47.2300947 118.6002082  64.9758999  58.2241954 116.5946627  60.3419698
  58.7210654 115.8416590  60.0220768  57.4528936 116.6310944  59.7762907
  66.0771712 122.2986993  61.9837989  66.0661588 123.1811708  61.6131922
  65.2089091 121.9458544  61.7892526  54.8076923 118.7364010  60.0691382
  54.4374710 118.1835051  60.7572288  55.3036015 118.1322144  59.5166382
  62.6944286 121.1935634  58.4508155  63.1604738 122.0263625  58.3768458
  63.1451787 120.7280615  59.1553414  60.6660949 113.5616221  62.4899057
  59.7524029 113.7920448  62.6581263  61.0954050 113.6454665  63.3413089
  60.4367407 121.7506113  64.9898951  59.7838858 121.9982020  64.3351403
  60.8147787 120.9370251  64.6561428  56.4854980 122.4925924  71.4764988
  55.8095617 122.3920053  72.1467363  57.3082614 122.3365137  71.9400985
  50.2042257 116.1468001  66.3144488  50.2683583 117.0082832  65.9021886
  50.1409377 115.5342003  65.5816847  49.6794529 118.2191134  69.9617523
  50.3066568 117.8368211  70.5755047  48.8222448 118.0005335  70.3273215
  46.4560072 120.0267563  55.8935877  46.7513513 119.1178241  55.8402931
  45.5548108 120.0055302  55.5716880  49.9854319 118.1023559  61.8763426
  49.2640905 118.7159527  61.7370899  50.7747575 118.6381324  61.7980072
  52.7880632 115.4377986  68.1504078  53.3115034 115.6840282  68.9130387
  52.5692966 116.2698021  67.7307215  48.1847913 117.7081660  56.0175203
  47.8560620 116.8279039  55.8350308  48.5387284 117.6529329  56.9051592
  51.2989737 117.9954630  56.3850680  51.6385809 118.5240551  55.6629289
  51.7461857 118.3335036  57.1609247  53.9933177 116.3791681  65.8353748
  53.6529998 115.5799494  66.2374428  53.2872184 116.6793392  65.2630581
  54.6449649 113.4640993  64.2881071  55.4675719 112.9901471  64.1659962
  54.8887713 114.2431477  64.7879758  53.2857884 116.4929252  54.5843973
  54.0066246 116.8710504  54.0807690  52.6623188 117.2118129  54.6878951
  57.4289007 117.1974401  55.5202305  57.6452621 118.0799039  55.2191133
  56.9483074 116.8060614  54.7907947  52.1688228 120.1560114  62.0973050
  52.0232809 120.4700417  62.9897331  51.6913432 120.7745014  61.5443949
  54.0284611 117.1462662  62.1453939  54.0146180 116.2503755  61.8086237
  54.7457039 117.1533326  62.7792226  55.8810742 117.5800002  64.1907067
  55.6228519 118.5017073  64.1891397  55.3495782 117.1830437  64.8807531
  53.4321507 116.0277042  57.4141510  53.5537418 115.0993688  57.6132397
  53.1423549 116.0415728  56.5019825  56.3012697 113.7131953  60.5508229
  56.3234394 113.7771286  59.5960209  56.7180756 112.8736461  60.7448736
  66.6796322 123.4487212  58.5887452  67.1227468 122.6994537  58.1906575
  65.8022832 123.4397349  58.2061184  52.9162586 117.5409040  71.6231442
  52.9650742 118.4171162  71.2409212  53.4585101 116.9986433  71.0503085
  63.5215307 124.9342629  68.2165308  63.5713312 124.7692637  69.1580831
  63.4129230 124.0669888  67.8263189  60.8119069 120.9173557  69.5324615
  61.7128932 120.7780022  69.2408612  60.8867044 121.0828012  70.4722792
  55.1461875 118.2940412  68.3777801  54.2765184 118.5873978  68.1060389
  55.3821355 118.8780857  69.0985065  66.2229186 124.9192450  60.9809900
  67.0576078 125.3582255  61.1447460  66.3588315 124.4431104  60.1618145
  63.2720692 122.4772185  66.9287387  63.7474814 122.6699832  66.1206239
  62.3486258 122.5331371  66.6830771  57.8500909 114.5120029  65.8943221
  58.3682853 115.2481056  65.5689710  57.4956041 114.8184022  66.7289980
  49.4299846 119.3724710  54.0104627  48.7369091 119.4469065  53.3544663
  49.1851598 118.6085054  54.5326144  58.1013503 110.9320311  61.4144118
  58.3815257 110.2643500  62.0404544  58.8864110 111.1249407  60.9018782
  61.9722361 119.3537945  65.1615693  62.9239784 119.4536043  65.1827917
  61.8025812 118.5616214  65.6713777  59.9936741 116.4393529  65.3475094
  59.3986673 116.7198541  64.6521583  59.7086437 116.9287430  66.1191835
  64.4510439 122.5744065  64.2757993  64.4186759 121.6360066  64.4617676
  65.0611063 122.6528102  63.5423817  56.2893770 121.4440118  50.3185197
  57.2352875 121.3146326  50.3873615  55.9108015 120.7054780  50.7954625
  64.6004927 119.3655109  64.3216276  64.0843976 118.5813565  64.1346205
  65.4844876 119.0373825  64.4862795  62.2615654 113.1096124  60.2812088
  62.0640475 112.8011212  61.1655420  62.8715360 113.8357763  60.4110018
  70.2686989 123.6360072  63.4164029  70.9990377 123.3745360  63.9771733
  69.6593934 122.8988794  63.4566097  68.3502286 121.7767935  64.0138481
  67.6235450 121.6423899  63.4054972  67.9349573 122.0844763  64.8195199
  54.4736687 119.3690094  50.2540082  53.5668142 119.0723207  50.3302795
  54.7512668 119.0719913  49.3874368  56.0898753 113.9126984  56.4084323
  55.2799481 113.5674069  56.7839569  56.7783170 113.6034528  56.9971935
  58.0189301 112.9905031  58.0308620  58.5720340 113.4100484  58.6898643
  58.2559387 112.0640779  58.0731576  54.0422400 118.9792105  73.8111384
  53.9419127 119.9286462  73.7423475  53.8243942 118.6510344  72.9387454
  53.2435472 116.2277030  50.3952061  54.1054636 116.5531928  50.6547878
  53.4285816 115.4408526  49.8825127  61.3968108 115.1005556  57.5387284
  60.8166777 115.7590360  57.1565336  61.1304041 114.2782901  57.1274702
  59.8471674 114.5010614  59.7408604  60.3471453 114.6127148  58.9322923
  60.4907282 114.1971667  60.3809413  53.9053670 122.4089243  72.6276445
  53.4220752 123.2089604  72.8340334  53.9914609 122.4197188  71.6743889
  60.1792986 117.2605647  56.5943632  59.2918841 117.5455297  56.3763827
  60.5946975 117.0999410  55.7470909  63.5307522 117.2852167  60.3097972
  64.3067912 117.7748620  60.5822588  62.8055656 117.7110222  60.7669841
  65.9680081 117.9979787  61.3671912  66.5624572 117.7575523  60.6565220
  66.0406665 117.2786917  61.9945449  60.1534010 122.7760182  56.8093922
  60.0969211 123.2328734  55.9701555  60.7062352 122.0150867  56.6316765
  63.9638816 118.5649914  57.6344042  63.7075750 118.1646550  58.4652250
  63.3391684 119.2793708  57.5094181  68.2751154 121.3045988  60.1415333
  67.7150712 121.3739177  60.9146895  67.6694657 121.1286972  59.4214830
  60.8868789 123.9664964  54.1046452  60.8317593 123.8009235  53.1634896
  60.2614844 124.6740997  54.2608641  45.6761304 119.2033028  67.9307874
  46.3220168 118.6931982  68.4195099  45.4678455 119.9401710  68.5051299
  54.1964915 113.4673073  53.6831770  54.1843584 114.4114913  53.8400041
  55.0888336 113.2843218  53.3891231  58.0117034 110.0615849  57.9377707
  57.2449430 109.5074336  58.0834389  58.4227739 110.1337718  58.7991859
  50.0158795 116.3500645  72.0282888  50.8790257 115.9937450  72.2386213
  49.4424206 116.0114540  72.7158292  69.4365420 127.2020344  64.8897398
  69.0929689 128.0921986  64.8136508  69.8044382 127.0122001  64.0266983
  71.2353085 126.4613903  59.9915136  71.5411962 125.6011266  59.7041051
  71.9605690 127.0531523  59.7914129  71.5054703 128.8908138  62.4899057
  70.5917783 129.1212365  62.6581263  71.9347805 128.9746582  63.3413089
  68.9407257 126.2612229  61.4144118  69.2209011 125.5935418  62.0404544
  69.7257864 126.4541325  60.9018782  73.1009409 128.4388042  60.2812088
  72.9034230 128.1303130  61.1655420  73.7109114 129.1649681  60.4110018
  68.8583055 128.3196949  58.0308620  69.4114094 128.7392402  58.6898643
  69.0953142 127.3932697  58.0731576  68.8510789 125.3907767  57.9377707
  68.0843184 124.8366254  58.0834389  69.2621494 125.4629636  58.7991859
   4.8244646  23.0113118  49.5590596   5.4623056  22.8919865  48.8553936
   4.7065489  23.9593962  49.6178548   1.6334353  22.9640546  49.4952120
   1.2952864  22.8481611  48.6072655   2.5024121  22.5631711  49.4753127
   2.1154136  24.1175398  55.4538326   2.1042776  23.7228196  54.5818830
   2.2774775  23.3841470  56.0472097   3.0720727  28.4846990  40.7963476
   2.4208707  29.0701071  40.4097490   3.8665090  29.0153185  40.8558514
   4.3785915  20.7364572  46.6343804   5.1649004  20.3183995  46.2834221
   4.6424619  21.6410664  46.8025452   4.5495992  26.1737422  41.3332461
   3.9141825  26.2472049  42.0453365   4.2193399  26.7631021  40.6551540
   9.7794342  20.6739805  47.5376782  10.5119514  20.1039022  47.7714612
   9.0233698  20.2861406  47.9783288   1.3970462  23.0967047  44.7340125
   1.0328669  22.5697668  45.4453046   2.2537578  22.7065516  44.5606610
   7.3019762  14.3861379  51.9971391   6.9703087  15.2556790  51.7732606
   6.7065376  14.0697663  52.6765421   1.0375949  18.1256946  39.7301473
   1.2050351  18.9937183  40.0971944   0.8473118  18.2884228  38.8062763
   3.7951282  26.5873925  51.3967304   3.4952005  27.4898964  51.2883111
   3.4502341  26.3206108  52.2488457   7.1948426  19.1056465  49.0764741
   6.2865303  19.0371874  48.7823502   7.1436021  19.5828410  49.9046566
   1.2689291  20.5246111  57.0199638   0.4922625  21.0840031  57.0102503
   1.9079854  21.0102894  57.5414508   9.0610072  17.3072904  50.8542615
   8.4184452  17.6005437  50.2082409   8.5565001  17.1925824  51.6595812
   6.7150236  21.0536077  41.5428474   7.6268092  21.2863464  41.3676172
   6.2059883  21.6373121  40.9803553   4.9991003  25.4760705  55.1789767
   5.4074359  25.0343115  54.4344399   4.2768265  24.9013332  55.4323960
   1.3522073  20.4133312  52.5523324   2.1983269  20.8372725  52.6957973
   1.2920711  19.7566936  53.2461887   5.3219818  26.0361895  48.9342056
   4.6928680  26.2007610  48.2318123   4.9345480  26.4503505  49.7053020
   9.2009050  26.9716333  46.2886419   8.5160088  27.3515235  45.7383453
   9.2852899  27.5811660  47.0218367   4.5021519  18.0737680  54.2104497
   4.2582451  18.8279740  53.6738773   4.7781449  18.4523028  55.0451744
   6.4559982  24.6176292  52.8881763   6.6676877  25.2608052  52.2116144
   6.4089730  23.7838609  52.4203693   4.0586210  17.2294113  49.7918335
   3.1970690  17.5275366  50.0835073   4.0848645  17.4464512  48.8599368
   0.8747780  25.7736303  46.1992141   1.3386125  26.0524006  45.4096763
   0.6104578  24.8719748  46.0165231   7.5705809  27.4948248  51.0604120
   8.3923253  27.0928435  50.7786802   7.5668212  27.3916482  52.0120236
   1.3362413  27.0432291  53.2164831   1.4006845  27.5052698  54.0523003
   0.6273337  26.4129656  53.3447141  15.6611803  23.8386996  47.4089092
  14.9075511  23.2694394  47.2533096  15.7959344  23.8049661  48.3559726
   1.0510431  28.7100398  43.0843811   0.9156105  29.5551934  43.5128659
   1.5920243  28.9119676  42.3209745   2.6778907  29.3323965  57.2144153
   2.2342761  28.5460344  56.8965058   3.3396121  29.5203115  56.5488044
   4.7760145  29.6126765  55.2425554   4.7578620  30.4335646  54.7505824
   5.6980065  29.4880840  55.4675696   1.2333199  27.1270894  56.0849063
   1.7661536  26.3659183  55.8548371   0.7047280  26.8344546  56.8273217
   4.3653177  22.2239571  40.1215140   3.8499800  22.9944176  40.3603527
   4.0930485  21.5504708  40.7448201   9.3387451  24.9771926  42.0568313
   8.5616894  24.6383086  41.6123475  10.0178932  24.9824549  41.3823278
   4.1539480  20.0966664  41.9474921   3.8489616  20.4112813  42.7985064
   5.1069922  20.1748083  41.9902254   2.5985912  26.2556887  43.5967875
   2.0707273  25.5209646  43.2841112   2.0973415  27.0331563  43.3507843
   7.5778758  24.4505907  48.7134921   6.9202432  25.1405169  48.8015050
   8.3819157  24.8402339  49.0568907   6.3884217  22.8050280  46.7638863
   6.9016098  23.4380272  47.2660573   7.0385441  22.2051476  46.3982223
   3.6506591  32.7834604  39.5199534   2.9768290  33.0866301  40.1284492
   4.0372413  33.5863685  39.1704991   2.8665048  20.2799736  49.0097203
   1.9487609  20.5014683  48.8518891   3.2825191  20.3546046  48.1508911
   3.6500095  21.6791151  44.1399884   4.3971914  22.1912549  43.8307006
   3.9191685  21.3575204  45.0004277   1.9226746  24.1749692  41.1226838
   1.0137965  23.8908725  41.2199308   1.9521829  24.5948771  40.2630145
   7.1546013  27.7856282  44.8918006   6.7008340  26.9447191  44.9483196
   6.5239980  28.4217680  45.2292786   6.0978932  18.7148268  46.1218673
   5.3601689  18.2025654  46.4528916   6.3505706  18.2748649  45.3101950
   5.5978952  29.6232778  45.8267824   5.8901927  30.1837835  45.1080189
   6.1077573  29.9161339  46.5820983   1.6202833  25.7158436  38.4614917
   1.1822263  24.9994295  38.0020554   2.3613274  25.9434551  37.9000008
   0.5612577  30.4013129  46.9161277   0.5188756  30.6273976  45.9869809
   1.4775276  30.1676504  47.0647078   4.0078211  20.8697197  53.8141906
   4.3627599  21.0968670  54.6736372   4.6550342  21.2015574  53.1919161
   9.7375948  23.9915633  44.5191235   9.5993847  24.1817229  43.5912424
   9.3812167  24.7535016  44.9759286   9.7645328  26.0592160  49.5302507
  10.1981834  25.9667449  50.3785561  10.4776908  26.0349660  48.8922523
   3.4973223  29.6594254  51.0635607   3.5510245  30.2285190  51.8313323
   2.6288004  29.8296139  50.6989644  10.6260877  26.1015860  52.0635392
  10.8196767  27.0061671  52.3094667  10.5261495  25.6423279  52.8973977
   5.6875986  26.2522603  57.6376273   5.5361492  26.0233155  56.7206356
   5.6780665  27.2093205  57.6507618   2.4561322  23.8254516  52.6222539
   3.3853382  23.9765675  52.4491506   2.0352352  23.9138537  51.7671186
   1.8497806  32.9514277  41.7346613   2.0249562  32.4802320  42.5492236
   1.1630594  33.5780043  41.9627874   2.8054869  27.2286783  47.7809914
   2.4704702  27.1887553  48.6767564   2.3058815  26.5631499  47.3080325
   5.7414061  24.5742817  38.0546974   5.1243232  23.8489645  37.9580027
   5.2730549  25.3352178  37.7114048   7.3968193  29.2841726  55.7152754
   7.3380739  28.6000946  55.0483337   7.7987711  30.0260716  55.2633380
   7.3985600  27.2481310  53.9466734   6.5112379  26.9107231  54.0693133
   7.9684151  26.5164341  54.1835500   0.9286753  31.9082762  50.9127977
   0.8556925  32.7137733  51.4247282   0.4864146  32.1074728  50.0875999
   4.0273183  16.9549161  47.0665004   4.5241883  16.2019124  46.7466075
   3.2560164  16.9913478  46.5008214  11.8802940  22.6589527  48.7083296
  11.8692817  23.5414242  48.3377229  11.0120320  22.3061078  48.5137833
   3.3885437  31.8069596  53.0686136   4.1013409  32.4417061  52.9962037
   2.8975465  31.9033462  52.2526138   5.1102964  25.7120849  44.6403428
   4.1759242  25.8322311  44.4708132   5.2879632  24.8093315  44.3763438
   8.4975515  21.5538168  45.1753462   8.9635967  22.3866160  45.1013764
   8.9483016  21.0883150  45.8798720   6.5651746  27.8981989  42.1739614
   6.8411590  27.7838584  43.0833488   5.6956245  27.4999474  42.1351787
   6.2398636  22.1108647  51.7144257   5.5870087  22.3584554  51.0596710
   6.6179016  21.2972785  51.3806734   3.2005810  32.1468340  45.8172427
   3.3828205  31.3289996  46.2800180   4.0238796  32.3636032  45.3797317
   3.5347976  31.0736525  43.0787476   4.0635742  30.5628980  42.4657638
   3.7976195  30.7579055  43.9433009   2.2886209  22.8528458  58.2010294
   1.6126846  22.7522587  58.8712669   3.1113843  22.6967672  58.6646291
   1.0308992  34.1595385  52.4367910   1.5827300  34.3227007  53.2016995
   1.3715186  34.7499823  51.7647935   5.8819866  28.9856643  58.2916565
   6.4259770  29.5986601  57.7971519   5.3006711  29.5436221  58.8083578
   4.1677379  32.1077361  49.4231592   4.0428519  31.3067101  48.9142538
   4.8256471  32.6023554  48.9345562   6.2312288  29.9086381  51.0511143
   5.2842623  29.7891732  50.9789469   6.5795061  29.0208879  51.1337404
   3.2358721  29.7039097  47.2515495   3.0883684  28.7755805  47.4323065
   4.0612215  29.7259188  46.7672570   6.8392843  30.5267656  48.3380367
   7.7639390  30.3210517  48.2004819   6.6708146  30.2784057  49.2469709
   3.2320235  17.5576935  42.2447612   3.4483850  18.4401573  41.9436440
   2.7514303  17.1663148  41.5153254   6.6288159  31.0453323  43.6942459
   6.8025037  30.4799746  42.9416311   7.1217050  31.8454218  43.5121949
  12.4827550  23.8089746  45.3132759  12.9258696  23.0597072  44.9151882
  11.6054061  23.7999883  44.9306491   7.6163332  30.3620088  40.7939357
   8.3114236  30.9826781  41.0126672   7.9586482  29.5115439  41.0691735
   9.5154755  27.8119793  42.3226688  10.0406079  28.1507066  41.5976008
   9.4277107  26.8766809  42.1389823   1.1774803  31.7253867  54.4516565
   1.4861930  31.4803014  55.3239264   1.9750286  31.9300505  53.9635435
   1.1995416  33.8791777  46.6821941   0.7600406  33.3868155  47.3754798
   1.9503532  33.3364744  46.4414016   9.2048661  28.4452697  57.6277886
   8.4144205  28.4276836  57.0882385   8.9682015  28.9840991  58.3826923
   9.3246536  25.2945163  54.9410614   9.3744541  25.1295171  55.8826137
   9.2160459  24.4272422  54.5508495   6.6150298  21.2776091  56.2569921
   7.5160161  21.1382556  55.9653919   6.6898273  21.4430546  57.1968099
  10.8264733  27.7142105  55.1852636  10.5349541  28.0772085  56.0216097
  10.2136864  27.0009113  55.0065968  12.0260415  25.2794985  47.7055206
  12.8607306  25.7184789  47.8692767  12.1619544  24.8033638  46.8863452
   9.0751921  22.8374720  53.6532694   9.5506043  23.0302366  52.8451545
   8.1517486  22.8933905  53.4076078   1.7078200  30.4681840  39.7014451
   1.1352167  31.0872027  39.2484923   2.2810994  31.0181201  40.2354373
   7.7753590  19.7140480  51.8861000   8.7271013  19.8138577  51.9073224
   7.6057040  18.9218748  52.3959084   5.7967969  16.7996063  52.0720401
   5.2017902  17.0801076  51.3766889   5.5117666  17.2889964  52.8437142
   4.9275460  30.7518990  40.8323033   5.8606133  30.6864551  41.0355909
   4.8398673  31.5875256  40.3737566   7.5563477  30.0684860  37.7926981
   7.4777108  29.7344724  38.6862739   8.3773143  30.5606628  37.7918453
  10.2541668  22.9346599  51.0003299  10.2217988  21.9962600  51.1862983
  10.8642291  23.0130636  50.2669124   2.0924999  21.8042652  37.0430503
   3.0384103  21.6748860  37.1118921   1.7139244  21.0657314  37.5199931
  10.4036156  19.7257643  51.0461582   9.8875205  18.9416099  50.8591511
  11.2876105  19.3976359  51.2108102   8.0646883  13.4698658  47.0057395
   7.8671704  13.1613746  47.8900727   8.6746589  14.1960297  47.1355325
  16.0718218  23.9962606  50.1409336  16.8021606  23.7347894  50.7017039
  15.4625163  23.2591328  50.1811404  14.1533515  22.1370469  50.7383787
  13.4266678  22.0026434  50.1300279  13.7380802  22.4447297  51.5440505
   1.9763691  25.8560398  58.5031160   2.8966701  26.0338997  58.6971207
   1.9413274  24.9116444  58.3510860   7.1999337  15.4608090  44.2632591
   6.6198006  16.1192894  43.8810643   6.9335270  14.6385435  43.8520008
   5.6502903  14.8613148  46.4653911   6.1502682  14.9729683  45.6568230
   6.2938511  14.5574201  47.1054719   5.9824215  17.6208181  43.3188939
   5.0950070  17.9057831  43.1009134   6.3978204  17.4601944  42.4716216
   9.3338751  17.6454702  47.0343278  10.1099141  18.1351154  47.3067895
   8.6086885  18.0712756  47.4915148  11.7711310  18.3582321  48.0917219
  12.3655800  18.1178057  47.3810527  11.8437893  17.6389451  48.7190755
   5.1267428  27.3852855  37.4136959   5.8303278  27.5902858  38.0294615
   4.4030077  27.9529617  37.6786042   5.9565239  23.1362717  43.5339229
   5.9000440  23.5931268  42.6946862   6.5093581  22.3753401  43.3562072
   9.7670045  18.9252449  44.3589349   9.5106979  18.5249084  45.1897556
   9.1422913  19.6396242  44.2339488  14.0782382  21.6648522  46.8660640
  13.5181940  21.7341711  47.6392202  13.4725886  21.4889506  46.1460136
   7.0354126  27.8235385  39.4635419   7.8699730  27.3916583  39.2812894
   6.8738469  27.6517398  40.3912314   6.6900018  24.3267498  40.8291758
   6.6348822  24.1611769  39.8880202   6.0646073  25.0343531  40.9853948
   4.0045925  26.6316410  60.1545321   4.8737085  26.8057062  59.7931956
   3.5252677  27.4510827  60.0321050  15.6638401  38.3405036  49.5590596
  16.3016811  38.2211783  48.8553936  15.5459244  39.2885880  49.6178548
  12.4728107  38.2932464  49.4952120  12.1346619  38.1773529  48.6072655
  13.3417875  37.8923629  49.4753127   8.3314923  40.1467940  45.4849011
   7.7679788  40.0557877  44.7165299   8.2167318  39.3267845  45.9651504
  12.9547890  39.4467316  55.4538326  12.9436531  39.0520114  54.5818830
  13.1168530  38.7133388  56.0472097   5.8779355  41.6419132  48.3233232
   6.6700647  41.3009956  47.9079531   6.1176005  41.7514107  49.2435385
  13.9114482  43.8138908  40.7963476  13.2602461  44.3992988  40.4097490
  14.7058844  44.3445103  40.8558514   7.8370109  40.9028045  41.1950611
   8.6100985  40.3557032  41.0563486   8.1895508  41.7672294  41.4065072
   9.6755151  42.2304427  54.4017510   9.3845017  43.1350058  54.2864176
  10.3112136  42.2720955  55.1161580  10.6011358  39.6081276  50.9918870
  11.1974930  39.3837298  50.2775833  10.6586330  38.8666021  51.5944317
  10.1736387  37.0620711  38.8269061  10.4261907  36.5402232  38.0652524
   9.2360946  36.8986857  38.9295744  15.2179669  36.0656490  46.6343804
  16.0042759  35.6475913  46.2834221  15.4818374  36.9702582  46.8025452
  15.3889747  41.5029340  41.3332461  14.7535580  41.5763966  42.0453365
  15.0587153  42.0922939  40.6551540  20.6188096  36.0031723  47.5376782
  21.3513268  35.4330940  47.7714612  19.8627452  35.6153323  47.9783288
   9.8932675  38.9648817  41.0293436   9.7768933  38.2893721  41.6974520
  10.0034935  38.4781191  40.2125589  12.2364216  38.4258964  44.7340125
  11.8722423  37.8989585  45.4453046  13.0931332  38.0357433  44.5606610
  18.1413517  29.7153297  51.9971391  17.8096842  30.5848708  51.7732606
  17.5459130  29.3989581  52.6765421  11.8769703  33.4548864  39.7301473
  12.0444106  34.3229100  40.0971944  11.6866872  33.6176146  38.8062763
  14.6345036  41.9165843  51.3967304  14.3345759  42.8190882  51.2883111
  14.2896096  41.6498026  52.2488457   8.0857518  38.3679640  47.4304008
   7.1608014  38.2355854  47.6381700   8.3341931  39.1473859  47.9273950
  18.0342180  34.4348383  49.0764741  17.1259057  34.3663791  48.7823502
  17.9829776  34.9120328  49.9046566  11.8558924  35.9106521  40.7148140
  11.7358549  36.3563572  41.5533620  11.1611512  36.2591839  40.1561678
   5.4466329  38.0112913  48.2647797   5.5758710  38.2647392  49.1787209
   4.7663780  38.6040621  47.9452452   9.6165816  48.6810163  44.3638271
   9.5389846  49.6317988  44.4426752   9.0127460  48.3356036  45.0213198
  12.1083046  35.8538029  57.0199638  11.3316380  36.4131949  57.0102503
  12.7473609  36.3394812  57.5414508  19.9003827  32.6364821  50.8542615
  19.2578207  32.9297355  50.2082409  19.3958755  32.5217742  51.6595812
  17.5543990  36.3827995  41.5428474  18.4661846  36.6155381  41.3676172
  17.0453637  36.9665039  40.9803553  10.3629418  38.6623482  56.5817605
  11.1044103  39.2008526  56.3052429   9.6566404  39.2889771  56.7389157
  15.8384758  40.8052622  55.1789767  16.2468114  40.3635033  54.4344399
  15.1162019  40.2305250  55.4323960  12.1915828  35.7425229  52.5523324
  13.0377023  36.1664643  52.6957973  12.1314466  35.0858854  53.2461887
  16.1613573  41.3653813  48.9342056  15.5322435  41.5299527  48.2318123
  15.7739235  41.7795423  49.7053020  20.0402804  42.3008251  46.2886419
  19.3553843  42.6807152  45.7383453  20.1246654  42.9103578  47.0218367
  15.3415273  33.4029598  54.2104497  15.0976205  34.1571658  53.6738773
  15.6175204  33.7814945  55.0451744  17.2953736  39.9468210  52.8881763
  17.5070631  40.5899970  52.2116144  17.2483484  39.1130527  52.4203693
  14.8979965  32.5586031  49.7918335  14.0364444  32.8567284  50.0835073
  14.9242400  32.7756429  48.8599368  11.7141534  41.1028221  46.1992141
  12.1779880  41.3815924  45.4096763  11.4498332  40.2011666  46.0165231
   8.6065615  40.6499703  49.1371904   9.1766973  41.0786971  48.4989388
   9.1973727  40.3682287  49.8356090  10.6510420  37.2251374  43.0081706
  11.3534464  37.6772417  43.4755632  10.3191049  36.5835192  43.6361599
   9.0990782  35.8163130  57.3832915   8.4689443  36.4979411  57.6168312
   8.9926870  35.7046212  56.4386054   4.3935754  35.4834926  48.3098839
   3.6034808  35.7392455  47.8338950   4.8847002  36.2983264  48.4150880
  18.4099564  42.8240165  51.0604120  19.2317008  42.4220353  50.7786802
  18.4061967  42.7208400  52.0120236   6.3450500  35.8479505  45.2682316
   5.5481663  35.9598200  45.7865812   6.1176092  36.1866158  44.4023207
  12.1756167  42.3724209  53.2164831  12.2400600  42.8344616  54.0523003
  11.4667091  41.7421574  53.3447141   2.6773457  35.7365417  50.7413830
   2.9281496  36.6212427  51.0071406   3.2133006  35.5570018  49.9688922
  26.5005557  39.1678914  47.4089092  25.7469265  38.5986312  47.2533096
  26.6353098  39.1341578  48.3559726  11.8904185  44.0392316  43.0843811
  11.7549860  44.8843852  43.5128659  12.4313998  44.2411594  42.3209745
   8.3771525  30.1183896  59.7458166   7.9838470  29.5650095  60.4205811
   9.1937665  30.4294474  60.1364684   5.3433582  41.5567754  43.6571736
   5.8558103  42.3511004  43.8077301   5.9956295  40.8594045  43.5905338
   7.1528467  44.6733510  45.7394489   7.3295095  45.5951475  45.5515473
   7.9485301  44.3591930  46.1688869  11.2939486  31.5341775  57.3378423
  12.0349199  32.1348928  57.2582885  11.5257409  30.7919413  56.7796465
   6.4380824  36.7198142  55.6156653   6.3234339  35.8183400  55.9163751
   5.5825341  36.9661839  55.2641469  13.5172661  44.6615883  57.2144153
  13.0736516  43.8752261  56.8965058  14.1789875  44.8495033  56.5488044
   8.2759783  46.1911684  51.7404832   8.8267208  46.0628748  50.9681826
   7.4371259  46.4906573  51.3899724  15.6153900  44.9418683  55.2425554
  15.5972375  45.7627564  54.7505824  16.5373820  44.8172758  55.4675696
  12.0726954  42.4562812  56.0849063  12.6055290  41.6951100  55.8548371
  11.5441035  42.1636464  56.8273217  15.2396649  27.5622878  51.6142705
  14.8960918  28.4524520  51.5381815  15.6075611  27.3724536  50.7512290
   3.3082499  39.8856408  44.4331307   4.1457721  40.2953417  44.2165014
   3.4860767  38.9455851  44.4031501  15.2046931  37.5531489  40.1215140
  14.6893555  38.3236094  40.3603527  14.9324240  36.8796625  40.7448201
  12.7894042  32.3981190  45.1800378  11.9335639  32.0088040  45.0006017
  13.2020994  32.4773151  44.3200164  14.3193189  29.9327533  49.5791938
  13.8157985  29.8957668  48.7659743  14.6123796  30.8420276  49.6388594
  10.5636075  30.0166263  48.5858120  11.4289072  29.8209072  48.2264009
  10.6313584  29.7876615  49.5127476  20.1781205  40.3063844  42.0568313
  19.4010648  39.9675003  41.6123475  20.8572686  40.3116467  41.3823278
  14.9933235  35.4258581  41.9474921  14.6883370  35.7404730  42.7985064
  15.9463677  35.5040001  41.9902254  13.4379666  41.5848805  43.5967875
  12.9101028  40.8501564  43.2841112  12.9367169  42.3623481  43.3507843
  18.4172512  39.7797825  48.7134921  17.7596187  40.4697086  48.8015050
  19.2212912  40.1694257  49.0568907   8.1698394  32.2468471  45.9574486
   8.7442146  32.0243652  45.2247679   8.7569376  32.3157165  46.7103088
  17.2277971  38.1342198  46.7638863  17.7409853  38.7672190  47.2660573
  17.8779195  37.5343393  46.3982223   8.4967981  34.2772932  39.9770372
   7.6605293  34.6147618  40.2979646   8.3572751  34.1421912  39.0397509
  10.4721062  29.1209720  44.6849556   9.8185474  28.8058737  44.0606171
  10.4301536  28.4985460  45.4109379  11.5832267  39.4029015  36.6002848
  10.6759328  39.1718268  36.7993997  12.0803299  38.6066634  36.7876829
  14.4900345  48.1126522  39.5199534  13.8162044  48.4158219  40.1284492
  14.8766167  48.9155602  39.1704991  13.7058802  35.6091653  49.0097203
  12.7881363  35.8306600  48.8518891  14.1218946  35.6837964  48.1508911
  14.4893850  37.0083069  44.1399884  15.2365669  37.5204466  43.8307006
  14.7585439  36.6867122  45.0004277  12.7620500  39.5041610  41.1226838
  11.8531719  39.2200643  41.2199308  12.7915584  39.9240688  40.2630145
  17.9939767  43.1148199  44.8918006  17.5402095  42.2739109  44.9483196
  17.3633734  43.7509598  45.2292786  16.9372687  34.0440185  46.1218673
  16.1995444  33.5317571  46.4528916  17.1899461  33.6040567  45.3101950
  16.4372707  44.9524696  45.8267824  16.7295681  45.5129753  45.1080189
  16.9471327  45.2453257  46.5820983  17.0384314  26.8216437  46.7160442
  17.3443191  25.9613801  46.4286357  17.7636919  27.4134057  46.5159436
   3.3308670  37.2247124  45.1042040   3.1333070  36.6316485  44.3793107
   2.7755334  36.9199334  45.8217979  11.3105394  37.1170230  47.2236633
  11.3654004  36.1644067  47.1479110  10.4996596  37.2729669  47.7077932
  12.4596588  41.0450353  38.4614917  12.0216018  40.3286212  38.0020554
  13.2007029  41.2726468  37.9000008   9.2497754  35.7347290  44.9827012
   8.4365619  36.0341461  45.3892204   9.7456748  35.3402979  45.7001494
  11.4006332  45.7305047  46.9161277  11.3582511  45.9565893  45.9869809
  12.3169031  45.4968422  47.0647078  14.8471966  36.1989115  53.8141906
  15.2021353  36.4260588  54.6736372  15.4944097  36.5307491  53.1919161
  20.5769703  39.3207550  44.5191235  20.4387601  39.5109146  43.5912424
  20.2205921  40.0826933  44.9759286   8.7411829  33.3065646  50.5988247
   9.3811208  33.1654405  49.9011210   7.9089359  33.0200159  50.2226849
  20.6039082  41.3884077  49.5302507  21.0375589  41.2959367  50.3785561
  21.3170663  41.3641578  48.8922523   9.5172133  42.6068076  46.7123240
  10.3112731  42.1118396  46.5105815   8.8063825  42.0785939  46.3490945
  14.3366977  44.9886172  51.0635607  14.3903999  45.5577108  51.8313323
  13.4681758  45.1588057  50.6989644   5.8254896  36.7511158  42.7882992
   4.8952484  36.6895613  43.0052954   5.9212368  36.2287110  41.9919634
   5.7440445  33.2765971  45.3761234   6.0047262  34.1911304  45.2670394
   6.5657617  32.8090413  45.5257847   7.2165370  34.6903728  52.5460058
   7.8888424  34.4821090  51.8972707   6.3895157  34.4925814  52.1065291
  21.4654632  41.4307778  52.0635392  21.6590522  42.3353589  52.3094667
  21.3655250  40.9715197  52.8973977  13.1190942  31.3165669  54.5625719
  12.4718858  32.0155618  54.4690196  13.8891958  31.7501813  54.9301968
  16.5269740  41.5814521  57.6376273  16.3755247  41.3525072  56.7206356
  16.5174420  42.5385122  57.6507618  13.2955077  39.1546434  52.6222539
  14.2247137  39.3057593  52.4491506  12.8746107  39.2430454  51.7671186
  12.0943409  43.1797098  50.3921077  11.9554494  42.8115882  51.2647015
  11.3058005  43.6944737  50.2205034  12.6891561  48.2806194  41.7346613
  12.8643316  47.8094238  42.5492236  12.0024349  48.9071961  41.9627874
  13.6448624  42.5578701  47.7809914  13.3098456  42.5179471  48.6767564
  13.1452569  41.8923417  47.3080325   7.6192868  37.9646331  53.3062496
   7.4812666  37.2326570  53.9074035   8.5297791  37.8755231  53.0246683
  16.5807815  39.9034735  38.0546974  15.9636986  39.1781563  37.9580027
  16.1124304  40.6644095  37.7114048  10.2475168  37.6766290  52.7946175
  10.9574787  37.0359482  52.7532794  10.2044477  37.9279185  53.7172356
  18.2361947  44.6133643  55.7152754  18.1774493  43.9292863  55.0483337
  18.6381465  45.3552633  55.2633380   8.9604102  34.6631508  54.6141815
   8.4241459  34.2122246  55.2663411   8.3720811  34.7977417  53.8712279
   7.2552646  51.4295557  48.5086473   7.4949244  52.0614081  49.1865492
   6.4121842  51.0783597  48.7951833   8.3706361  34.1220159  37.1768278
   7.4935828  34.0008960  36.8130525   8.8464114  33.3306238  36.9247167
  18.2379354  42.5773227  53.9466734  17.3506133  42.2399149  54.0693133
  18.8077905  41.8456259  54.1835500   4.6943224  33.7987516  51.6994809
   4.6101412  33.1913185  50.9645219   3.8725930  34.2896534  51.7004306
  11.7680508  47.2374680  50.9127977  11.6950679  48.0429651  51.4247282
  11.3257901  47.4366645  50.0875999  11.5570287  46.4746450  44.4230799
  10.7737809  47.0168130  44.5169023  12.2563033  46.9920429  44.8225040
  14.8666937  32.2841079  47.0665004  15.3635637  31.5311041  46.7466075
  14.0953919  32.3205396  46.5008214  22.7196695  37.9881445  48.7083296
  22.7086571  38.8706160  48.3377229  21.8514074  37.6352995  48.5137833
  14.2279191  47.1361514  53.0686136  14.9407163  47.7708978  52.9962037
  13.7369220  47.2325380  52.2526138  15.9496718  41.0412766  44.6403428
  15.0152997  41.1614229  44.4708132  16.1273387  40.1385233  44.3763438
  11.4501906  34.4258462  46.7936689  11.0799694  33.8729503  47.4817594
  11.9460999  33.8216596  46.2411689  19.3369270  36.8830086  45.1753462
  19.8029722  37.7158077  45.1013764  19.7876770  36.4175067  45.8798720
   9.2791105  44.8855957  53.8891707   9.9800564  45.5192440  54.0421101
   8.8086220  45.2270689  53.1287346  17.4045501  43.2273907  42.1739614
  17.6805345  43.1130502  43.0833488  16.5349999  42.8291392  42.1351787
  17.3085932  29.2510673  49.2144363  16.3949012  29.4814899  49.3826570
  17.7379034  29.3349117  50.0658396  17.0792391  37.4400565  51.7144257
  16.4263841  37.6876472  51.0596710  17.4572771  36.6264703  51.3806734
  14.0399565  47.4760258  45.8172427  14.2221959  46.6581914  46.2800180
  14.8632551  47.6927950  45.3797317  14.3741730  46.4028443  43.0787476
  14.9029497  45.8920897  42.4657638  14.6369950  46.0870973  43.9433009
  13.1279964  38.1820376  58.2010294  12.4520601  38.0814505  58.8712669
  13.9507598  38.0259589  58.6646291   4.8758823  44.4192312  50.8222810
   5.4612260  43.6736000  50.9550714   4.6783661  44.7296269  51.7059473
   7.7297478  47.4543560  45.8385252   7.0607853  47.9389687  45.3549292
   7.5910348  47.7012780  46.7528630  11.8702747  49.4887303  52.4367910
  12.4221055  49.6518925  53.2016995  12.2108940  50.0791741  51.7647935
   6.8467240  31.8362453  53.0389795   6.9108566  32.6977284  52.6267193
   6.7834360  31.2236455  52.3062153   6.3219512  33.9085585  56.6862829
   6.9491551  33.5262663  57.3000354   5.4647431  33.6899787  57.0518522
  16.7213621  44.3148561  58.2916565  17.2653525  44.9278519  57.7971519
  16.1400466  44.8728139  58.8083578   3.0985055  35.7162015  42.6181184
   3.3938496  34.8072693  42.5648238   2.1973091  35.6949754  42.2962186
  15.0071134  47.4369279  49.4231592  14.8822273  46.6359018  48.9142538
  15.6650225  47.9315472  48.9345562   6.6279302  33.7918011  48.6008733
   5.9065888  34.4053979  48.4616206   7.4172558  34.3275776  48.5225379
  17.0706042  45.2378299  51.0511143  16.1236378  45.1183650  50.9789469
  17.4188815  44.3500797  51.1337404   9.4305616  31.1272438  54.8749384
   9.9540017  31.3734734  55.6375694   9.2117949  31.9592472  54.4552522
   4.8272897  33.3976112  42.7420509   4.4985603  32.5173491  42.5595615
   5.1812267  33.3423781  43.6296898  14.0752476  45.0331015  47.2515495
  13.9277438  44.1047722  47.4323065  14.9005969  45.0551106  46.7672570
   7.9414720  33.6849082  43.1095987   8.2810792  34.2135003  42.3874595
   8.3886840  34.0229488  43.8854553  17.6786597  45.8559574  48.3380367
  18.6033145  45.6502435  48.2004819  17.5101901  45.6075975  49.2469709
  10.6358161  32.0686133  52.5599055  10.2954981  31.2693946  52.9619735
   9.9297167  32.3687844  51.9875888  11.2874633  29.1535445  51.0126378
  12.1100702  28.6795923  50.8905268  11.5312696  29.9325929  51.5125064
   9.9282867  32.1823704  41.3089280  10.6491230  32.5604956  40.8052996
   9.3048171  32.9012580  41.4124258  14.0713990  32.8868853  42.2447612
  14.2877604  33.7693490  41.9436440  13.5908057  32.4955066  41.5153254
   8.8113211  35.8454566  48.8218357   8.6657792  36.1594869  49.7142638
   8.3338415  36.4639466  48.2689255  10.6709594  32.8357114  48.8699246
  10.6571163  31.9398207  48.5331544  11.3882022  32.8427778  49.5037532
  12.5235725  33.2694454  50.9152374  12.2653503  34.1911525  50.9136704
  11.9920765  32.8724889  51.6052838  17.4681914  46.3745241  43.6942459
  17.6418791  45.8091664  42.9416311  17.9610805  47.1746136  43.5121949
   3.2858873  38.3859910  51.7606018   2.7412342  39.1619718  51.8926292
   4.1638223  38.7330715  51.6025139  10.0746490  31.7171494  44.1386816
  10.1962401  30.7888140  44.3377704   9.7848532  31.7310180  43.2265132
  12.9437681  29.4026404  47.2753536  12.9659377  29.4665738  46.3205516
  13.3605740  28.5630913  47.4694042  23.3221305  39.1381664  45.3132759
  23.7652451  38.3888989  44.9151882  22.4447815  39.1291800  44.9306491
  18.4557086  45.6912006  40.7939357  19.1507991  46.3118698  41.0126672
  18.7980236  44.8407357  41.0691735   4.0724895  37.5129806  54.6536175
   3.3306631  37.6612442  55.2400805   3.7517640  37.7738072  53.7902924
  20.3548509  43.1411711  42.3226688  20.8799833  43.4798984  41.5976008
  20.2670862  42.2058726  42.1389823  12.0168558  47.0545785  54.4516565
  12.3255684  46.8094931  55.3239264  12.8144040  47.2592423  53.9635435
  12.0389170  49.2083694  46.6821941  11.5994160  48.7160073  47.3754798
  12.7897287  48.6656662  46.4414016   4.5181509  45.3995235  46.6846569
   5.3439529  45.0999007  46.3045213   4.1675561  44.6302858  47.1336358
   9.4863042  44.7521703  48.7544243   8.8643051  44.0892408  48.4546471
  10.1567909  44.7782835  48.0717891   2.7190114  43.3181562  47.6435503
   1.8822022  42.8903736  47.4619504   2.6913759  43.5114005  48.5806294
   9.5587570  33.2303491  58.3476749   9.6075725  34.1065614  57.9654518
  10.1010084  32.6880884  57.7748392  20.0442415  43.7744615  57.6277886
  19.2537959  43.7568754  57.0882385  19.8075770  44.3132908  58.3826923
  20.1640290  40.6237081  54.9410614  20.2138295  40.4587088  55.8826137
  20.0554214  39.7564340  54.5508495   9.0476549  43.3025627  42.2302703
   9.1964669  43.9861091  41.5769376   9.8542993  43.2830717  42.7452159
  17.4544053  36.6068009  56.2569921  18.3553916  36.4674474  55.9653919
  17.5292027  36.7722464  57.1968099  11.7886858  33.9834864  55.1023108
  10.9190168  34.2768430  54.8305696  12.0246338  34.5675309  55.8230371
  21.6658487  43.0434023  55.1852636  21.3743296  43.4064003  56.0216097
  21.0530619  42.3301031  55.0065968  22.8654170  40.6086902  47.7055206
  23.7001061  41.0476706  47.8692767  23.0013298  40.1325556  46.8863452
  19.9145675  38.1666637  53.6532694  20.3899797  38.3594284  52.8451545
  18.9911241  38.2225823  53.4076078   6.8029182  39.3290804  43.2363772
   6.5575224  38.4253134  43.4343982   6.9725097  39.3307955  42.2943250
  14.4925892  30.2014481  52.6188528  15.0107836  30.9375508  52.2935016
  14.1381025  30.5078474  53.4535287   6.0724830  35.0619162  40.7349934
   5.3794075  35.1363517  40.0789970   5.8276582  34.2979506  41.2571451
  14.7438486  26.6214763  48.1389425  15.0240240  25.9537952  48.7649851
  15.5289093  26.8143859  47.6264088  12.5471955  45.7973757  39.7014451
  11.9745922  46.4163944  39.2484923  13.1204748  46.3473119  40.2354373
  18.6147344  35.0432397  51.8861000  19.5664767  35.1430495  51.9073224
  18.4450795  34.2510666  52.3959084  16.6361724  32.1287980  52.0720401
  16.0411656  32.4092993  51.3766889  16.3511421  32.6181881  52.8437142
  15.7669214  46.0810907  40.8323033  16.6999888  46.0156469  41.0355909
  15.6792427  46.9167174  40.3737566  18.3957231  45.3976778  37.7926981
  18.3170863  45.0636641  38.6862739  19.2166898  45.8898546  37.7918453
  21.0935422  38.2638517  51.0003299  21.0611742  37.3254518  51.1862983
  21.7036046  38.3422554  50.2669124  12.9318753  37.1334570  37.0430503
  13.8777858  37.0040778  37.1118921  12.5532998  36.3949232  37.5199931
  21.2429911  35.0549560  51.0461582  20.7268959  34.2708017  50.8591511
  22.1269859  34.7268277  51.2108102  18.9040638  28.7990576  47.0057395
  18.7065459  28.4905664  47.8900727  19.5140343  29.5252215  47.1355325
  26.9111972  39.3254524  50.1409336  27.6415361  39.0639812  50.7017039
  26.3018918  38.5883246  50.1811404  24.9927269  37.4662386  50.7383787
  24.2660433  37.3318351  50.1300279  24.5774556  37.7739215  51.5440505
  12.8157446  41.1852316  58.5031160  13.7360455  41.3630915  58.6971207
  12.7807029  40.2408361  58.3510860  11.1161670  35.0584546  36.9785389
  10.2093126  34.7617659  37.0548102  11.3937651  34.7614364  36.1119675
   2.0339611  36.3790910  47.4284435   1.7142395  35.5256218  47.1358809
   1.4873039  36.5939488  48.1842402   5.8119518  39.0953351  51.1453941
   6.0305528  40.0270459  51.1641975   6.2245292  38.7361325  51.9308745
  12.7323736  29.6021436  43.1329630  11.9224464  29.2568521  43.5084876
  13.4208153  29.2928980  43.7217241  14.6614284  28.6799483  44.7553926
  15.2145323  29.0994936  45.4143950  14.8984371  27.7535231  44.7976882
  10.6847384  34.6686556  60.5356690  10.5844110  35.6180913  60.4668781
  10.4668926  34.3404795  59.6632760   9.8860455  31.9171482  37.1197368
  10.7479619  32.2426380  37.3793185  10.0710799  31.1302977  36.6070434
   1.9027871  39.9993821  49.3977557   1.2091342  39.5847774  48.8847511
   2.6500862  40.0414358  48.8010975  18.0393091  30.7900008  44.2632591
  17.4591760  31.4484812  43.8810643  17.7729024  29.9677353  43.8520008
  16.4896658  30.1905066  46.4653911  16.9896436  30.3021600  45.6568230
  17.1332266  29.8866119  47.1054719  10.5478654  38.0983695  59.3521752
  10.0645735  38.8984055  59.5585641  10.6339593  38.1091640  58.3989196
   3.8164613  39.9312075  47.2743571   3.7935301  40.0299762  46.3225454
   4.1265250  40.7777226  47.5960738   6.4751991  41.9888230  51.3890186
   7.4295245  41.9572172  51.3220117   6.2764515  41.5278854  52.2040412
   7.0651373  40.5589346  53.9560983   7.8844262  41.0533425  53.9795821
   7.3388181  39.6421314  53.9278551  16.8217969  32.9500098  43.3188939
  15.9343824  33.2349749  43.1009134  17.2371958  32.7893862  42.4716216
  20.1732506  32.9746619  47.0343278  20.9492896  33.4643072  47.3067895
  19.4480640  33.4004674  47.4915148  22.6105064  33.6874239  48.0917219
  23.2049555  33.4469975  47.3810527  22.6831648  32.9681369  48.7190755
   4.8302220  47.5307850  48.4060384   4.6956688  46.7708250  47.8398382
   4.4134282  48.2548749  47.9389173  15.9661183  42.7144773  37.4136959
  16.6697033  42.9194776  38.0294615  15.2423832  43.2821535  37.6786042
  16.7958993  38.4654634  43.5339229  16.7394195  38.9223186  42.6946862
  17.3487336  37.7045319  43.3562072  20.6063799  34.2544366  44.3589349
  20.3500733  33.8541002  45.1897556  19.9816667  34.9688160  44.2339488
  24.9176137  36.9940439  46.8660640  24.3575695  37.0633629  47.6392202
  24.3119640  36.8181424  46.1460136   7.9871346  48.4277167  48.6178826
   7.8703730  49.3722599  48.5157517   7.1663792  48.1250728  49.0064626
  17.8747880  43.1527302  39.4635419  18.7093484  42.7208501  39.2812894
  17.7132223  42.9809316  40.3912314  17.5293772  39.6559416  40.8291758
  17.4742576  39.4903687  39.8880202  16.9039828  40.3635448  40.9853948
   2.3186287  34.8927480  54.6553181   2.9645151  34.3826434  55.1440406
   2.1103439  35.6296162  55.2296606  14.8439680  41.9608327  60.1545321
  15.7130839  42.1348980  59.7931956  14.3646431  42.7802744  60.0321050
  10.8389898  29.1567525  40.4077077  10.8268568  30.1009364  40.5645348
  11.7313320  28.9737670  40.1136538   9.0125860  49.0805428  51.8334755
   9.9153107  49.1129039  52.1501250   8.7863230  48.1505879  51.8481091
  10.7679462  47.8336415  48.4944833   9.8175093  47.8338277  48.3809206
  11.0711948  47.0869150  47.9780868  14.6542017  25.7510301  44.6623014
  13.8874413  25.1968788  44.8079696  15.0652722  25.8232170  45.5237165
   6.6583778  32.0395097  58.7528195   7.5215240  31.6831902  58.9631519
   6.0849189  31.7008992  59.4403599  26.5032155  53.6696953  49.5590596
  27.1410565  53.5503701  48.8553936  26.3852998  54.6177797  49.6178548
  23.3121862  53.6224381  49.4952120  22.9740373  53.5065446  48.6072655
  24.1811630  53.2215547  49.4753127  19.1708677  55.4759858  45.4849011
  18.6073542  55.3849795  44.7165299  19.0561072  54.6559762  45.9651504
  23.7941645  54.7759233  55.4538326  23.7830285  54.3812031  54.5818830
  23.9562284  54.0425306  56.0472097  16.7173109  56.9711049  48.3233232
  17.5094401  56.6301874  47.9079531  16.9569759  57.0806025  49.2435385
  24.7508236  59.1430826  40.7963476  24.0996216  59.7284906  40.4097490
  25.5452599  59.6737021  40.8558514  18.6763863  56.2319963  41.1950611
  19.4494739  55.6848950  41.0563486  19.0289262  57.0964212  41.4065072
  20.5148906  57.5596345  54.4017510  20.2238772  58.4641976  54.2864176
  21.1505890  57.6012873  55.1161580  21.4405113  54.9373194  50.9918870
  22.0368685  54.7129216  50.2775833  21.4980084  54.1957939  51.5944317
  21.0130141  52.3912629  38.8269061  21.2655662  51.8694150  38.0652524
  20.0754700  52.2278774  38.9295744  26.0573424  51.3948407  46.6343804
  26.8436513  50.9767830  46.2834221  26.3212128  52.2994499  46.8025452
  26.2283501  56.8321258  41.3332461  25.5929334  56.9055884  42.0453365
  25.8980908  57.4214856  40.6551540  31.4581851  51.3323640  47.5376782
  32.1907023  50.7622857  47.7714612  30.7021207  50.9445241  47.9783288
  20.7326430  54.2940735  41.0293436  20.6162688  53.6185638  41.6974520
  20.8428690  53.8073109  40.2125589  23.0757971  53.7550882  44.7340125
  22.7116178  53.2281503  45.4453046  23.9325087  53.3649351  44.5606610
  28.9807271  45.0445215  51.9971391  28.6490596  45.9140626  51.7732606
  28.3852885  44.7281499  52.6765421  22.7163458  48.7840782  39.7301473
  22.8837860  49.6521018  40.0971944  22.5260627  48.9468063  38.8062763
  25.4738791  57.2457761  51.3967304  25.1739514  58.1482799  51.2883111
  25.1289850  56.9789944  52.2488457  18.9251272  53.6971557  47.4304008
  18.0001769  53.5647771  47.6381700  19.1735686  54.4765777  47.9273950
  28.8735935  49.7640301  49.0764741  27.9652812  49.6955709  48.7823502
  28.8223530  50.2412246  49.9046566  22.6952679  51.2398439  40.7148140
  22.5752304  51.6855490  41.5533620  22.0005267  51.5883757  40.1561678
  16.2860083  53.3404831  48.2647797  16.4152465  53.5939310  49.1787209
  15.6057535  53.9332539  47.9452452  20.4559571  64.0102081  44.3638271
  20.3783600  64.9609906  44.4426752  19.8521214  63.6647953  45.0213198
  22.9476800  51.1829946  57.0199638  22.1710134  51.7423866  57.0102503
  23.5867363  51.6686729  57.5414508  30.7397581  47.9656739  50.8542615
  30.0971961  48.2589272  50.2082409  30.2352510  47.8509659  51.6595812
  28.3937745  51.7119912  41.5428474  29.3055601  51.9447299  41.3676172
  27.8847392  52.2956957  40.9803553  21.2023173  53.9915400  56.5817605
  21.9437857  54.5300444  56.3052429  20.4960158  54.6181688  56.7389157
  26.6778512  56.1344540  55.1789767  27.0861868  55.6926951  54.4344399
  25.9555774  55.5597168  55.4323960  23.0309582  51.0717147  52.5523324
  23.8770778  51.4956560  52.6957973  22.9708220  50.4150771  53.2461887
  27.0007327  56.6945731  48.9342056  26.3716189  56.8591445  48.2318123
  26.6132989  57.1087340  49.7053020  30.8796559  57.6300169  46.2886419
  30.1947597  58.0099070  45.7383453  30.9640408  58.2395495  47.0218367
  26.1809028  48.7321515  54.2104497  25.9369960  49.4863576  53.6738773
  26.4568958  49.1106863  55.0451744  28.1347491  55.2760128  52.8881763
  28.3464386  55.9191888  52.2116144  28.0877239  54.4422444  52.4203693
  25.7373719  47.8877948  49.7918335  24.8758199  48.1859202  50.0835073
  25.7636154  48.1048347  48.8599368  22.5535289  56.4320139  46.1992141
  23.0173634  56.7107842  45.4096763  22.2892087  55.5303583  46.0165231
  19.4459370  55.9791620  49.1371904  20.0160727  56.4078889  48.4989388
  20.0367482  55.6974205  49.8356090  21.4904175  52.5543291  43.0081706
  22.1928218  53.0064335  43.4755632  21.1584803  51.9127110  43.6361599
  19.9384536  51.1455048  57.3832915  19.3083197  51.8271329  57.6168312
  19.8320624  51.0338129  56.4386054  15.2329509  50.8126844  48.3098839
  14.4428563  51.0684372  47.8338950  15.7240756  51.6275182  48.4150880
  29.2493318  58.1532083  51.0604120  30.0710762  57.7512270  50.7786802
  29.2455721  58.0500317  52.0120236  17.1844254  51.1771423  45.2682316
  16.3875418  51.2890117  45.7865812  16.9569846  51.5158075  44.4023207
  23.0149922  57.7016126  53.2164831  23.0794354  58.1636534  54.0523003
  22.3060846  57.0713491  53.3447141  13.5167212  51.0657334  50.7413830
  13.7675250  51.9504344  51.0071406  14.0526760  50.8861936  49.9688922
  37.3399312  54.4970832  47.4089092  36.5863020  53.9278230  47.2533096
  37.4746853  54.4633496  48.3559726  22.7297940  59.3684234  43.0843811
  22.5943614  60.2135770  43.5128659  23.2707752  59.5703511  42.3209745
  19.2165279  45.4475814  59.7458166  18.8232225  44.8942012  60.4205811
  20.0331420  45.7586392  60.1364684  16.1827337  56.8859672  43.6571736
  16.6951858  57.6802922  43.8077301  16.8350050  56.1885962  43.5905338
  17.9922222  60.0025428  45.7394489  18.1688850  60.9243393  45.5515473
  18.7879055  59.6883847  46.1688869  22.1333240  46.8633693  57.3378423
  22.8742954  47.4640846  57.2582885  22.3651163  46.1211331  56.7796465
  17.2774578  52.0490060  55.6156653  17.1628093  51.1475317  55.9163751
  16.4219096  52.2953757  55.2641469  24.3566416  59.9907800  57.2144153
  23.9130270  59.2044179  56.8965058  25.0183630  60.1786951  56.5488044
  19.1153537  61.5203602  51.7404832  19.6660962  61.3920665  50.9681826
  18.2765013  61.8198491  51.3899724  26.4547654  60.2710600  55.2425554
  26.4366129  61.0919481  54.7505824  27.3767574  60.1464675  55.4675696
  22.9120708  57.7854730  56.0849063  23.4449045  57.0243018  55.8548371
  22.3834789  57.4928382  56.8273217  26.0790403  42.8914796  51.6142705
  25.7354673  43.7816437  51.5381815  26.4469366  42.7016453  50.7512290
  14.1476254  55.2148326  44.4331307  14.9851476  55.6245335  44.2165014
  14.3254521  54.2747768  44.4031501  26.0440686  52.8823407  40.1215140
  25.5287309  53.6528011  40.3603527  25.7717994  52.2088543  40.7448201
  23.6287797  47.7273108  45.1800378  22.7729393  47.3379958  45.0006017
  24.0414749  47.8065068  44.3200164  25.1586944  45.2619451  49.5791938
  24.6551739  45.2249586  48.7659743  25.4517550  46.1712194  49.6388594
  21.4029829  45.3458181  48.5858120  22.2682826  45.1500989  48.2264009
  21.4707338  45.1168532  49.5127476  31.0174960  55.6355761  42.0568313
  30.2404403  55.2966921  41.6123475  31.6966441  55.6408385  41.3823278
  25.8326989  50.7550499  41.9474921  25.5277125  51.0696648  42.7985064
  26.7857431  50.8331919  41.9902254  24.2773421  56.9140722  43.5967875
  23.7494782  56.1793482  43.2841112  23.7760924  57.6915399  43.3507843
  29.2566267  55.1089743  48.7134921  28.5989941  55.7989004  48.8015050
  30.0606666  55.4986175  49.0568907  19.0092148  47.5760389  45.9574486
  19.5835900  47.3535570  45.2247679  19.5963131  47.6449083  46.7103088
  28.0671726  53.4634115  46.7638863  28.5803607  54.0964107  47.2660573
  28.7172950  52.8635311  46.3982223  19.3361736  49.6064850  39.9770372
  18.4999048  49.9439536  40.2979646  19.1966505  49.4713829  39.0397509
  21.3114816  44.4501637  44.6849556  20.6579229  44.1350655  44.0606171
  21.2695290  43.8277378  45.4109379  22.4226021  54.7320932  36.6002848
  21.5153083  54.5010186  36.7993997  22.9197053  53.9358552  36.7876829
  25.3294100  63.4418440  39.5199534  24.6555799  63.7450136  40.1284492
  25.7159922  64.2447520  39.1704991  24.5452557  50.9383571  49.0097203
  23.6275118  51.1598518  48.8518891  24.9612700  51.0129881  48.1508911
  25.3287604  52.3374987  44.1399884  26.0759423  52.8496384  43.8307006
  25.5979194  52.0159039  45.0004277  23.6014254  54.8333527  41.1226838
  22.6925474  54.5492560  41.2199308  23.6309338  55.2532606  40.2630145
  28.8333522  58.4440117  44.8918006  28.3795849  57.6031027  44.9483196
  28.2027489  59.0801515  45.2292786  27.7766441  49.3732103  46.1218673
  27.0389198  48.8609489  46.4528916  28.0293215  48.9332485  45.3101950
  27.2766461  60.2816614  45.8267824  27.5689436  60.8421671  45.1080189
  27.7865082  60.5745175  46.5820983  27.8778069  42.1508355  46.7160442
  28.1836946  41.2905718  46.4286357  28.6030674  42.7425975  46.5159436
  14.1702425  52.5539041  45.1042040  13.9726825  51.9608402  44.3793107
  13.6149089  52.2491252  45.8217979  22.1499149  52.4462148  47.2236633
  22.2047758  51.4935984  47.1479110  21.3390351  52.6021587  47.7077932
  23.2990342  56.3742271  38.4614917  22.8609772  55.6578130  38.0020554
  24.0400783  56.6018386  37.9000008  20.0891508  51.0639208  44.9827012
  19.2759374  51.3633378  45.3892204  20.5850503  50.6694896  45.7001494
  22.2400086  61.0596965  46.9161277  22.1976265  61.2857811  45.9869809
  23.1562785  60.8260339  47.0647078  25.6865720  51.5281032  53.8141906
  26.0415108  51.7552505  54.6736372  26.3337851  51.8599409  53.1919161
  31.4163457  54.6499468  44.5191235  31.2781356  54.8401064  43.5912424
  31.0599676  55.4118851  44.9759286  19.5805583  48.6357563  50.5988247
  20.2204963  48.4946322  49.9011210  18.7483114  48.3492077  50.2226849
  31.4432837  56.7175995  49.5302507  31.8769343  56.6251284  50.3785561
  32.1564417  56.6933496  48.8922523  20.3565887  57.9359994  46.7123240
  21.1506486  57.4410314  46.5105815  19.6457579  57.4077857  46.3490945
  25.1760732  60.3178089  51.0635607  25.2297754  60.8869026  51.8313323
  24.3075513  60.4879974  50.6989644  16.6648651  52.0803075  42.7882992
  15.7346239  52.0187531  43.0052954  16.7606123  51.5579028  41.9919634
  16.5834200  48.6057888  45.3761234  16.8441017  49.5203221  45.2670394
  17.4051372  48.1382331  45.5257847  18.0559125  50.0195645  52.5460058
  18.7282178  49.8113008  51.8972707  17.2288911  49.8217731  52.1065291
  32.3048386  56.7599696  52.0635392  32.4984276  57.6645506  52.3094667
  32.2049004  56.3007115  52.8973977  23.9584697  46.6457586  54.5625719
  23.3112612  47.3447536  54.4690196  24.7285712  47.0793730  54.9301968
  27.3663495  56.9106438  57.6376273  27.2149001  56.6816990  56.7206356
  27.3568174  57.8677040  57.6507618  24.1348831  54.4838351  52.6222539
  25.0640891  54.6349511  52.4491506  23.7139861  54.5722372  51.7671186
  22.9337163  58.5089016  50.3921077  22.7948249  58.1407800  51.2647015
  22.1451759  59.0236655  50.2205034  23.5285315  63.6098112  41.7346613
  23.7037071  63.1386155  42.5492236  22.8418103  64.2363878  41.9627874
  24.4842378  57.8870618  47.7809914  24.1492211  57.8471388  48.6767564
  23.9846324  57.2215334  47.3080325  18.4586622  53.2938248  53.3062496
  18.3206420  52.5618487  53.9074035  19.3691546  53.2047148  53.0246683
  27.4201570  55.2326653  38.0546974  26.8030741  54.5073481  37.9580027
  26.9518058  55.9936013  37.7114048  21.0868923  53.0058208  52.7946175
  21.7968541  52.3651400  52.7532794  21.0438231  53.2571103  53.7172356
  29.0755702  59.9425561  55.7152754  29.0168248  59.2584781  55.0483337
  29.4775220  60.6844551  55.2633380  19.7997857  49.9923426  54.6141815
  19.2635214  49.5414164  55.2663411  19.2114565  50.1269334  53.8712279
  18.0946400  66.7587475  48.5086473  18.3342999  67.3905999  49.1865492
  17.2515597  66.4075515  48.7951833  19.2100116  49.4512077  37.1768278
  18.3329582  49.3300878  36.8130525  19.6857869  48.6598155  36.9247167
  29.0773109  57.9065145  53.9466734  28.1899888  57.5691067  54.0693133
  29.6471660  57.1748176  54.1835500  10.7302256  54.2389237  47.2709786
  11.4173296  53.9250967  46.6830801  10.5750385  55.1430601  46.9977037
  15.5336978  49.1279433  51.6994809  15.4495167  48.5205103  50.9645219
  14.7119684  49.6188452  51.7004306  22.6074262  62.5666597  50.9127977
  22.5344434  63.3721569  51.4247282  22.1651655  62.7658563  50.0875999
  22.3964042  61.8038367  44.4230799  21.6131564  62.3460048  44.5169023
  23.0956787  62.3212347  44.8225040  25.7060692  47.6132997  47.0665004
  26.2029391  46.8602959  46.7466075  24.9347673  47.6497313  46.5008214
  33.5590449  53.3173362  48.7083296  33.5480326  54.1998078  48.3377229
  32.6907829  52.9644913  48.5137833  25.0672946  62.4653431  53.0686136
  25.7800918  63.1000896  52.9962037  24.5762974  62.5617297  52.2526138
  26.7890473  56.3704684  44.6403428  25.8546751  56.4906146  44.4708132
  26.9667141  55.4677151  44.3763438  22.2895661  49.7550380  46.7936689
  21.9193448  49.2021420  47.4817594  22.7854753  49.1508513  46.2411689
  30.1763024  52.2122003  45.1753462  30.6423476  53.0449995  45.1013764
  30.6270524  51.7466985  45.8798720  20.1184859  60.2147875  53.8891707
  20.8194319  60.8484358  54.0421101  19.6479974  60.5562606  53.1287346
  28.2439255  58.5565825  42.1739614  28.5199099  58.4422419  43.0833488
  27.3743754  58.1583309  42.1351787  28.1479687  44.5802590  49.2144363
  27.2342767  44.8106817  49.3826570  28.5772788  44.6641034  50.0658396
  27.9186145  52.7692482  51.7144257  27.2657595  53.0168390  51.0596710
  28.2966525  51.9556620  51.3806734  24.8793319  62.8052175  45.8172427
  25.0615714  61.9873831  46.2800180  25.7026305  63.0219868  45.3797317
  25.2135485  61.7320361  43.0787476  25.7423251  61.2212815  42.4657638
  25.4763704  61.4162891  43.9433009  23.9673718  53.5112293  58.2010294
  23.2914355  53.4106423  58.8712669  24.7901352  53.3551507  58.6646291
  15.7152577  59.7484230  50.8222810  16.3006014  59.0027918  50.9550714
  15.5177416  60.0588187  51.7059473  18.5691233  62.7835477  45.8385252
  17.9001608  63.2681605  45.3549292  18.4304102  63.0304698  46.7528630
  10.3070232  52.3189830  49.5427253  10.3454332  51.7853421  50.3364371
   9.8010525  51.7925036  48.9238230  22.7096501  64.8179221  52.4367910
  23.2614809  64.9810842  53.2016995  23.0502695  65.4083659  51.7647935
  17.6860994  47.1654371  53.0389795  17.7502321  48.0269201  52.6267193
  17.6228115  46.5528372  52.3062153  17.1613267  49.2377503  56.6862829
  17.7885306  48.8554580  57.3000354  16.3041186  49.0191705  57.0518522
  27.5607375  59.6440478  58.2916565  28.1047279  60.2570437  57.7971519
  26.9794220  60.2020057  58.8083578  13.9378810  51.0453932  42.6181184
  14.2332251  50.1364611  42.5648238  13.0366845  51.0241672  42.2962186
  25.8464888  62.7661196  49.4231592  25.7216028  61.9650936  48.9142538
  26.5043980  63.2607390  48.9345562  17.4673057  49.1209929  48.6008733
  16.7459642  49.7345897  48.4616206  18.2566312  49.6567694  48.5225379
  27.9099797  60.5670216  51.0511143  26.9630132  60.4475568  50.9789469
  28.2582570  59.6792714  51.1337404  20.2699370  46.4564355  54.8749384
  20.7933772  46.7026652  55.6375694  20.0511703  47.2884390  54.4552522
  15.6666651  48.7268030  42.7420509  15.3379357  47.8465409  42.5595615
  16.0206022  48.6715699  43.6296898  24.9146230  60.3622933  47.2515495
  24.7671193  59.4339640  47.4323065  25.7399724  60.3843023  46.7672570
  18.7808474  49.0141000  43.1095987  19.1204547  49.5426921  42.3874595
  19.2280595  49.3521406  43.8854553  28.5180352  61.1851491  48.3380367
  29.4426899  60.9794353  48.2004819  28.3495655  60.9367892  49.2469709
  21.4751915  47.3978050  52.5599055  21.1348736  46.5985863  52.9619735
  20.7690921  47.6979761  51.9875888  22.1268387  44.4827363  51.0126378
  22.9494456  44.0087841  50.8905268  22.3706451  45.2617847  51.5125064
  20.7676622  47.5115621  41.3089280  21.4884984  47.8896874  40.8052996
  20.1441926  48.2304498  41.4124258  24.9107744  48.2160770  42.2447612
  25.1271359  49.0985408  41.9436440  24.4301812  47.8246984  41.5153254
  19.6506966  51.1746483  48.8218357  19.5051547  51.4886787  49.7142638
  19.1732169  51.7931384  48.2689255  21.5103349  48.1649031  48.8699246
  21.4964917  47.2690125  48.5331544  22.2275777  48.1719695  49.5037532
  23.3629479  48.5986372  50.9152374  23.1047257  49.5203442  50.9136704
  22.8314520  48.2016806  51.6052838  28.3075668  61.7037159  43.6942459
  28.4812546  61.1383581  42.9416311  28.8004559  62.5038054  43.5121949
  14.1252628  53.7151828  51.7606018  13.5806096  54.4911636  51.8926292
  15.0031978  54.0622632  51.6025139  20.9140245  47.0463412  44.1386816
  21.0356156  46.1180058  44.3377704  20.6242287  47.0602098  43.2265132
  23.7831435  44.7318322  47.2753536  23.8053132  44.7957655  46.3205516
  24.1999494  43.8922831  47.4694042  34.1615059  54.4673582  45.3132759
  34.6046205  53.7180907  44.9151882  33.2841570  54.4583718  44.9306491
  29.2950841  61.0203923  40.7939357  29.9901745  61.6410616  41.0126672
  29.6373991  60.1699274  41.0691735  14.9118650  52.8421724  54.6536175
  14.1700386  52.9904359  55.2400805  14.5911394  53.1029990  53.7902924
  31.1942264  58.4703629  42.3226688  31.7193588  58.8090901  41.5976008
  31.1064616  57.5350644  42.1389823  22.8562312  62.3837702  54.4516565
  23.1649439  62.1386849  55.3239264  23.6537794  62.5884341  53.9635435
  22.8782925  64.5375612  46.6821941  22.4387915  64.0451991  47.3754798
  23.6291041  63.9948580  46.4414016  15.3575263  60.7287153  46.6846569
  16.1833283  60.4290925  46.3045213  15.0069315  59.9594775  47.1336358
  20.3256797  60.0813621  48.7544243  19.7036806  59.4184326  48.4546471
  20.9961664  60.1074753  48.0717891  13.5583869  58.6473479  47.6435503
  12.7215777  58.2195654  47.4619504  13.5307514  58.8405923  48.5806294
  20.3981324  48.5595409  58.3476749  20.4469480  49.4357532  57.9654518
  20.9403838  48.0172802  57.7748392  30.8836170  59.1036532  57.6277886
  30.0931714  59.0860671  57.0882385  30.6469524  59.6424826  58.3826923
  31.0034045  55.9528999  54.9410614  31.0532050  55.7879006  55.8826137
  30.8947968  55.0856258  54.5508495  19.8870304  58.6317544  42.2302703
  20.0358424  59.3153009  41.5769376  20.6936747  58.6122634  42.7452159
  28.2937807  51.9359927  56.2569921  29.1947670  51.7966392  55.9653919
  28.3685782  52.1014382  57.1968099  22.6280613  49.3126782  55.1023108
  21.7583922  49.6060348  54.8305696  22.8640093  49.8967227  55.8230371
  32.5052242  58.3725940  55.1852636  32.2137050  58.7355921  56.0216097
  31.8924373  57.6592949  55.0065968  33.7047924  55.9378820  47.7055206
  34.5394815  56.3768624  47.8692767  33.8407053  55.4617473  46.8863452
  30.7539430  53.4958555  53.6532694  31.2293552  53.6886201  52.8451545
  29.8304995  53.5517741  53.4076078  17.6422937  54.6582722  43.2363772
  17.3968978  53.7545052  43.4343982  17.8118851  54.6599873  42.2943250
  25.3319646  45.5306398  52.6188528  25.8501590  46.2667425  52.2935016
  24.9774779  45.8370392  53.4535287  16.9118584  50.3911080  40.7349934
  16.2187829  50.4655435  40.0789970  16.6670336  49.6271423  41.2571451
  25.5832241  41.9506681  48.1389425  25.8633994  41.2829870  48.7649851
  26.3682848  42.1435777  47.6264088  23.3865709  61.1265675  39.7014451
  22.8139676  61.7455862  39.2484923  23.9598503  61.6765037  40.2354373
  29.4541099  50.3724315  51.8861000  30.4058522  50.4722413  51.9073224
  29.2844549  49.5802584  52.3959084  27.4755478  47.4579898  52.0720401
  26.8805411  47.7384911  51.3766889  27.1905175  47.9473799  52.8437142
  26.6062969  61.4102825  40.8323033  27.5393642  61.3448387  41.0355909
  26.5186182  62.2459092  40.3737566  29.2350986  60.7268695  37.7926981
  29.1564617  60.3928559  38.6862739  30.0560652  61.2190463  37.7918453
  31.9329177  53.5930435  51.0003299  31.9005497  52.6546435  51.1862983
  32.5429800  53.6714471  50.2669124  23.7712508  52.4626488  37.0430503
  24.7171612  52.3332696  37.1118921  23.3926753  51.7241150  37.5199931
  32.0823665  50.3841478  51.0461582  31.5662714  49.5999935  50.8591511
  32.9663614  50.0560195  51.2108102  29.7434392  44.1282494  47.0057395
  29.5459213  43.8197582  47.8900727  30.3534098  44.8544133  47.1355325
  37.7505727  54.6546441  50.1409336  38.4809115  54.3931730  50.7017039
  37.1412672  53.9175163  50.1811404  35.8321024  52.7954304  50.7383787
  35.1054187  52.6610269  50.1300279  35.4168311  53.1031133  51.5440505
  23.6551200  56.5144234  58.5031160  24.5754210  56.6922833  58.6971207
  23.6200783  55.5700279  58.3510860  21.9555425  50.3876464  36.9785389
  21.0486880  50.0909577  37.0548102  22.2331406  50.0906282  36.1119675
  12.8733365  51.7082827  47.4284435  12.5536149  50.8548136  47.1358809
  12.3266793  51.9231406  48.1842402  16.6513273  54.4245268  51.1453941
  16.8699282  55.3562376  51.1641975  17.0639047  54.0653243  51.9308745
  23.5717490  44.9313354  43.1329630  22.7618219  44.5860439  43.5084876
  24.2601907  44.6220897  43.7217241  25.5008039  44.0091401  44.7553926
  26.0539077  44.4286854  45.4143950  25.7378125  43.0827149  44.7976882
  21.5241138  49.9978474  60.5356690  21.4237865  50.9472831  60.4668781
  21.3062680  49.6696713  59.6632760  20.7254209  47.2463399  37.1197368
  21.5873373  47.5718298  37.3793185  20.9104554  46.4594895  36.6070434
  12.7421625  55.3285739  49.3977557  12.0485097  54.9139692  48.8847511
  13.4894616  55.3706275  48.8010975  28.8786846  46.1191926  44.2632591
  28.2985515  46.7776730  43.8810643  28.6122779  45.2969270  43.8520008
  27.3290412  45.5196983  46.4653911  27.8290191  45.6313518  45.6568230
  27.9726020  45.2158036  47.1054719  21.3872408  53.4275613  59.3521752
  20.9039490  54.2275973  59.5585641  21.4733347  53.4383558  58.3989196
  14.6558368  55.2603993  47.2743571  14.6329056  55.3591680  46.3225454
  14.9659004  56.1069143  47.5960738  17.3145746  57.3180148  51.3890186
  18.2688999  57.2864090  51.3220117  17.1158269  56.8570771  52.2040412
  17.9045128  55.8881264  53.9560983  18.7238017  56.3825342  53.9795821
  18.1781935  54.9713232  53.9278551  27.6611724  48.2792016  43.3188939
  26.7737579  48.5641667  43.1009134  28.0765713  48.1185779  42.4716216
  31.0126260  48.3038537  47.0343278  31.7886650  48.7934989  47.3067895
  30.2874394  48.7296591  47.4915148  33.4498819  49.0166156  48.0917219
  34.0443309  48.7761892  47.3810527  33.5225402  48.2973287  48.7190755
  15.6695974  62.8599767  48.4060384  15.5350442  62.1000168  47.8398382
  15.2528037  63.5840667  47.9389173  26.8054937  58.0436691  37.4136959
  27.5090787  58.2486693  38.0294615  26.0817586  58.6113453  37.6786042
  27.6352748  53.7946552  43.5339229  27.5787949  54.2515103  42.6946862
  28.1881090  53.0337237  43.3562072  31.4457554  49.5836284  44.3589349
  31.1894488  49.1832920  45.1897556  30.8210422  50.2980078  44.2339488
  35.7569891  52.3232357  46.8660640  35.1969449  52.3925546  47.6392202
  35.1513395  52.1473342  46.1460136  18.8265100  63.7569084  48.6178826
  18.7097484  64.7014517  48.5157517  18.0057546  63.4542646  49.0064626
  28.7141635  58.4819220  39.4635419  29.5487239  58.0500418  39.2812894
  28.5525978  58.3101234  40.3912314  28.3687527  54.9851333  40.8291758
  28.3136331  54.8195605  39.8880202  27.7433582  55.6927366  40.9853948
  13.1580042  50.2219398  54.6553181  13.8038906  49.7118352  55.1440406
  12.9497193  50.9588079  55.2296606  25.6833434  57.2900245  60.1545321
  26.5524594  57.4640897  59.7931956  25.2040186  58.1094662  60.0321050
  21.6783652  44.4859442  40.4077077  21.6662322  45.4301282  40.5645348
  22.5707074  44.3029588  40.1136538  19.8519614  64.4097346  51.8334755
  20.7546861  64.4420956  52.1501250  19.6256984  63.4797797  51.8481091
  21.6073216  63.1628333  48.4944833  20.6568847  63.1630194  48.3809206
  21.9105702  62.4161067  47.9780868  25.4935772  41.0802219  44.6623014
  24.7268168  40.5260706  44.8079696  25.9046477  41.1524088  45.5237165
  17.4977533  47.3687015  58.7528195  18.3608994  47.0123820  58.9631519
  16.9242944  47.0300910  59.4403599  37.3425910  68.9988871  49.5590596
  37.9804320  68.8795618  48.8553936  37.2246753  69.9469715  49.6178548
  34.1515616  68.9516299  49.4952120  33.8134128  68.8357364  48.6072655
  35.0205384  68.5507464  49.4753127  30.0102432  70.8051776  45.4849011
  29.4467297  70.7141713  44.7165299  29.8954827  69.9851680  45.9651504
  34.6335399  70.1051151  55.4538326  34.6224040  69.7103949  54.5818830
  34.7956039  69.3717224  56.0472097  27.5566864  72.3002967  48.3233232
  28.3488156  71.9593792  47.9079531  27.7963514  72.4097942  49.2435385
  35.5901991  74.4722743  40.7963476  34.9389970  75.0576824  40.4097490
  36.3846353  75.0028938  40.8558514  29.5157618  71.5611880  41.1950611
  30.2888494  71.0140868  41.0563486  29.8683017  72.4256130  41.4065072
  31.3542660  72.8888263  54.4017510  31.0632526  73.7933894  54.2864176
  31.9899645  72.9304790  55.1161580  32.2798867  70.2665111  50.9918870
  32.8762439  70.0421134  50.2775833  32.3373839  69.5249857  51.5944317
  31.8523896  67.7204547  38.8269061  32.1049416  67.1986068  38.0652524
  30.9148455  67.5570692  38.9295744  36.8967178  66.7240325  46.6343804
  37.6830268  66.3059748  46.2834221  37.1605883  67.6286417  46.8025452
  37.0677256  72.1613175  41.3332461  36.4323089  72.2347802  42.0453365
  36.7374662  72.7506774  40.6551540  42.2975605  66.6615558  47.5376782
  43.0300777  66.0914775  47.7714612  41.5414961  66.2737159  47.9783288
  31.5720184  69.6232653  41.0293436  31.4556442  68.9477556  41.6974520
  31.6822444  69.1365026  40.2125589  33.9151725  69.0842800  44.7340125
  33.5509932  68.5573421  45.4453046  34.7718841  68.6941269  44.5606610
  39.8201026  60.3737132  51.9971391  39.4884351  61.2432543  51.7732606
  39.2246639  60.0573416  52.6765421  33.5557212  64.1132699  39.7301473
  33.7231615  64.9812936  40.0971944  33.3654381  64.2759981  38.8062763
  36.3132545  72.5749678  51.3967304  36.0133268  73.4774717  51.2883111
  35.9683605  72.3081861  52.2488457  29.7645027  69.0263475  47.4304008
  28.8395523  68.8939689  47.6381700  30.0129440  69.8057694  47.9273950
  39.7129689  65.0932218  49.0764741  38.8046566  65.0247627  48.7823502
  39.6617285  65.5704163  49.9046566  33.5346433  66.5690357  40.7148140
  33.4146058  67.0147408  41.5533620  32.8399021  66.9175674  40.1561678
  27.1253838  68.6696749  48.2647797  27.2546219  68.9231228  49.1787209
  26.4451289  69.2624457  47.9452452  31.2953325  79.3393999  44.3638271
  31.2177355  80.2901824  44.4426752  30.6914969  78.9939871  45.0213198
  33.7870555  66.5121864  57.0199638  33.0103889  67.0715784  57.0102503
  34.4261118  66.9978647  57.5414508  41.5791336  63.2948657  50.8542615
  40.9365716  63.5881190  50.2082409  41.0746264  63.1801577  51.6595812
  39.2331499  67.0411830  41.5428474  40.1449355  67.2739217  41.3676172
  38.7241146  67.6248874  40.9803553  32.0416927  69.3207317  56.5817605
  32.7831612  69.8592361  56.3052429  31.3353913  69.9473606  56.7389157
  37.5172267  71.4636458  55.1789767  37.9255623  71.0218868  54.4344399
  36.7949528  70.8889085  55.4323960  33.8703337  66.4009065  52.5523324
  34.7164532  66.8248478  52.6957973  33.8101975  65.7442689  53.2461887
  37.8401081  72.0237648  48.9342056  37.2109944  72.1883363  48.2318123
  37.4526744  72.4379258  49.7053020  41.7190313  72.9592086  46.2886419
  41.0341352  73.3390988  45.7383453  41.8034163  73.5687413  47.0218367
  37.0202782  64.0613433  54.2104497  36.7763714  64.8155493  53.6738773
  37.2962713  64.4398781  55.0451744  38.9741245  70.6052045  52.8881763
  39.1858140  71.2483805  52.2116144  38.9270993  69.7714362  52.4203693
  36.5767474  63.2169866  49.7918335  35.7151953  63.5151120  50.0835073
  36.6029909  63.4340265  48.8599368  33.3929043  71.7612057  46.1992141
  33.8567389  72.0399760  45.4096763  33.1285841  70.8595501  46.0165231
  30.2853124  71.3083538  49.1371904  30.8554482  71.7370806  48.4989388
  30.8761236  71.0266123  49.8356090  32.3297929  67.8835209  43.0081706
  33.0321973  68.3356253  43.4755632  31.9978558  67.2419028  43.6361599
  30.7778291  66.4746966  57.3832915  30.1476952  67.1563246  57.6168312
  30.6714379  66.3630047  56.4386054  26.0723263  66.1418762  48.3098839
  25.2822317  66.3976290  47.8338950  26.5634511  66.9567099  48.4150880
  40.0887073  73.4824001  51.0604120  40.9104517  73.0804188  50.7786802
  40.0849476  73.3792235  52.0120236  28.0238009  66.5063341  45.2682316
  27.2269172  66.6182035  45.7865812  27.7963601  66.8449993  44.4023207
  33.8543676  73.0308044  53.2164831  33.9188109  73.4928451  54.0523003
  33.1454600  72.4005409  53.3447141  24.3560966  66.3949252  50.7413830
  24.6069005  67.2796262  51.0071406  24.8920515  66.2153854  49.9688922
  48.1793066  69.8262749  47.4089092  47.4256774  69.2570147  47.2533096
  48.3140607  69.7925414  48.3559726  33.5691694  74.6976152  43.0843811
  33.4337369  75.5427687  43.5128659  34.1101507  74.8995429  42.3209745
  30.0559034  60.7767731  59.7458166  29.6625979  60.2233930  60.4205811
  30.8725174  61.0878310  60.1364684  27.0221091  72.2151590  43.6571736
  27.5345612  73.0094840  43.8077301  27.6743804  71.5177880  43.5905338
  28.8315976  75.3317346  45.7394489  29.0082604  76.2535311  45.5515473
  29.6272810  75.0175765  46.1688869  32.9726995  62.1925610  57.3378423
  33.7136708  62.7932764  57.2582885  33.2044918  61.4503248  56.7796465
  28.1168333  67.3781978  55.6156653  28.0021848  66.4767235  55.9163751
  27.2612850  67.6245674  55.2641469  29.9547292  76.8495520  51.7404832
  30.5054717  76.7212583  50.9681826  29.1158768  77.1490409  51.3899724
  37.2941408  75.6002518  55.2425554  37.2759884  76.4211399  54.7505824
  38.2161329  75.4756593  55.4675696  33.7514463  73.1146647  56.0849063
  34.2842799  72.3534936  55.8548371  33.2228544  72.8220299  56.8273217
  36.9184158  58.2206713  51.6142705  36.5748427  59.1108355  51.5381815
  37.2863120  58.0308371  50.7512290  24.9870008  70.5440244  44.4331307
  25.8245230  70.9537252  44.2165014  25.1648276  69.6039686  44.4031501
  36.8834440  68.2115324  40.1215140  36.3681064  68.9819929  40.3603527
  36.6111749  67.5380461  40.7448201  34.4681551  63.0565025  45.1800378
  33.6123148  62.6671876  45.0006017  34.8808503  63.1356986  44.3200164
  35.9980698  60.5911369  49.5791938  35.4945494  60.5541504  48.7659743
  36.2911305  61.5004111  49.6388594  32.2423584  60.6750098  48.5858120
  33.1076581  60.4792907  48.2264009  32.3101093  60.4460450  49.5127476
  41.8568714  70.9647679  42.0568313  41.0798157  70.6258839  41.6123475
  42.5360195  70.9700302  41.3823278  36.6720744  66.0842417  41.9474921
  36.3670879  66.3988566  42.7985064  37.6251186  66.1623836  41.9902254
  35.1167175  72.2432640  43.5967875  34.5888537  71.5085399  43.2841112
  34.6154678  73.0207316  43.3507843  40.0960021  70.4381660  48.7134921
  39.4383696  71.1280922  48.8015050  40.9000421  70.8278092  49.0568907
  29.8485903  62.9052306  45.9574486  30.4229655  62.6827488  45.2247679
  30.4356885  62.9741001  46.7103088  38.9065480  68.7926033  46.7638863
  39.4197362  69.4256025  47.2660573  39.5566704  68.1927229  46.3982223
  30.1755490  64.9356767  39.9770372  29.3392802  65.2731454  40.2979646
  30.0360260  64.8005747  39.0397509  32.1508571  59.7793555  44.6849556
  31.4972983  59.4642572  44.0606171  32.1089045  59.1569296  45.4109379
  33.2619776  70.0612850  36.6002848  32.3546837  69.8302104  36.7993997
  33.7590808  69.2650469  36.7876829  36.1687854  78.7710357  39.5199534
  35.4949553  79.0742054  40.1284492  36.5553676  79.5739438  39.1704991
  35.3846311  66.2675489  49.0097203  34.4668872  66.4890436  48.8518891
  35.8006455  66.3421799  48.1508911  36.1681359  67.6666904  44.1399884
  36.9153178  68.1788302  43.8307006  36.4372948  67.3450957  45.0004277
  34.4408009  70.1625445  41.1226838  33.5319228  69.8784478  41.2199308
  34.4703093  70.5824524  40.2630145  39.6727276  73.7732035  44.8918006
  39.2189603  72.9322944  44.9483196  39.0421243  74.4093433  45.2292786
  38.6160196  64.7024021  46.1218673  37.8782953  64.1901407  46.4528916
  38.8686969  64.2624402  45.3101950  38.1160216  75.6108531  45.8267824
  38.4083190  76.1713588  45.1080189  38.6258836  75.9037092  46.5820983
  38.7171823  57.4800273  46.7160442  39.0230700  56.6197636  46.4286357
  39.4424428  58.0717893  46.5159436  25.0096179  67.8830959  45.1042040
  24.8120579  67.2900320  44.3793107  24.4542843  67.5783169  45.8217979
  32.9892903  67.7754066  47.2236633  33.0441513  66.8227902  47.1479110
  32.1784105  67.9313505  47.7077932  34.1384097  71.7034189  38.4614917
  33.7003527  70.9870048  38.0020554  34.8794538  71.9310304  37.9000008
  30.9285263  66.3931125  44.9827012  30.1153128  66.6925296  45.3892204
  31.4244257  65.9986814  45.7001494  33.0793841  76.3888882  46.9161277
  33.0370020  76.6149729  45.9869809  33.9956540  76.1552257  47.0647078
  36.5259475  66.8572950  53.8141906  36.8808862  67.0844423  54.6736372
  37.1731606  67.1891327  53.1919161  42.2557212  69.9791386  44.5191235
  42.1175110  70.1692982  43.5912424  41.8993430  70.7410769  44.9759286
  30.4199338  63.9649481  50.5988247  31.0598717  63.8238240  49.9011210
  29.5876868  63.6783994  50.2226849  42.2826591  72.0467913  49.5302507
  42.7163098  71.9543202  50.3785561  42.9958172  72.0225413  48.8922523
  31.1959642  73.2651911  46.7123240  31.9900240  72.7702231  46.5105815
  30.4851334  72.7369774  46.3490945  36.0154486  75.6470007  51.0635607
  36.0691508  76.2160943  51.8313323  35.1469267  75.8171892  50.6989644
  27.5042405  67.4094993  42.7882992  26.5739993  67.3479449  43.0052954
  27.5999877  66.8870946  41.9919634  27.4227954  63.9349806  45.3761234
  27.6834771  64.8495139  45.2670394  28.2445126  63.4674248  45.5257847
  28.8952879  65.3487563  52.5460058  29.5675933  65.1404925  51.8972707
  28.0682666  65.1509649  52.1065291  43.1442141  72.0891613  52.0635392
  43.3378031  72.9937424  52.3094667  43.0442759  71.6299032  52.8973977
  34.7978451  61.9749504  54.5625719  34.1506366  62.6739454  54.4690196
  35.5679467  62.4085648  54.9301968  38.2057249  72.2398356  57.6376273
  38.0542756  72.0108908  56.7206356  38.1961929  73.1968958  57.6507618
  34.9742586  69.8130269  52.6222539  35.9034646  69.9641429  52.4491506
  34.5533616  69.9014290  51.7671186  33.7730918  73.8380933  50.3921077
  33.6342003  73.4699718  51.2647015  32.9845514  74.3528573  50.2205034
  34.3679070  78.9390030  41.7346613  34.5430825  78.4678073  42.5492236
  33.6811858  79.5655796  41.9627874  35.3236133  73.2162536  47.7809914
  34.9885965  73.1763306  48.6767564  34.8240078  72.5507252  47.3080325
  29.2980377  68.6230166  53.3062496  29.1600175  67.8910405  53.9074035
  30.2085300  68.5339066  53.0246683  38.2595324  70.5618570  38.0546974
  37.6424495  69.8365399  37.9580027  37.7911813  71.3227931  37.7114048
  31.9262677  68.3350125  52.7946175  32.6362296  67.6943318  52.7532794
  31.8831986  68.5863020  53.7172356  39.9149456  75.2717479  55.7152754
  39.8562002  74.5876699  55.0483337  40.3168974  76.0136469  55.2633380
  30.6391611  65.3215343  54.6141815  30.1028968  64.8706082  55.2663411
  30.0508320  65.4561252  53.8712279  28.9340155  82.0879393  48.5086473
  29.1736753  82.7197917  49.1865492  28.0909351  81.7367433  48.7951833
  30.0493870  64.7803995  37.1768278  29.1723337  64.6592795  36.8130525
  30.5251623  63.9890073  36.9247167  39.9166863  73.2357063  53.9466734
  39.0293642  72.8982984  54.0693133  40.4865414  72.5040094  54.1835500
  21.5696010  69.5681154  47.2709786  22.2567050  69.2542884  46.6830801
  21.4144139  70.4722519  46.9977037  26.3730733  64.4571351  51.6994809
  26.2888921  63.8497021  50.9645219  25.5513439  64.9480369  51.7004306
  33.4468017  77.8958515  50.9127977  33.3738188  78.7013486  51.4247282
  33.0045410  78.0950481  50.0875999  33.2357796  77.1330285  44.4230799
  32.4525318  77.6751965  44.5169023  33.9350542  77.6504265  44.8225040
  36.5454446  62.9424914  47.0665004  37.0423146  62.1894877  46.7466075
  35.7741428  62.9789231  46.5008214  44.3984204  68.6465280  48.7083296
  44.3874080  69.5289995  48.3377229  43.5301583  68.2936831  48.5137833
  35.9066700  77.7945349  53.0686136  36.6194672  78.4292814  52.9962037
  35.4156729  77.8909215  52.2526138  37.6284227  71.6996602  44.6403428
  36.6940506  71.8198064  44.4708132  37.8060896  70.7969068  44.3763438
  33.1289415  65.0842297  46.7936689  32.7587203  64.5313338  47.4817594
  33.6248508  64.4800431  46.2411689  41.0156778  67.5413921  45.1753462
  41.4817231  68.3741913  45.1013764  41.4664279  67.0758903  45.8798720
  30.9578614  75.5439792  53.8891707  31.6588073  76.1776275  54.0421101
  30.4873729  75.8854524  53.1287346  39.0833010  73.8857742  42.1739614
  39.3592853  73.7714337  43.0833488  38.2137508  73.4875227  42.1351787
  38.9873441  59.9094508  49.2144363  38.0736521  60.1398735  49.3826570
  39.4166543  59.9932952  50.0658396  38.7579900  68.0984400  51.7144257
  38.1051350  68.3460307  51.0596710  39.1360280  67.2848538  51.3806734
  35.7187074  78.1344093  45.8172427  35.9009468  77.3165749  46.2800180
  36.5420060  78.3511785  45.3797317  36.0529239  77.0612278  43.0787476
  36.5817006  76.5504733  42.4657638  36.3157459  76.7454808  43.9433009
  34.8067473  68.8404211  58.2010294  34.1308110  68.7398340  58.8712669
  35.6295107  68.6843425  58.6646291  26.5546332  75.0776148  50.8222810
  27.1399769  74.3319835  50.9550714  26.3571170  75.3880104  51.7059473
  29.4084987  78.1127395  45.8385252  28.7395362  78.5973523  45.3549292
  29.2697857  78.3596615  46.7528630  21.1463987  67.6481748  49.5427253
  21.1848086  67.1145338  50.3364371  20.6404279  67.1216953  48.9238230
  33.5490256  80.1471138  52.4367910  34.1008564  80.3102760  53.2016995
  33.8896449  80.7375576  51.7647935  28.5254749  62.4946288  53.0389795
  28.5896075  63.3561119  52.6267193  28.4621869  61.8820290  52.3062153
  28.0007021  64.5669421  56.6862829  28.6279060  64.1846498  57.3000354
  27.1434940  64.3483623  57.0518522  24.7772564  66.3745850  42.6181184
  25.0726005  65.4656528  42.5648238  23.8760600  66.3533589  42.2962186
  36.6858643  78.0953114  49.4231592  36.5609782  77.2942854  48.9142538
  37.3437734  78.5899307  48.9345562  28.3066811  64.4501846  48.6008733
  27.5853397  65.0637814  48.4616206  29.0960067  64.9859611  48.5225379
  38.7493551  75.8962134  51.0511143  37.8023887  75.7767485  50.9789469
  39.0976324  75.0084632  51.1337404  31.1093125  61.7856273  54.8749384
  31.6327526  62.0318570  55.6375694  30.8905458  62.6176308  54.4552522
  26.5060406  64.0559948  42.7420509  26.1773112  63.1757326  42.5595615
  26.8599776  64.0007616  43.6296898  35.7539985  75.6914850  47.2515495
  35.6064947  74.7631558  47.4323065  36.5793478  75.7134941  46.7672570
  29.6202229  64.3432917  43.1095987  29.9598301  64.8718839  42.3874595
  30.0674349  64.6813323  43.8854553  39.3574106  76.5143409  48.3380367
  40.2820654  76.3086270  48.2004819  39.1889410  76.2659810  49.2469709
  32.3145670  62.7269968  52.5599055  31.9742490  61.9277781  52.9619735
  31.6084676  63.0271679  51.9875888  32.9662142  59.8119280  51.0126378
  33.7888211  59.3379759  50.8905268  33.2100205  60.5909764  51.5125064
  31.6070376  62.8407539  41.3089280  32.3278739  63.2188792  40.8052996
  30.9835680  63.5596416  41.4124258  35.7501499  63.5452688  42.2447612
  35.9665113  64.4277326  41.9436440  35.2695566  63.1538901  41.5153254
  30.4900720  66.5038401  48.8218357  30.3445301  66.8178704  49.7142638
  30.0125924  67.1223301  48.2689255  32.3497103  63.4940949  48.8699246
  32.3358672  62.5982042  48.5331544  33.0669531  63.5011613  49.5037532
  34.2023234  63.9278289  50.9152374  33.9441012  64.8495360  50.9136704
  33.6708274  63.5308724  51.6052838  39.1469423  77.0329076  43.6942459
  39.3206300  76.4675499  42.9416311  39.6398314  77.8329971  43.5121949
  24.9646382  69.0443746  51.7606018  24.4199851  69.8203554  51.8926292
  25.8425732  69.3914550  51.6025139  31.7533999  62.3755329  44.1386816
  31.8749910  61.4471976  44.3377704  31.4636041  62.3894015  43.2265132
  34.6225189  60.0610240  47.2753536  34.6446886  60.1249573  46.3205516
  35.0393249  59.2214748  47.4694042  45.0008814  69.7965499  45.3132759
  45.4439960  69.0472825  44.9151882  44.1235324  69.7875636  44.9306491
  40.1344595  76.3495841  40.7939357  40.8295500  76.9702534  41.0126672
  40.4767745  75.4991192  41.0691735  25.7512404  68.1713642  54.6536175
  25.0094140  68.3196277  55.2400805  25.4305149  68.4321907  53.7902924
  42.0336018  73.7995546  42.3226688  42.5587342  74.1382819  41.5976008
  41.9458371  72.8642562  42.1389823  33.6956067  77.7129620  54.4516565
  34.0043193  77.4678767  55.3239264  34.4931549  77.9176259  53.9635435
  33.7176679  79.8667530  46.6821941  33.2781669  79.3743908  47.3754798
  34.4684796  79.3240497  46.4414016  26.1969018  76.0579071  46.6846569
  27.0227038  75.7582842  46.3045213  25.8463070  75.2886693  47.1336358
  31.1650551  75.4105539  48.7544243  30.5430560  74.7476244  48.4546471
  31.8355418  75.4366671  48.0717891  24.3977623  73.9765397  47.6435503
  23.5609531  73.5487571  47.4619504  24.3701268  74.1697840  48.5806294
  31.2375079  63.8887327  58.3476749  31.2863234  64.7649450  57.9654518
  31.7797593  63.3464720  57.7748392  41.7229924  74.4328450  57.6277886
  40.9325468  74.4152589  57.0882385  41.4863279  74.9716744  58.3826923
  41.8427799  71.2820916  54.9410614  41.8925804  71.1170924  55.8826137
  41.7341723  70.4148175  54.5508495  30.7264058  73.9609462  42.2302703
  30.8752178  74.6444926  41.5769376  31.5330502  73.9414552  42.7452159
  39.1331562  67.2651844  56.2569921  40.0341425  67.1258309  55.9653919
  39.2079536  67.4306299  57.1968099  33.4674367  64.6418699  55.1023108
  32.5977676  64.9352265  54.8305696  33.7033847  65.2259144  55.8230371
  43.3445996  73.7017858  55.1852636  43.0530805  74.0647838  56.0216097
  42.7318127  72.9884866  55.0065968  44.5441679  71.2670738  47.7055206
  45.3788570  71.7060542  47.8692767  44.6800807  70.7909391  46.8863452
  41.5933184  68.8250473  53.6532694  42.0687306  69.0178119  52.8451545
  40.6698750  68.8809658  53.4076078  28.4816691  69.9874640  43.2363772
  28.2362733  69.0836970  43.4343982  28.6512606  69.9891790  42.2943250
  36.1713401  60.8598316  52.6188528  36.6895345  61.5959343  52.2935016
  35.8168534  61.1662309  53.4535287  27.7512339  65.7202997  40.7349934
  27.0581584  65.7947352  40.0789970  27.5064090  64.9563341  41.2571451
  36.4225995  57.2798599  48.1389425  36.7027749  56.6121788  48.7649851
  37.2076602  57.4727694  47.6264088  34.2259464  76.4557593  39.7014451
  33.6533431  77.0747780  39.2484923  34.7992257  77.0056954  40.2354373
  40.2934853  65.7016233  51.8861000  41.2452276  65.8014330  51.9073224
  40.1238304  64.9094501  52.3959084  38.3149233  62.7871816  52.0720401
  37.7199165  63.0676829  51.3766889  38.0298930  63.2765717  52.8437142
  37.4456723  76.7394743  40.8323033  38.3787397  76.6740304  41.0355909
  37.3579936  77.5751010  40.3737566  40.0744740  76.0560613  37.7926981
  39.9958372  75.7220477  38.6862739  40.8954407  76.5482381  37.7918453
  42.7722931  68.9222352  51.0003299  42.7399251  67.9838353  51.1862983
  43.3823555  69.0006389  50.2669124  34.6106262  67.7918405  37.0430503
  35.5565367  67.6624613  37.1118921  34.2320507  67.0533067  37.5199931
  42.9217420  65.7133396  51.0461582  42.4056468  64.9291852  50.8591511
  43.8057368  65.3852112  51.2108102  40.5828147  59.4574411  47.0057395
  40.3852968  59.1489500  47.8900727  41.1927852  60.1836050  47.1355325
  48.5899481  69.9838359  50.1409336  49.3202870  69.7223647  50.7017039
  47.9806427  69.2467081  50.1811404  46.6714778  68.1246222  50.7383787
  45.9447942  67.9902187  50.1300279  46.2562065  68.4323050  51.5440505
  34.4944955  71.8436151  58.5031160  35.4147964  72.0214750  58.6971207
  34.4594538  70.8992197  58.3510860  32.7949179  65.7168382  36.9785389
  31.8880635  65.4201494  37.0548102  33.0725160  65.4198200  36.1119675
  23.7127120  67.0374745  47.4284435  23.3929904  66.1840053  47.1358809
  23.1660548  67.2523323  48.1842402  27.4907027  69.7537186  51.1453941
  27.7093037  70.6854294  51.1641975  27.9032801  69.3945160  51.9308745
  34.4111245  60.2605271  43.1329630  33.6011973  59.9152356  43.5084876
  35.0995662  59.9512815  43.7217241  36.3401793  59.3383318  44.7553926
  36.8932832  59.7578772  45.4143950  36.5771880  58.4119066  44.7976882
  32.3634892  65.3270392  60.5356690  32.2631619  66.2764749  60.4668781
  32.1456435  64.9988631  59.6632760  31.5647964  62.5755317  37.1197368
  32.4267128  62.9010215  37.3793185  31.7498308  61.7886813  36.6070434
  23.5815380  70.6577657  49.3977557  22.8878851  70.2431609  48.8847511
  24.3288371  70.6998193  48.8010975  39.7180600  61.4483843  44.2632591
  39.1379269  62.1068647  43.8810643  39.4516533  60.6261188  43.8520008
  38.1684167  60.8488901  46.4653911  38.6683945  60.9605436  45.6568230
  38.8119775  60.5449954  47.1054719  32.2266163  68.7567531  59.3521752
  31.7433244  69.5567891  59.5585641  32.3127102  68.7675476  58.3989196
  25.4952122  70.5895910  47.2743571  25.4722810  70.6883598  46.3225454
  25.8052759  71.4361061  47.5960738  28.1539500  72.6472065  51.3890186
  29.1082754  72.6156008  51.3220117  27.9552024  72.1862689  52.2040412
  28.7438882  71.2173181  53.9560983  29.5631771  71.7117260  53.9795821
  29.0175690  70.3005150  53.9278551  38.5005478  63.6083934  43.3188939
  37.6131333  63.8933584  43.1009134  38.9159467  63.4477697  42.4716216
  41.8520015  63.6330455  47.0343278  42.6280405  64.1226907  47.3067895
  41.1268149  64.0588509  47.4915148  44.2892573  64.3458074  48.0917219
  44.8837064  64.1053810  47.3810527  44.3619157  63.6265205  48.7190755
  26.5089729  78.1891685  48.4060384  26.3744197  77.4292086  47.8398382
  26.0921791  78.9132585  47.9389173  37.6448692  73.3728608  37.4136959
  38.3484542  73.5778611  38.0294615  36.9211341  73.9405370  37.6786042
  38.4746502  69.1238470  43.5339229  38.4181704  69.5807021  42.6946862
  39.0274845  68.3629154  43.3562072  42.2851308  64.9128202  44.3589349
  42.0288242  64.5124837  45.1897556  41.6604176  65.6271995  44.2339488
  46.5963646  67.6524275  46.8660640  46.0363204  67.7217464  47.6392202
  45.9907149  67.4765259  46.1460136  29.6658855  79.0861002  48.6178826
  29.5491239  80.0306434  48.5157517  28.8451301  78.7834563  49.0064626
  39.5535389  73.8111138  39.4635419  40.3880993  73.3792336  39.2812894
  39.3919732  73.6393151  40.3912314  39.2081281  70.3143251  40.8291758
  39.1530085  70.1487522  39.8880202  38.5827337  71.0219284  40.9853948
  23.9973796  65.5511315  54.6553181  24.6432660  65.0410269  55.1440406
  23.7890948  66.2879997  55.2296606  32.5177407  59.8151360  40.4077077
  32.5056077  60.7593200  40.5645348  33.4100829  59.6321505  40.1136538
  30.6913369  79.7389264  51.8334755  31.5940616  79.7712874  52.1501250
  30.4650739  78.8089715  51.8481091  32.4466971  78.4920250  48.4944833
  31.4962602  78.4922112  48.3809206  32.7499457  77.7452985  47.9780868
  36.3329526  56.4094137  44.6623014  35.5661922  55.8552623  44.8079696
  36.7440231  56.4816005  45.5237165  28.3371287  62.6978932  58.7528195
  29.2002749  62.3415737  58.9631519  27.7636698  62.3592827  59.4403599
  48.1819664  84.3280789  49.5590596  48.8198074  84.2087536  48.8553936
  48.0640507  85.2761633  49.6178548  44.9909371  84.2808217  49.4952120
  44.6527882  84.1649282  48.6072655  45.8599139  83.8799382  49.4753127
  40.8496186  86.1343693  45.4849011  40.2861051  86.0433630  44.7165299
  40.7348581  85.3143598  45.9651504  45.4729154  85.4343069  55.4538326
  45.4617794  85.0395867  54.5818830  45.6349793  84.7009141  56.0472097
  38.3960618  87.6294885  48.3233232  39.1881910  87.2885709  47.9079531
  38.6357268  87.7389860  49.2435385  46.4295745  89.8014661  40.7963476
  45.7783725  90.3868741  40.4097490  47.2240108  90.3320856  40.8558514
  40.3551372  86.8903798  41.1950611  41.1282248  86.3432785  41.0563486
  40.7076771  87.7548047  41.4065072  42.1936415  88.2180180  54.4017510
  41.9026281  89.1225811  54.2864176  42.8293399  88.2596708  55.1161580
  43.1192622  85.5957029  50.9918870  43.7156194  85.3713051  50.2775833
  43.1767593  84.8541774  51.5944317  42.6917650  83.0496464  38.8269061
  42.9443171  82.5277985  38.0652524  41.7542209  82.8862610  38.9295744
  47.7360933  82.0532243  46.6343804  48.5224022  81.6351666  46.2834221
  47.9999637  82.9578335  46.8025452  47.9071010  87.4905093  41.3332461
  47.2716843  87.5639719  42.0453365  47.5768417  88.0798692  40.6551540
  53.1369360  81.9907476  47.5376782  53.8694532  81.4206693  47.7714612
  52.3808716  81.6029076  47.9783288  42.4113939  84.9524570  41.0293436
  42.2950197  84.2769474  41.6974520  42.5216199  84.4656944  40.2125589
  44.7545480  84.4134717  44.7340125  44.3903687  83.8865338  45.4453046
  45.6112596  84.0233186  44.5606610  50.6594780  75.7029050  51.9971391
  50.3278105  76.5724461  51.7732606  50.0640394  75.3865334  52.6765421
  44.3950967  79.4424617  39.7301473  44.5625369  80.3104853  40.0971944
  44.2048136  79.6051899  38.8062763  47.1526300  87.9041596  51.3967304
  46.8527023  88.8066635  51.2883111  46.8077359  87.6373779  52.2488457
  40.6038781  84.3555393  47.4304008  39.6789278  84.2231607  47.6381700
  40.8523195  85.1349612  47.9273950  50.5523444  80.4224136  49.0764741
  49.6440321  80.3539544  48.7823502  50.5011039  80.8996081  49.9046566
  44.3740188  81.8982274  40.7148140  44.2539813  82.3439325  41.5533620
  43.6792776  82.2467592  40.1561678  37.9647592  83.9988666  48.2647797
  38.0939974  84.2523145  49.1787209  37.2845044  84.5916374  47.9452452
  42.1347080  94.6685916  44.3638271  42.0571109  95.6193741  44.4426752
  41.5308723  94.3231789  45.0213198  44.6264309  81.8413782  57.0199638
  43.8497643  82.4007702  57.0102503  45.2654872  82.3270565  57.5414508
  52.4185090  78.6240574  50.8542615  51.7759470  78.9173108  50.2082409
  51.9140019  78.5093495  51.6595812  50.0725254  82.3703748  41.5428474
  50.9843110  82.6031134  41.3676172  49.5634901  82.9540792  40.9803553
  42.8810682  84.6499235  56.5817605  43.6225366  85.1884279  56.3052429
  42.1747667  85.2765524  56.7389157  48.3566021  86.7928375  55.1789767
  48.7649377  86.3510786  54.4344399  47.6343283  86.2181003  55.4323960
  44.7097091  81.7300982  52.5523324  45.5558287  82.1540396  52.6957973
  44.6495729  81.0734607  53.2461887  48.6794836  87.3529566  48.9342056
  48.0503698  87.5175280  48.2318123  48.2920498  87.7671176  49.7053020
  52.5584068  88.2884004  46.2886419  51.8735106  88.6682905  45.7383453
  52.6427917  88.8979331  47.0218367  47.8596537  79.3905351  54.2104497
  47.6157469  80.1447411  53.6738773  48.1356467  79.7690698  55.0451744
  49.8134999  85.9343963  52.8881763  50.0251895  86.5775723  52.2116144
  49.7664748  85.1006280  52.4203693  47.4161228  78.5461784  49.7918335
  46.5545707  78.8443037  50.0835073  47.4423663  78.7632183  48.8599368
  44.2322798  87.0903974  46.1992141  44.6961143  87.3691677  45.4096763
  43.9679596  86.1887419  46.0165231  41.1246879  86.6375456  49.1371904
  41.6948236  87.0662724  48.4989388  41.7154991  86.3558040  49.8356090
  43.1691684  83.2127127  43.0081706  43.8715727  83.6648170  43.4755632
  42.8372312  82.5710945  43.6361599  41.6172045  81.8038883  57.3832915
  40.9870706  82.4855164  57.6168312  41.5108133  81.6921965  56.4386054
  36.9117018  81.4710679  48.3098839  36.1216072  81.7268208  47.8338950
  37.4028265  82.2859017  48.4150880  50.9280827  88.8115918  51.0604120
  51.7498271  88.4096106  50.7786802  50.9243230  88.7084153  52.0120236
  38.8631763  81.8355258  45.2682316  38.0662927  81.9473953  45.7865812
  38.6357355  82.1741911  44.4023207  44.6937431  88.3599962  53.2164831
  44.7581863  88.8220369  54.0523003  43.9848355  87.7297327  53.3447141
  35.1954721  81.7241170  50.7413830  35.4462759  82.6088180  51.0071406
  35.7314269  81.5445771  49.9688922  59.0186820  85.1554667  47.4089092
  58.2650529  84.5862065  47.2533096  59.1534362  85.1217331  48.3559726
  44.4085449  90.0268069  43.0843811  44.2731123  90.8719605  43.5128659
  44.9495261  90.2287347  42.3209745  37.8614846  87.5443507  43.6571736
  38.3739366  88.3386757  43.8077301  38.5137559  86.8469798  43.5905338
  39.6709731  90.6609264  45.7394489  39.8476359  91.5827228  45.5515473
  40.4666564  90.3467683  46.1688869  43.8120749  77.5217528  57.3378423
  44.5530463  78.1224681  57.2582885  44.0438672  76.7795166  56.7796465
  38.9562087  82.7073895  55.6156653  38.8415602  81.8059153  55.9163751
  38.1006605  82.9537592  55.2641469  46.0353925  90.6491636  57.2144153
  45.5917779  89.8628014  56.8965058  46.6971138  90.8370786  56.5488044
  40.7941046  92.1787437  51.7404832  41.3448471  92.0504501  50.9681826
  39.9552522  92.4782326  51.3899724  48.1335163  90.9294436  55.2425554
  48.1153638  91.7503317  54.7505824  49.0555083  90.8048511  55.4675696
  44.5908217  88.4438565  56.0849063  45.1236554  87.6826853  55.8548371
  44.0622298  88.1512217  56.8273217  47.7577912  73.5498631  51.6142705
  47.4142181  74.4400273  51.5381815  48.1256875  73.3600289  50.7512290
  35.8263763  85.8732162  44.4331307  36.6638985  86.2829170  44.2165014
  36.0042030  84.9331604  44.4031501  47.7228195  83.5407242  40.1215140
  47.2074818  84.3111847  40.3603527  47.4505503  82.8672378  40.7448201
  45.3075306  78.3856943  45.1800378  44.4516902  77.9963793  45.0006017
  45.7202258  78.4648904  44.3200164  46.8374452  75.9203286  49.5791938
  46.3339248  75.8833421  48.7659743  47.1305059  76.8296029  49.6388594
  43.0817338  76.0042016  48.5858120  43.9470335  75.8084825  48.2264009
  43.1494847  75.7752368  49.5127476  52.6962469  86.2939597  42.0568313
  51.9191912  85.9550756  41.6123475  53.3753950  86.2992220  41.3823278
  47.5114498  81.4134334  41.9474921  47.2064634  81.7280483  42.7985064
  48.4644940  81.4915754  41.9902254  45.9560930  87.5724558  43.5967875
  45.4282291  86.8377317  43.2841112  45.4548433  88.3499234  43.3507843
  50.9353776  85.7673578  48.7134921  50.2777450  86.4572839  48.8015050
  51.7394175  86.1570010  49.0568907  40.6879657  78.2344224  45.9574486
  41.2623409  78.0119405  45.2247679  41.2750640  78.3032918  46.7103088
  49.7459235  84.1217951  46.7638863  50.2591116  84.7547943  47.2660573
  50.3960459  83.5219146  46.3982223  41.0149245  80.2648685  39.9770372
  40.1786557  80.6023371  40.2979646  40.8754014  80.1297665  39.0397509
  42.9902325  75.1085473  44.6849556  42.3366738  74.7934490  44.0606171
  42.9482799  74.4861213  45.4109379  44.1013530  85.3904768  36.6002848
  43.1940592  85.1594021  36.7993997  44.5984562  84.5942387  36.7876829
  47.0081609  94.1002275  39.5199534  46.3343308  94.4033972  40.1284492
  47.3947431  94.9031355  39.1704991  46.2240066  81.5967406  49.0097203
  45.3062627  81.8182353  48.8518891  46.6400209  81.6713717  48.1508911
  47.0075113  82.9958822  44.1399884  47.7546932  83.5080219  43.8307006
  47.2766703  82.6742875  45.0004277  45.2801763  85.4917363  41.1226838
  44.3712983  85.2076396  41.2199308  45.3096847  85.9116441  40.2630145
  50.5121031  89.1023952  44.8918006  50.0583358  88.2614862  44.9483196
  49.8814998  89.7385351  45.2292786  49.4553950  80.0315938  46.1218673
  48.7176707  79.5193324  46.4528916  49.7080724  79.5916320  45.3101950
  48.9553970  90.9400449  45.8267824  49.2476944  91.5005506  45.1080189
  49.4652591  91.2329010  46.5820983  49.5565578  72.8092190  46.7160442
  49.8624455  71.9489554  46.4286357  50.2818183  73.4009810  46.5159436
  35.8489934  83.2122877  45.1042040  35.6514334  82.6192238  44.3793107
  35.2936598  82.9075087  45.8217979  43.8286658  83.1045983  47.2236633
  43.8835267  82.1519820  47.1479110  43.0177860  83.2605422  47.7077932
  44.9777851  87.0326106  38.4614917  44.5397281  86.3161965  38.0020554
  45.7188292  87.2602221  37.9000008  41.7679017  81.7223043  44.9827012
  40.9546883  82.0217214  45.3892204  42.2638012  81.3278732  45.7001494
  43.9187595  91.7180800  46.9161277  43.8763774  91.9441646  45.9869809
  44.8350294  91.4844175  47.0647078  47.3653229  82.1864868  53.8141906
  47.7202617  82.4136341  54.6736372  48.0125360  82.5183244  53.1919161
  53.0950966  85.3083303  44.5191235  52.9568865  85.4984899  43.5912424
  52.7387185  86.0702686  44.9759286  41.2593092  79.2941399  50.5988247
  41.8992472  79.1530158  49.9011210  40.4270623  79.0075912  50.2226849
  53.1220346  87.3759830  49.5302507  53.5556852  87.2835120  50.3785561
  53.8351926  87.3517331  48.8922523  42.0353396  88.5943829  46.7123240
  42.8293995  88.0994149  46.5105815  41.3245088  88.0661692  46.3490945
  46.8548241  90.9761925  51.0635607  46.9085263  91.5452861  51.8313323
  45.9863022  91.1463810  50.6989644  38.3436160  82.7386911  42.7882992
  37.4133748  82.6771366  43.0052954  38.4393632  82.2162864  41.9919634
  38.2621709  79.2641724  45.3761234  38.5228526  80.1787057  45.2670394
  39.0838881  78.7966166  45.5257847  39.7346634  80.6779481  52.5460058
  40.4069687  80.4696843  51.8972707  38.9076420  80.4801567  52.1065291
  53.9835895  87.4183531  52.0635392  54.1771785  88.3229342  52.3094667
  53.8836513  86.9590950  52.8973977  45.6372206  77.3041422  54.5625719
  44.9900121  78.0031371  54.4690196  46.4073221  77.7377566  54.9301968
  49.0451004  87.5690274  57.6376273  48.8936510  87.3400826  56.7206356
  49.0355683  88.5260875  57.6507618  45.8136340  85.1422187  52.6222539
  46.7428400  85.2933346  52.4491506  45.3927370  85.2306207  51.7671186
  44.6124672  89.1672851  50.3921077  44.4735758  88.7991635  51.2647015
  43.8239268  89.6820490  50.2205034  45.2072824  94.2681947  41.7346613
  45.3824580  93.7969991  42.5492236  44.5205612  94.8947714  41.9627874
  46.1629887  88.5454454  47.7809914  45.8279720  88.5055224  48.6767564
  45.6633833  87.8799170  47.3080325  40.1374131  83.9522084  53.3062496
  39.9993929  83.2202323  53.9074035  41.0479055  83.8630984  53.0246683
  49.0989079  85.8910488  38.0546974  48.4818250  85.1657316  37.9580027
  48.6305567  86.6519848  37.7114048  42.7656432  83.6642043  52.7946175
  43.4756050  83.0235235  52.7532794  42.7225740  83.9154938  53.7172356
  50.7543211  90.6009396  55.7152754  50.6955757  89.9168617  55.0483337
  51.1562729  91.3428386  55.2633380  41.4785366  80.6507261  54.6141815
  40.9422723  80.1997999  55.2663411  40.8902074  80.7853170  53.8712279
  39.7733909  97.4171310  48.5086473  40.0130508  98.0489834  49.1865492
  38.9303106  97.0659350  48.7951833  40.8887625  80.1095912  37.1768278
  40.0117091  79.9884713  36.8130525  41.3645378  79.3181991  36.9247167
  50.7560618  88.5648980  53.9466734  49.8687397  88.2274902  54.0693133
  51.3259169  87.8332012  54.1835500  32.4089765  84.8973072  47.2709786
  33.0960805  84.5834802  46.6830801  32.2537894  85.8014437  46.9977037
  37.2124487  79.7863269  51.6994809  37.1282676  79.1788938  50.9645219
  36.3907193  80.2772287  51.7004306  44.2861771  93.2250433  50.9127977
  44.2131943  94.0305404  51.4247282  43.8439164  93.4242398  50.0875999
  44.0751551  92.4622203  44.4230799  43.2919073  93.0043883  44.5169023
  44.7744296  92.9796182  44.8225040  47.3848201  78.2716832  47.0665004
  47.8816900  77.5186794  46.7466075  46.6135182  78.3081149  46.5008214
  55.2377958  83.9757198  48.7083296  55.2267835  84.8581913  48.3377229
  54.3695338  83.6228749  48.5137833  46.7460455  93.1237267  53.0686136
  47.4588427  93.7584732  52.9962037  46.2550483  93.2201133  52.2526138
  48.4677982  87.0288519  44.6403428  47.5334260  87.1489982  44.4708132
  48.6454650  86.1260986  44.3763438  43.9683170  80.4134215  46.7936689
  43.5980957  79.8605256  47.4817594  44.4642262  79.8092349  46.2411689
  51.8550533  82.8705839  45.1753462  52.3210985  83.7033830  45.1013764
  52.3058033  82.4050820  45.8798720  41.7972368  90.8731710  53.8891707
  42.4981828  91.5068193  54.0421101  41.3267483  91.2146442  53.1287346
  49.9226764  89.2149660  42.1739614  50.1986608  89.1006255  43.0833488
  49.0531263  88.8167145  42.1351787  49.8267196  75.2386426  49.2144363
  48.9130276  75.4690652  49.3826570  50.2560297  75.3224870  50.0658396
  49.5973654  83.4276318  51.7144257  48.9445104  83.6752225  51.0596710
  49.9754034  82.6140456  51.3806734  46.5580828  93.4636011  45.8172427
  46.7403223  92.6457667  46.2800180  47.3813814  93.6803703  45.3797317
  46.8922994  92.3904196  43.0787476  47.4210760  91.8796651  42.4657638
  47.1551213  92.0746726  43.9433009  45.6461227  84.1696129  58.2010294
  44.9701864  84.0690258  58.8712669  46.4688861  84.0135342  58.6646291
  37.3940086  90.4068065  50.8222810  37.9793523  89.6611753  50.9550714
  37.1964925  90.7172022  51.7059473  40.2478742  93.4419313  45.8385252
  39.5789117  93.9265440  45.3549292  40.1091611  93.6888533  46.7528630
  31.9857741  82.9773665  49.5427253  32.0241841  82.4437256  50.3364371
  31.4798034  82.4508871  48.9238230  44.3884010  95.4763056  52.4367910
  44.9402318  95.6394678  53.2016995  44.7290204  96.0667494  51.7647935
  39.3648503  77.8238206  53.0389795  39.4289830  78.6853037  52.6267193
  39.3015624  77.2112208  52.3062153  38.8400776  79.8961338  56.6862829
  39.4672815  79.5138416  57.3000354  37.9828695  79.6775540  57.0518522
  49.2394884  90.3024314  58.2916565  49.7834788  90.9154272  57.7971519
  48.6581729  90.8603892  58.8083578  35.6166319  81.7037768  42.6181184
  35.9119760  80.7948446  42.5648238  34.7154354  81.6825507  42.2962186
  47.5252397  93.4245032  49.4231592  47.4003537  92.6234771  48.9142538
  48.1831489  93.9191225  48.9345562  39.1460566  79.7793764  48.6008733
  38.4247151  80.3929732  48.4616206  39.9353821  80.3151529  48.5225379
  49.5887306  91.2254052  51.0511143  48.6417641  91.1059403  50.9789469
  49.9370079  90.3376550  51.1337404  41.9486879  77.1148191  54.8749384
  42.4721281  77.3610487  55.6375694  41.7299212  77.9468225  54.4552522
  37.3454160  79.3851865  42.7420509  37.0166866  78.5049244  42.5595615
  37.6993531  79.3299534  43.6296898  46.5933739  91.0206768  47.2515495
  46.4458702  90.0923475  47.4323065  47.4187233  91.0426859  46.7672570
  40.4595983  79.6724835  43.1095987  40.7992056  80.2010756  42.3874595
  40.9068104  80.0105241  43.8854553  50.1967861  91.8435327  48.3380367
  51.1214408  91.6378188  48.2004819  50.0283164  91.5951728  49.2469709
  43.1539424  78.0561886  52.5599055  42.8136245  77.2569699  52.9619735
  42.4478430  78.3563597  51.9875888  43.8055896  75.1411198  51.0126378
  44.6281965  74.6671676  50.8905268  44.0493960  75.9201682  51.5125064
  42.4464131  78.1699457  41.3089280  43.1672493  78.5480709  40.8052996
  41.8229435  78.8888333  41.4124258  46.5895253  78.8744606  42.2447612
  46.8058868  79.7569243  41.9436440  46.1089321  78.4830819  41.5153254
  41.3294475  81.8330319  48.8218357  41.1839055  82.1470622  49.7142638
  40.8519678  82.4515219  48.2689255  43.1890858  78.8232867  48.8699246
  43.1752426  77.9273960  48.5331544  43.9063286  78.8303531  49.5037532
  45.0416988  79.2570207  50.9152374  44.7834766  80.1787278  50.9136704
  44.5102029  78.8600642  51.6052838  49.9863177  92.3620994  43.6942459
  50.1600055  91.7967417  42.9416311  50.4792068  93.1621889  43.5121949
  35.8040137  84.3735663  51.7606018  35.2593605  85.1495471  51.8926292
  36.6819487  84.7206468  51.6025139  42.5927754  77.7047247  44.1386816
  42.7143665  76.7763893  44.3377704  42.3029796  77.7185933  43.2265132
  45.4618944  75.3902158  47.2753536  45.4840641  75.4541491  46.3205516
  45.8787003  74.5506666  47.4694042  55.8402568  85.1257417  45.3132759
  56.2833714  84.3764742  44.9151882  54.9629079  85.1167553  44.9306491
  50.9738350  91.6787759  40.7939357  51.6689254  92.2994451  41.0126672
  51.3161500  90.8283110  41.0691735  36.5906159  83.5005559  54.6536175
  35.8487895  83.6488195  55.2400805  36.2698903  83.7613825  53.7902924
  52.8729773  89.1287464  42.3226688  53.3981097  89.4674737  41.5976008
  52.7852125  88.1934479  42.1389823  44.5349821  93.0421538  54.4516565
  44.8436948  92.7970684  55.3239264  45.3325303  93.2468176  53.9635435
  44.5570433  95.1959447  46.6821941  44.1175424  94.7035826  47.3754798
  45.3078550  94.6532415  46.4414016  37.0362772  91.3870988  46.6846569
  37.8620792  91.0874760  46.3045213  36.6856824  90.6178611  47.1336358
  42.0044306  90.7397456  48.7544243  41.3824315  90.0768161  48.4546471
  42.6749173  90.7658588  48.0717891  35.2371378  89.3057315  47.6435503
  34.4003286  88.8779489  47.4619504  35.2095023  89.4989758  48.5806294
  42.0768833  79.2179244  58.3476749  42.1256989  80.0941367  57.9654518
  42.6191347  78.6756638  57.7748392  52.5623679  89.7620368  57.6277886
  51.7719223  89.7444507  57.0882385  52.3257033  90.3008661  58.3826923
  52.6821554  86.6112834  54.9410614  52.7319559  86.4462842  55.8826137
  52.5735477  85.7440093  54.5508495  41.5657813  89.2901380  42.2302703
  41.7145933  89.9736844  41.5769376  42.3724256  89.2706470  42.7452159
  49.9725316  82.5943762  56.2569921  50.8735179  82.4550227  55.9653919
  50.0473291  82.7598217  57.1968099  44.3068122  79.9710617  55.1023108
  43.4371431  80.2644183  54.8305696  44.5427602  80.5551062  55.8230371
  54.1839751  89.0309776  55.1852636  53.8924559  89.3939756  56.0216097
  53.5711882  88.3176784  55.0065968  55.3835433  86.5962655  47.7055206
  56.2182324  87.0352459  47.8692767  55.5194562  86.1201309  46.8863452
  52.4326939  84.1542390  53.6532694  52.9081061  84.3470037  52.8451545
  51.5092504  84.2101576  53.4076078  39.3210446  85.3166557  43.2363772
  39.0756487  84.4128887  43.4343982  39.4906360  85.3183708  42.2943250
  47.0107155  76.1890234  52.6188528  47.5289099  76.9251261  52.2935016
  46.6562288  76.4954227  53.4535287  38.5906093  81.0494915  40.7349934
  37.8975338  81.1239270  40.0789970  38.3457845  80.2855259  41.2571451
  47.2619750  72.6090516  48.1389425  47.5421503  71.9413705  48.7649851
  48.0470357  72.8019612  47.6264088  45.0653218  91.7849510  39.7014451
  44.4927185  92.4039697  39.2484923  45.6386012  92.3348872  40.2354373
  51.1328608  81.0308150  51.8861000  52.0846031  81.1306248  51.9073224
  50.9632058  80.2386419  52.3959084  49.1542987  78.1163734  52.0720401
  48.5592920  78.3968746  51.3766889  48.8692684  78.6057634  52.8437142
  48.2850478  92.0686660  40.8323033  49.2181151  92.0032222  41.0355909
  48.1973691  92.9042927  40.3737566  50.9138495  91.3852531  37.7926981
  50.8352126  91.0512394  38.6862739  51.7348161  91.8774299  37.7918453
  53.6116686  84.2514270  51.0003299  53.5793006  83.3130271  51.1862983
  54.2217309  84.3298307  50.2669124  45.4500017  83.1210323  37.0430503
  46.3959121  82.9916531  37.1118921  45.0714262  82.3824985  37.5199931
  53.7611174  81.0425313  51.0461582  53.2450223  80.2583770  50.8591511
  54.6451123  80.7144030  51.2108102  51.4221901  74.7866329  47.0057395
  51.2246722  74.4781417  47.8900727  52.0321607  75.5127968  47.1355325
  59.4293236  85.3130277  50.1409336  60.1596624  85.0515565  50.7017039
  58.8200181  84.5758999  50.1811404  57.5108533  83.4538139  50.7383787
  56.7841696  83.3194104  50.1300279  57.0955820  83.7614968  51.5440505
  45.3338709  87.1728069  58.5031160  46.2541719  87.3506668  58.6971207
  45.2988292  86.2284114  58.3510860  43.6342934  81.0460299  36.9785389
  42.7274389  80.7493412  37.0548102  43.9118915  80.7490117  36.1119675
  34.5520874  82.3666663  47.4284435  34.2323658  81.5131971  47.1358809
  34.0054302  82.5815241  48.1842402  38.3300782  85.0829104  51.1453941
  38.5486791  86.0146212  51.1641975  38.7426555  84.7237078  51.9308745
  45.2504999  75.5897189  43.1329630  44.4405728  75.2444274  43.5084876
  45.9389416  75.2804733  43.7217241  47.1795548  74.6675236  44.7553926
  47.7326586  75.0870689  45.4143950  47.4165634  73.7410984  44.7976882
  43.2028647  80.6562310  60.5356690  43.1025374  81.6056666  60.4668781
  42.9850189  80.3280548  59.6632760  42.4041718  77.9047235  37.1197368
  43.2660882  78.2302133  37.3793185  42.5892063  77.1178730  36.6070434
  34.4209134  85.9869574  49.3977557  33.7272606  85.5723527  48.8847511
  35.1682125  86.0290111  48.8010975  50.5574355  76.7775761  44.2632591
  49.9773024  77.4360565  43.8810643  50.2910288  75.9553106  43.8520008
  49.0077921  76.1780819  46.4653911  49.5077700  76.2897353  45.6568230
  49.6513529  75.8741872  47.1054719  43.0659917  84.0859448  59.3521752
  42.5826999  84.8859808  59.5585641  43.1520856  84.0967393  58.3989196
  36.3345877  85.9187828  47.2743571  36.3116565  86.0175515  46.3225454
  36.6446513  86.7652979  47.5960738  38.9933255  87.9763983  51.3890186
  39.9476508  87.9447925  51.3220117  38.7945778  87.5154607  52.2040412
  39.5832637  86.5465099  53.9560983  40.4025526  87.0409178  53.9795821
  39.8569444  85.6297067  53.9278551  49.3399233  78.9375851  43.3188939
  48.4525088  79.2225502  43.1009134  49.7553222  78.7769615  42.4716216
  52.6913769  78.9622372  47.0343278  53.4674159  79.4518825  47.3067895
  51.9661903  79.3880427  47.4915148  55.1286328  79.6749992  48.0917219
  55.7230818  79.4345728  47.3810527  55.2012911  78.9557122  48.7190755
  37.3483483  93.5183603  48.4060384  37.2137951  92.7584003  47.8398382
  36.9315546  94.2424502  47.9389173  48.4842446  88.7020526  37.4136959
  49.1878296  88.9070529  38.0294615  47.7605095  89.2697288  37.6786042
  49.3140257  84.4530387  43.5339229  49.2575458  84.9098939  42.6946862
  49.8668599  83.6921072  43.3562072  53.1245063  80.2420119  44.3589349
  52.8681997  79.8416755  45.1897556  52.4997931  80.9563913  44.2339488
  57.4357400  82.9816192  46.8660640  56.8756958  83.0509382  47.6392202
  56.8300904  82.8057177  46.1460136  40.5052609  94.4152920  48.6178826
  40.3884993  95.3598352  48.5157517  39.6845055  94.1126481  49.0064626
  50.3929144  89.1403055  39.4635419  51.2274748  88.7084254  39.2812894
  50.2313487  88.9685069  40.3912314  50.0475036  85.6435169  40.8291758
  49.9923840  85.4779440  39.8880202  49.4221091  86.3511202  40.9853948
  34.8367551  80.8803233  54.6553181  35.4826414  80.3702187  55.1440406
  34.6284702  81.6171915  55.2296606  47.3620943  87.9484080  60.1545321
  48.2312103  88.1224733  59.7931956  46.8827695  88.7678497  60.0321050
  43.3571161  75.1443278  40.4077077  43.3449831  76.0885118  40.5645348
  44.2494583  74.9613423  40.1136538  41.5307123  95.0681181  51.8334755
  42.4334370  95.1004792  52.1501250  41.3044493  94.1381632  51.8481091
  43.2860725  93.8212168  48.4944833  42.3356356  93.8214030  48.3809206
  43.5893211  93.0744903  47.9780868  47.1723281  71.7386054  44.6623014
  46.4055677  71.1844541  44.8079696  47.5833986  71.8107923  45.5237165
  59.0213419  99.6572706  49.5590596  59.6591829  99.5379454  48.8553936
  58.9034262 100.6053550  49.6178548  55.8303125  99.6100135  49.4952120
  55.4921637  99.4941199  48.6072655  56.6992893  99.2091300  49.4753127
  51.6889941 101.4635611  45.4849011  51.1254806 101.3725548  44.7165299
  51.5742336 100.6435515  45.9651504  56.3122908 100.7634986  55.4538326
  56.3011549 100.3687785  54.5818830  56.4743548 100.0301059  56.0472097
  49.2354373 102.9586803  48.3233232  50.0275665 102.6177627  47.9079531
  49.4751023 103.0681778  49.2435385  57.2689500 105.1306579  40.7963476
  56.6177479 105.7160659  40.4097490  58.0633862 105.6612774  40.8558514
  51.1945127 102.2195716  41.1950611  51.9676003 101.6724703  41.0563486
  51.5470526 103.0839965  41.4065072  53.0330169 103.5472098  54.4017510
  52.7420035 104.4517729  54.2864176  53.6687154 103.5888626  55.1161580
  53.9586376 100.9248947  50.9918870  54.5549948 100.7004969  50.2775833
  54.0161348 100.1833692  51.5944317  53.5311404  98.3788382  38.8269061
  53.7836925  97.8569903  38.0652524  52.5935964  98.2154527  38.9295744
  58.5754687  97.3824160  46.6343804  59.3617777  96.9643583  46.2834221
  58.8393392  98.2870252  46.8025452  58.7464765 102.8197011  41.3332461
  58.1110598 102.8931637  42.0453365  58.4162171 103.4090609  40.6551540
  63.9763114  97.3199393  47.5376782  64.7088286  96.7498610  47.7714612
  63.2202470  96.9320994  47.9783288  53.2507693 100.2816488  41.0293436
  53.1343951  99.6061391  41.6974520  53.3609953  99.7948862  40.2125589
  55.5939234  99.7426635  44.7340125  55.2297441  99.2157256  45.4453046
  56.4506350  99.3525104  44.5606610  61.4988535  91.0320968  51.9971391
  61.1671860  91.9016379  51.7732606  60.9034148  90.7157252  52.6765421
  55.2344721  94.7716535  39.7301473  55.4019123  95.6396771  40.0971944
  55.0441890  94.9343816  38.8062763  57.9920054 103.2333514  51.3967304
  57.6920777 104.1358552  51.2883111  57.6471114 102.9665697  52.2488457
  51.4432536  99.6847310  47.4304008  50.5183032  99.5523525  47.6381700
  51.6916949 100.4641530  47.9273950  61.3917198  95.7516054  49.0764741
  60.4834075  95.6831462  48.7823502  61.3404794  96.2287999  49.9046566
  55.2133942  97.2274192  40.7148140  55.0933567  97.6731243  41.5533620
  54.5186530  97.5759510  40.1561678  48.8041347  99.3280584  48.2647797
  48.9333728  99.5815063  49.1787209  48.1238798  99.9208292  47.9452452
  52.9740834 109.9977834  44.3638271  52.8964864 110.9485659  44.4426752
  52.3702478 109.6523706  45.0213198  55.4658064  97.1705699  57.0199638
  54.6891398  97.7299619  57.0102503  56.1048627  97.6562482  57.5414508
  63.2578845  93.9532492  50.8542615  62.6153225  94.2465025  50.2082409
  62.7533773  93.8385412  51.6595812  60.9119008  97.6995665  41.5428474
  61.8236864  97.9323052  41.3676172  60.4028655  98.2832710  40.9803553
  53.7204436  99.9791153  56.5817605  54.4619121 100.5176197  56.3052429
  53.0141422 100.6057441  56.7389157  59.1959776 102.1220293  55.1789767
  59.6043132 101.6802704  54.4344399  58.4737037 101.5472921  55.4323960
  55.5490846  97.0592900  52.5523324  56.3952041  97.4832313  52.6957973
  55.4889484  96.4026524  53.2461887  59.5188590 102.6821484  48.9342056
  58.8897453 102.8467198  48.2318123  59.1314253 103.0963093  49.7053020
  63.3977822 103.6175922  46.2886419  62.7128861 103.9974823  45.7383453
  63.4821672 104.2271248  47.0218367  58.6990291  94.7197268  54.2104497
  58.4551223  95.4739329  53.6738773  58.9750222  95.0982616  55.0451744
  60.6528754 101.2635881  52.8881763  60.8645649 101.9067641  52.2116144
  60.6058502 100.4298197  52.4203693  58.2554983  93.8753701  49.7918335
  57.3939462  94.1734955  50.0835073  58.2817418  94.0924100  48.8599368
  55.0716552 102.4195892  46.1992141  55.5354898 102.6983595  45.4096763
  54.8073350 101.5179336  46.0165231  51.9640633 101.9667373  49.1371904
  52.5341990 102.3954642  48.4989388  52.5548745 101.6849958  49.8356090
  54.0085438  98.5419044  43.0081706  54.7109482  98.9940088  43.4755632
  53.6766067  97.9002863  43.6361599  52.4565800  97.1330801  57.3832915
  51.8264461  97.8147082  57.6168312  52.3501888  97.0213882  56.4386054
  47.7510772  96.8002597  48.3098839  46.9609826  97.0560125  47.8338950
  48.2422020  97.6150935  48.4150880  61.7674582 104.1407836  51.0604120
  62.5892026 103.7388023  50.7786802  61.7636985 104.0376070  52.0120236
  49.7025518  97.1647176  45.2682316  48.9056681  97.2765870  45.7865812
  49.4751110  97.5033828  44.4023207  55.5331185 103.6891879  53.2164831
  55.5975618 104.1512287  54.0523003  54.8242109 103.0589244  53.3447141
  46.0348475  97.0533087  50.7413830  46.2856514  97.9380097  51.0071406
  46.5708024  96.8737689  49.9688922  69.8580575 100.4846585  47.4089092
  69.1044283  99.9153983  47.2533096  69.9928116 100.4509249  48.3559726
  55.2479203 105.3559987  43.0843811  55.1124878 106.2011523  43.5128659
  55.7889016 105.5579265  42.3209745  51.7346543  91.4351567  59.7458166
  51.3413488  90.8817765  60.4205811  52.5512683  91.7462145  60.1364684
  48.7008600 102.8735425  43.6571736  49.2133121 103.6678675  43.8077301
  49.3531313 102.1761715  43.5905338  50.5103485 105.9901181  45.7394489
  50.6870113 106.9119146  45.5515473  51.3060319 105.6759600  46.1688869
  54.6514504  92.8509446  57.3378423  55.3924217  93.4516599  57.2582885
  54.8832426  92.1087084  56.7796465  49.7955842  98.0365813  55.6156653
  49.6809357  97.1351070  55.9163751  48.9400359  98.2829510  55.2641469
  56.8747679 105.9783553  57.2144153  56.4311534 105.1919932  56.8965058
  57.5364893 106.1662704  56.5488044  51.6334801 107.5079355  51.7404832
  52.1842226 107.3796418  50.9681826  50.7946276 107.8074244  51.3899724
  58.9728917 106.2586353  55.2425554  58.9547393 107.0795234  54.7505824
  59.8948838 106.1340429  55.4675696  55.4301972 103.7730483  56.0849063
  55.9630308 103.0118771  55.8548371  54.9016053 103.4804135  56.8273217
  58.5971667  88.8790549  51.6142705  58.2535936  89.7692190  51.5381815
  58.9650629  88.6892206  50.7512290  46.6657517 101.2024079  44.4331307
  47.5032739 101.6121088  44.2165014  46.8435785 100.2623521  44.4031501
  58.5621949  98.8699160  40.1215140  58.0468573  99.6403764  40.3603527
  58.2899258  98.1964296  40.7448201  56.1469060  93.7148861  45.1800378
  55.2910657  93.3255711  45.0006017  56.5596012  93.7940821  44.3200164
  57.6768207  91.2495204  49.5791938  57.1733003  91.2125339  48.7659743
  57.9698814  92.1587947  49.6388594  53.9211093  91.3333934  48.5858120
  54.7864090  91.1376742  48.2264009  53.9888602  91.1044285  49.5127476
  63.5356223 101.6231515  42.0568313  62.7585666 101.2842674  41.6123475
  64.2147704 101.6284138  41.3823278  58.3508252  96.7426252  41.9474921
  58.0458388  97.0572401  42.7985064  59.3038695  96.8207672  41.9902254
  56.7954684 102.9016475  43.5967875  56.2676046 102.1669235  43.2841112
  56.2942187 103.6791152  43.3507843  61.7747530 101.0965496  48.7134921
  61.1171205 101.7864757  48.8015050  62.5787930 101.4861928  49.0568907
  51.5273412  93.5636142  45.9574486  52.1017164  93.3411323  45.2247679
  52.1144394  93.6324836  46.7103088  60.5852989  99.4509868  46.7638863
  61.0984871 100.0839860  47.2660573  61.2354213  98.8511064  46.3982223
  51.8542999  95.5940603  39.9770372  51.0180311  95.9315289  40.2979646
  51.7147769  95.4589582  39.0397509  53.8296080  90.4377390  44.6849556
  53.1760492  90.1226408  44.0606171  53.7876554  89.8153131  45.4109379
  54.9407285 100.7196686  36.6002848  54.0334346 100.4885939  36.7993997
  55.4378316  99.9234305  36.7876829  57.8475363 109.4294193  39.5199534
  57.1737062 109.7325889  40.1284492  58.2341185 110.2323273  39.1704991
  57.0633820  96.9259324  49.0097203  56.1456381  97.1474271  48.8518891
  57.4793964  97.0005634  48.1508911  57.8468868  98.3250740  44.1399884
  58.5940687  98.8372137  43.8307006  58.1160457  98.0034792  45.0004277
  56.1195518 100.8209280  41.1226838  55.2106737 100.5368313  41.2199308
  56.1490602 101.2408359  40.2630145  61.3514785 104.4315870  44.8918006
  60.8977112 103.5906780  44.9483196  60.7208752 105.0677268  45.2292786
  60.2947705  95.3607856  46.1218673  59.5570462  94.8485242  46.4528916
  60.5474478  94.9208238  45.3101950  59.7947725 106.2692367  45.8267824
  60.0870699 106.8297424  45.1080189  60.3046345 106.5620928  46.5820983
  60.3959332  88.1384108  46.7160442  60.7018209  87.2781471  46.4286357
  61.1211937  88.7301728  46.5159436  46.6883688  98.5414795  45.1042040
  46.4908088  97.9484155  44.3793107  46.1330352  98.2367005  45.8217979
  54.6680412  98.4337901  47.2236633  54.7229022  97.4811737  47.1479110
  53.8571614  98.5897340  47.7077932  55.8171606 102.3618024  38.4614917
  55.3791036 101.6453883  38.0020554  56.5582047 102.5894139  37.9000008
  52.6072772  97.0514961  44.9827012  51.7940637  97.3509131  45.3892204
  53.1031766  96.6570650  45.7001494  54.7581350 107.0472718  46.9161277
  54.7157529 107.2733564  45.9869809  55.6744049 106.8136092  47.0647078
  58.2046984  97.5156785  53.8141906  58.5596371  97.7428258  54.6736372
  58.8519115  97.8475162  53.1919161  63.9344721 100.6375221  44.5191235
  63.7962619 100.8276817  43.5912424  63.5780939 101.3994604  44.9759286
  52.0986847  94.6233316  50.5988247  52.7386226  94.4822075  49.9011210
  51.2664377  94.3367830  50.2226849  63.9614100 102.7051748  49.5302507
  64.3950607 102.6127037  50.3785561  64.6745681 102.6809249  48.8922523
  52.8747151 103.9235747  46.7123240  53.6687749 103.4286067  46.5105815
  52.1638843 103.3953610  46.3490945  57.6941995 106.3053842  51.0635607
  57.7479017 106.8744779  51.8313323  56.8256776 106.4755727  50.6989644
  49.1829914  98.0678828  42.7882992  48.2527502  98.0063284  43.0052954
  49.2787386  97.5454781  41.9919634  49.1015463  94.5933641  45.3761234
  49.3622280  95.5078975  45.2670394  49.9232635  94.1258084  45.5257847
  50.5740388  96.0071398  52.5460058  51.2463442  95.7988761  51.8972707
  49.7470175  95.8093484  52.1065291  64.8229650 102.7475449  52.0635392
  65.0165540 103.6521259  52.3094667  64.7230268 102.2882868  52.8973977
  56.4765960  92.6333339  54.5625719  55.8293875  93.3323289  54.4690196
  57.2466976  93.0669483  54.9301968  59.8844758 102.8982192  57.6376273
  59.7330265 102.6692743  56.7206356  59.8749438 103.8552793  57.6507618
  56.6530095 100.4714104  52.6222539  57.5822155 100.6225264  52.4491506
  56.2321125 100.5598125  51.7671186  55.4518427 104.4964769  50.3921077
  55.3129512 104.1283553  51.2647015  54.6633023 105.0112408  50.2205034
  56.0466579 109.5973865  41.7346613  56.2218334 109.1261908  42.5492236
  55.3599367 110.2239631  41.9627874  57.0023642 103.8746371  47.7809914
  56.6673474 103.8347141  48.6767564  56.5027587 103.2091087  47.3080325
  50.9767886  99.2814001  53.3062496  50.8387684  98.5494240  53.9074035
  51.8872809  99.1922902  53.0246683  59.9382833 101.2202406  38.0546974
  59.3212004 100.4949234  37.9580027  59.4699322 101.9811766  37.7114048
  53.6050186  98.9933961  52.7946175  54.3149805  98.3527153  52.7532794
  53.5619495  99.2446856  53.7172356  61.5936965 105.9301314  55.7152754
  61.5349511 105.2460534  55.0483337  61.9956483 106.6720304  55.2633380
  52.3179120  95.9799179  54.6141815  51.7816477  95.5289917  55.2663411
  51.7295829  96.1145087  53.8712279  50.6127664 112.7463228  48.5086473
  50.8524262 113.3781752  49.1865492  49.7696860 112.3951268  48.7951833
  51.7281379  95.4387830  37.1768278  50.8510846  95.3176631  36.8130525
  52.2039132  94.6473908  36.9247167  61.5954372 103.8940898  53.9466734
  60.7081151 103.5566820  54.0693133  62.1652923 103.1623929  54.1835500
  43.2483519 100.2264990  47.2709786  43.9354559  99.9126720  46.6830801
  43.0931648 101.1306354  46.9977037  48.0518242  95.1155186  51.6994809
  47.9676430  94.5080856  50.9645219  47.2300948  95.6064205  51.7004306
  55.1255526 108.5542350  50.9127977  55.0525697 109.3597322  51.4247282
  54.6832919 108.7534316  50.0875999  54.9145305 107.7914120  44.4230799
  54.1312827 108.3335801  44.5169023  55.6138050 108.3088100  44.8225040
  58.2241955  93.6008750  47.0665004  58.7210655  92.8478712  46.7466075
  57.4528937  93.6373066  46.5008214  66.0771713  99.3049115  48.7083296
  66.0661589 100.1873831  48.3377229  65.2089092  98.9520666  48.5137833
  57.5854209 108.4529184  53.0686136  58.2982181 109.0876649  52.9962037
  57.0944238 108.5493050  52.2526138  59.3071736 102.3580437  44.6403428
  58.3728015 102.4781900  44.4708132  59.4848405 101.4552904  44.3763438
  54.8076924  95.7426133  46.7936689  54.4374712  95.1897173  47.4817594
  55.3036017  95.1384266  46.2411689  62.6944287  98.1997756  45.1753462
  63.1604740  99.0325748  45.1013764  63.1451788  97.7342738  45.8798720
  52.6366123 106.2023628  53.8891707  53.3375582 106.8360111  54.0421101
  52.1661238 106.5438359  53.1287346  60.7620519 104.5441578  42.1739614
  61.0380362 104.4298172  43.0833488  59.8925017 104.1459062  42.1351787
  60.6660950  90.5678343  49.2144363  59.7524030  90.7982570  49.3826570
  61.0954052  90.6516787  50.0658396  60.4367409  98.7568235  51.7144257
  59.7838859  99.0044143  51.0596710  60.8147789  97.9432373  51.3806734
  57.3974583 108.7927928  45.8172427  57.5796977 107.9749584  46.2800180
  58.2207569 109.0095621  45.3797317  57.7316748 107.7196114  43.0787476
  58.2604515 107.2088568  42.4657638  57.9944968 107.4038644  43.9433009
  56.4854982  99.4988046  58.2010294  55.8095619  99.3982176  58.8712669
  57.3082616  99.3427260  58.6646291  48.2333841 105.7359983  50.8222810
  48.8187278 104.9903671  50.9550714  48.0358679 106.0463940  51.7059473
  51.0872496 108.7711230  45.8385252  50.4182871 109.2557358  45.3549292
  50.9485366 109.0180451  46.7528630  42.8251496  98.3065583  49.5427253
  42.8635595  97.7729174  50.3364371  42.3191788  97.7800789  48.9238230
  55.2277765 110.8054974  52.4367910  55.7796073 110.9686595  53.2016995
  55.5683958 111.3959412  51.7647935  50.2042258  93.1530124  53.0389795
  50.2683584  94.0144955  52.6267193  50.1409378  92.5404125  52.3062153
  49.6794530  95.2253256  56.6862829  50.3066569  94.8430333  57.3000354
  48.8222449  95.0067458  57.0518522  60.0788639 105.6316231  58.2916565
  60.6228543 106.2446190  57.7971519  59.4975484 106.1895810  58.8083578
  46.4560073  97.0329685  42.6181184  46.7513514  96.1240364  42.5648238
  45.5548109  97.0117425  42.2962186  58.3646152 108.7536949  49.4231592
  58.2397291 107.9526689  48.9142538  59.0225243 109.2483143  48.9345562
  49.9854320  95.1085682  48.6008733  49.2640906  95.7221650  48.4616206
  50.7747576  95.6443447  48.5225379  60.4281060 106.5545969  51.0511143
  59.4811396 106.4351321  50.9789469  60.7763833 105.6668467  51.1337404
  52.7880634  92.4440108  54.8749384  53.3115035  92.6902405  55.6375694
  52.5692967  93.2760143  54.4552522  48.1847915  94.7143783  42.7420509
  47.8560621  93.8341162  42.5595615  48.5387285  94.6591452  43.6296898
  57.4327494 106.3498686  47.2515495  57.2852456 105.4215393  47.4323065
  58.2580987 106.3718776  46.7672570  51.2989738  95.0016753  43.1095987
  51.6385810  95.5302674  42.3874595  51.7461858  95.3397159  43.8854553
  61.0361615 107.1727244  48.3380367  61.9608163 106.9670106  48.2004819
  60.8676919 106.9243646  49.2469709  53.9933179  93.3853803  52.5599055
  53.6529999  92.5861616  52.9619735  53.2872185  93.6855514  51.9875888
  54.6449651  90.4703116  51.0126378  55.4675720  89.9963594  50.8905268
  54.8887714  91.2493600  51.5125064  53.2857885  93.4991374  41.3089280
  54.0066248  93.8772627  40.8052996  52.6623189  94.2180251  41.4124258
  57.4289008  94.2036523  42.2447612  57.6452622  95.0861161  41.9436440
  56.9483075  93.8122737  41.5153254  52.1688229  97.1622237  48.8218357
  52.0232810  97.4762540  49.7142638  51.6913433  97.7807137  48.2689255
  54.0284612  94.1524784  48.8699246  54.0146181  93.2565878  48.5331544
  54.7457040  94.1595448  49.5037532  55.8810743  94.5862125  50.9152374
  55.6228521  95.5079195  50.9136704  55.3495783  94.1892559  51.6052838
  60.8256932 107.6912912  43.6942459  60.9993809 107.1259334  42.9416311
  61.3185823 108.4913807  43.5121949  46.6433891  99.7027581  51.7606018
  46.0987360 100.4787389  51.8926292  47.5213241 100.0498385  51.6025139
  53.4321508  93.0339165  44.1386816  53.5537419  92.1055811  44.3377704
  53.1423550  93.0477851  43.2265132  56.3012698  90.7194075  47.2753536
  56.3234395  90.7833408  46.3205516  56.7180757  89.8798584  47.4694042
  66.6796323 100.4549335  45.3132759  67.1227469  99.7056660  44.9151882
  65.8022833 100.4459471  44.9306491  61.8132104 107.0079676  40.7939357
  62.5083009 107.6286369  41.0126672  62.1555254 106.1575027  41.0691735
  47.4299913  98.8297477  54.6536175  46.6881649  98.9780113  55.2400805
  47.1092658  99.0905743  53.7902924  63.7123527 104.4579382  42.3226688
  64.2374851 104.7966655  41.5976008  63.6245880 103.5226397  42.1389823
  55.3743576 108.3713455  54.4516565  55.6830702 108.1262602  55.3239264
  56.1719058 108.5760094  53.9635435  55.3964188 110.5251365  46.6821941
  54.9569178 110.0327744  47.3754798  56.1472305 109.9824333  46.4414016
  47.8756527 106.7162906  46.6846569  48.7014547 106.4166678  46.3045213
  47.5250579 105.9470528  47.1336358  52.8438060 106.0689374  48.7544243
  52.2218069 105.4060079  48.4546471  53.5142927 106.0950506  48.0717891
  46.0765132 104.6349232  47.6435503  45.2397040 104.2071407  47.4619504
  46.0488777 104.8281676  48.5806294  52.9162588  94.5471162  58.3476749
  52.9650743  95.4233285  57.9654518  53.4585102  94.0048555  57.7748392
  63.4017433 105.0912285  57.6277886  62.6112977 105.0736424  57.0882385
  63.1650788 105.6300579  58.3826923  63.5215308 101.9404752  54.9410614
  63.5713313 101.7754759  55.8826137  63.4129232 101.0732011  54.5508495
  52.4051567 104.6193297  42.2302703  52.5539687 105.3028762  41.5769376
  53.2118010 104.5998388  42.7452159  60.8119071  97.9235680  56.2569921
  61.7128933  97.7842145  55.9653919  60.8867045  98.0890135  57.1968099
  55.1461876  95.3002535  55.1023108  54.2765185  95.5936101  54.8305696
  55.3821356  95.8842980  55.8230371  65.0233505 104.3601693  55.1852636
  64.7318313 104.7231674  56.0216097  64.4105636 103.6468702  55.0065968
  66.2229187 101.9254573  47.7055206  67.0576079 102.3644377  47.8692767
  66.3588316 101.4493226  46.8863452  63.2720693  99.4834308  53.6532694
  63.7474815  99.6761954  52.8451545  62.3486259  99.5393494  53.4076078
  50.1604200 100.6458475  43.2363772  49.9150242  99.7420805  43.4343982
  50.3300115 100.6475626  42.2943250  57.8500910  91.5182151  52.6188528
  58.3682854  92.2543178  52.2935016  57.4956043  91.8246145  53.4535287
  49.4299848  96.3786833  40.7349934  48.7369092  96.4531188  40.0789970
  49.1851599  95.6147176  41.2571451  58.1013504  87.9382434  48.1389425
  58.3815258  87.2705623  48.7649851  58.8864111  88.1311530  47.6264088
  55.9046973 107.1141428  39.7014451  55.3320940 107.7331615  39.2484923
  56.4779766 107.6640790  40.2354373  61.9722362  96.3600068  51.8861000
  62.9239785  96.4598166  51.9073224  61.8025813  95.5678337  52.3959084
  59.9936742  93.4455651  52.0720401  59.3986674  93.7260664  51.3766889
  59.7086439  93.9349552  52.8437142  59.1244232 107.3978578  40.8323033
  60.0574906 107.3324140  41.0355909  59.0367445 108.2334845  40.3737566
  61.7532249 106.7144448  37.7926981  61.6745881 106.3804312  38.6862739
  62.5741916 107.2066216  37.7918453  64.4510440  99.5806188  51.0003299
  64.4186760  98.6422188  51.1862983  65.0611064  99.6590224  50.2669124
  56.2893771  98.4502241  37.0430503  57.2352876  98.3208449  37.1118921
  55.9108016  97.7116903  37.5199931  64.6004929  96.3717231  51.0461582
  64.0843977  95.5875688  50.8591511  65.4844877  96.0435948  51.2108102
  62.2615656  90.1158247  47.0057395  62.0640477  89.8073335  47.8900727
  62.8715361  90.8419886  47.1355325  70.2686990 100.6422195  50.1409336
  70.9990379 100.3807483  50.7017039  69.6593936  99.9050916  50.1811404
  68.3502287  98.7830057  50.7383787  67.6235451  98.6486022  50.1300279
  67.9349574  99.0906886  51.5440505  56.1732464 102.5019987  58.5031160
  57.0935473 102.6798586  58.6971207  56.1382047 101.5576032  58.3510860
  54.4736688  96.3752217  36.9785389  53.5668144  96.0785330  37.0548102
  54.7512669  96.0782035  36.1119675  45.3914629  97.6958580  47.4284435
  45.0717413  96.8423889  47.1358809  44.8448057  97.9107159  48.1842402
  49.1694536 100.4121021  51.1453941  49.3880546 101.3438129  51.1641975
  49.5820310 100.0528996  51.9308745  56.0898754  90.9189107  43.1329630
  55.2799482  90.5736192  43.5084876  56.7783171  90.6096650  43.7217241
  58.0189302  89.9967154  44.7553926  58.5720341  90.4162607  45.4143950
  58.2559389  89.0702902  44.7976882  54.0422401  95.9854227  60.5356690
  53.9419128  96.9348584  60.4668781  53.8243944  95.6572466  59.6632760
  53.2435473  93.2339152  37.1197368  54.1054637  93.5594051  37.3793185
  53.4285817  92.4470648  36.6070434  45.2602889 101.3161492  49.3977557
  44.5666360 100.9015445  48.8847511  46.0075880 101.3582028  48.8010975
  61.3968109  92.1067679  44.2632591  60.8166778  92.7652483  43.8810643
  61.1304042  91.2845023  43.8520008  59.8471676  91.5072736  46.4653911
  60.3471454  91.6189271  45.6568230  60.4907284  91.2033789  47.1054719
  53.9053672  99.4151366  59.3521752  53.4220753 100.2151726  59.5585641
  53.9914611  99.4259311  58.3989196  47.1739631 101.2479746  47.2743571
  47.1510319 101.3467433  46.3225454  47.4840268 102.0944897  47.5960738
  49.8327009 103.3055901  51.3890186  50.7870263 103.2739843  51.3220117
  49.6339533 102.8446524  52.2040412  50.4226391 101.8757017  53.9560983
  51.2419280 102.3701095  53.9795821  50.6963199 100.9588985  53.9278551
  60.1792987  94.2667769  43.3188939  59.2918842  94.5517420  43.1009134
  60.5946976  94.1061532  42.4716216  63.5307523  94.2914290  47.0343278
  64.3067914  94.7810743  47.3067895  62.8055658  94.7172344  47.4915148
  65.9680082  95.0041909  48.0917219  66.5624573  94.7637645  47.3810527
  66.0406666  94.2849040  48.7190755  48.1877238 108.8475520  48.4060384
  48.0531706 108.0875921  47.8398382  47.7709300 109.5716420  47.9389173
  59.3236201 104.0312444  37.4136959  60.0272051 104.2362446  38.0294615
  58.5998850 104.5989206  37.6786042  60.1534011  99.7822305  43.5339229
  60.0969212 100.2390856  42.6946862  60.7062354  99.0212990  43.3562072
  63.9638817  95.5712037  44.3589349  63.7075751  95.1708673  45.1897556
  63.3391685  96.2855831  44.2339488  68.2751155  98.3108110  46.8660640
  67.7150713  98.3801299  47.6392202  67.6694658  98.1349095  46.1460136
  51.3446364 109.7444837  48.6178826  51.2278748 110.6890270  48.5157517
  50.5238810 109.4418399  49.0064626  61.2322898 104.4694973  39.4635419
  62.0668502 104.0376171  39.2812894  61.0707241 104.2976987  40.3912314
  60.8868790 100.9727086  40.8291758  60.8317594 100.8071358  39.8880202
  60.2614846 101.6803119  40.9853948  45.6761305  96.2095151  54.6553181
  46.3220169  95.6994105  55.1440406  45.4678456  96.9463832  55.2296606
  58.2014698 103.2775998  60.1545321  59.0705857 103.4516650  59.7931956
  57.7221449 104.0970415  60.0321050  54.1964916  90.4735195  40.4077077
  54.1843586  91.4177035  40.5645348  55.0888338  90.2905341  40.1136538
  52.3700878 110.3973099  51.8334755  53.2728125 110.4296709  52.1501250
  52.1438248 109.4673550  51.8481091  54.1254480 109.1504086  48.4944833
  53.1750111 109.1505947  48.3809206  54.4286966 108.4036820  47.9780868
  58.0117035  87.0677972  44.6623014  57.2449431  86.5136459  44.8079696
  58.4227740  87.1399841  45.5237165  50.0158796  93.3562768  58.7528195
  50.8790258  92.9999573  58.9631519  49.4424207  93.0176663  59.4403599
  69.8607173 114.9864624  49.5590596  70.4985583 114.8671371  48.8553936
  69.7428016 115.9345468  49.6178548  66.6696880 114.9392052  49.4952120
  66.3315391 114.8233117  48.6072655  67.5386648 114.5383217  49.4753127
  62.5283695 116.7927529  45.4849011  61.9648560 116.7017466  44.7165299
  62.4136090 115.9727433  45.9651504  67.1516663 116.0926904  55.4538326
  67.1405303 115.6979702  54.5818830  67.3137302 115.3592977  56.0472097
  60.0748127 118.2878720  48.3233232  60.8669419 117.9469545  47.9079531
  60.3144777 118.3973695  49.2435385  68.1083254 120.4598496  40.7963476
  67.4571234 121.0452577  40.4097490  68.9027617 120.9904691  40.8558514
  62.0338881 117.5487633  41.1950611  62.8069757 117.0016621  41.0563486
  62.3864280 118.4131883  41.4065072  63.8723924 118.8764016  54.4017510
  63.5813790 119.7809647  54.2864176  64.5080908 118.9180543  55.1161580
  64.7980131 116.2540864  50.9918870  65.3943703 116.0296887  50.2775833
  64.8555102 115.5125610  51.5944317  64.3705159 113.7080300  38.8269061
  64.6230680 113.1861821  38.0652524  63.4329718 113.5446445  38.9295744
  69.4148442 112.7116078  46.6343804  70.2011531 112.2935501  46.2834221
  69.6787146 113.6162170  46.8025452  69.5858519 118.1488928  41.3332461
  68.9504352 118.2223555  42.0453365  69.2555926 118.7382527  40.6551540
  74.8156869 112.6491311  47.5376782  75.5482041 112.0790528  47.7714612
  74.0596225 112.2612912  47.9783288  64.0901448 115.6108406  41.0293436
  63.9737706 114.9353309  41.6974520  64.2003708 115.1240779  40.2125589
  66.4332989 115.0718553  44.7340125  66.0691196 114.5449174  45.4453046
  67.2900105 114.6817022  44.5606610  72.3382289 106.3612885  51.9971391
  72.0065614 107.2308296  51.7732606  71.7427903 106.0449169  52.6765421
  66.0738476 110.1008452  39.7301473  66.2412878 110.9688689  40.0971944
  65.8835645 110.2635734  38.8062763  68.8313809 118.5625431  51.3967304
  68.5314532 119.4650470  51.2883111  68.4864868 118.2957614  52.2488457
  62.2826290 115.0139228  47.4304008  61.3576787 114.8815442  47.6381700
  62.5310703 115.7933447  47.9273950  72.2310953 111.0807971  49.0764741
  71.3227830 111.0123380  48.7823502  72.1798548 111.5579916  49.9046566
  66.0527696 112.5566110  40.7148140  65.9327322 113.0023161  41.5533620
  65.3580285 112.9051428  40.1561678  59.6435101 114.6572502  48.2647797
  59.7727482 114.9106981  49.1787209  58.9632553 115.2500210  47.9452452
  63.8134589 125.3269752  44.3638271  63.7358618 126.2777577  44.4426752
  63.2096232 124.9815624  45.0213198  66.3051818 112.4997617  57.0199638
  65.5285152 113.0591537  57.0102503  66.9442381 112.9854400  57.5414508
  74.0972599 109.2824410  50.8542615  73.4546979 109.5756943  50.2082409
  73.5927528 109.1677330  51.6595812  71.7512763 113.0287583  41.5428474
  72.6630619 113.2614970  41.3676172  71.2422410 113.6124627  40.9803553
  64.5598191 115.3083070  56.5817605  65.3012875 115.8468114  56.3052429
  63.8535176 115.9349359  56.7389157  70.0353530 117.4512211  55.1789767
  70.4436886 117.0094621  54.4344399  69.3130792 116.8764838  55.4323960
  66.3884600 112.3884818  52.5523324  67.2345796 112.8124231  52.6957973
  66.3283238 111.7318442  53.2461887  70.3582345 118.0113401  48.9342056
  69.7291207 118.1759116  48.2318123  69.9708007 118.4255011  49.7053020
  74.2371577 118.9467839  46.2886419  73.5522615 119.3266741  45.7383453
  74.3215426 119.5563166  47.0218367  69.5384046 110.0489186  54.2104497
  69.2944978 110.8031246  53.6738773  69.8143976 110.4274534  55.0451744
  71.4922508 116.5927798  52.8881763  71.7039404 117.2359558  52.2116144
  71.4452257 115.7590115  52.4203693  69.0948737 109.2045619  49.7918335
  68.2333216 109.5026873  50.0835073  69.1211172 109.4216018  48.8599368
  65.9110307 117.7487810  46.1992141  66.3748652 118.0275513  45.4096763
  65.6467105 116.8471254  46.0165231  62.8034388 117.2959291  49.1371904
  63.3735745 117.7246559  48.4989388  63.3942500 117.0141876  49.8356090
  64.8479193 113.8710962  43.0081706  65.5503236 114.3232006  43.4755632
  64.5159821 113.2294781  43.6361599  63.2959554 112.4622719  57.3832915
  62.6658215 113.1438999  57.6168312  63.1895642 112.3505800  56.4386054
  58.5904527 112.1294515  48.3098839  57.8003581 112.3852043  47.8338950
  59.0815774 112.9442852  48.4150880  72.6068336 119.4699754  51.0604120
  73.4285780 119.0679941  50.7786802  72.6030739 119.3667988  52.0120236
  60.5419272 112.4939094  45.2682316  59.7450436 112.6057788  45.7865812
  60.3144864 112.8325746  44.4023207  66.3724940 119.0183797  53.2164831
  66.4369372 119.4804204  54.0523003  65.6635864 118.3881162  53.3447141
  56.8742230 112.3825005  50.7413830  57.1250268 113.2672015  51.0071406
  57.4101778 112.2029607  49.9688922  80.6974329 115.8138502  47.4089092
  79.9438038 115.2445900  47.2533096  80.8321871 115.7801167  48.3559726
  66.0872958 120.6851905  43.0843811  65.9518632 121.5303440  43.5128659
  66.6282770 120.8871182  42.3209745  62.5740297 106.7643484  59.7458166
  62.1807243 106.2109683  60.4205811  63.3906437 107.0754063  60.1364684
  59.5402355 118.2027343  43.6571736  60.0526875 118.9970593  43.8077301
  60.1925068 117.5053633  43.5905338  61.3497240 121.3193099  45.7394489
  61.5263868 122.2411064  45.5515473  62.1454073 121.0051518  46.1688869
  65.4908258 108.1801363  57.3378423  66.2317972 108.7808517  57.2582885
  65.7226181 107.4379001  56.7796465  60.6349596 113.3657731  55.6156653
  60.5203111 112.4642988  55.9163751  59.7794114 113.6121428  55.2641469
  67.7141434 121.3075471  57.2144153  67.2705288 120.5211850  56.8965058
  68.3758647 121.4954622  56.5488044  62.4728555 122.8371273  51.7404832
  63.0235980 122.7088336  50.9681826  61.6340031 123.1366162  51.3899724
  69.8122672 121.5878271  55.2425554  69.7941147 122.4087152  54.7505824
  70.7342592 121.4632346  55.4675696  66.2695726 119.1022400  56.0849063
  66.8024063 118.3410689  55.8548371  65.7409807 118.8096052  56.8273217
  69.4365421 104.2082466  51.6142705  69.0929690 105.0984108  51.5381815
  69.8044384 104.0184124  50.7512290  57.5051272 116.5315997  44.4331307
  58.3426494 116.9413005  44.2165014  57.6829539 115.5915439  44.4031501
  69.4015704 114.1991078  40.1215140  68.8862327 114.9695682  40.3603527
  69.1293012 113.5256214  40.7448201  66.9862815 109.0440778  45.1800378
  66.1304411 108.6547629  45.0006017  67.3989767 109.1232739  44.3200164
  68.5161961 106.5787122  49.5791938  68.0126757 106.5417257  48.7659743
  68.8092568 107.4879864  49.6388594  64.7604847 106.6625851  48.5858120
  65.6257844 106.4668660  48.2264009  64.8282356 106.4336203  49.5127476
  74.3749978 116.9523432  42.0568313  73.5979421 116.6134592  41.6123475
  75.0541459 116.9576055  41.3823278  69.1902007 112.0718170  41.9474921
  68.8852143 112.3864319  42.7985064  70.1432449 112.1499590  41.9902254
  67.6348439 118.2308393  43.5967875  67.1069800 117.4961153  43.2841112
  67.1335942 119.0083069  43.3507843  72.6141285 116.4257413  48.7134921
  71.9564959 117.1156675  48.8015050  73.4181684 116.8153845  49.0568907
  62.3667166 108.8928059  45.9574486  62.9410918 108.6703241  45.2247679
  62.9538149 108.9616754  46.7103088  71.4246744 114.7801786  46.7638863
  71.9378625 115.4131778  47.2660573  72.0747968 114.1802982  46.3982223
  62.6936754 110.9232520  39.9770372  61.8574066 111.2607207  40.2979646
  62.5541523 110.7881500  39.0397509  64.6689834 105.7669308  44.6849556
  64.0154246 105.4518325  44.0606171  64.6270308 105.1445049  45.4109379
  65.7801039 116.0488603  36.6002848  64.8728101 115.8177857  36.7993997
  66.2772071 115.2526222  36.7876829  68.6869118 124.7586110  39.5199534
  68.0130817 125.0617807  40.1284492  69.0734940 125.5615191  39.1704991
  67.9027575 112.2551242  49.0097203  66.9850136 112.4766189  48.8518891
  68.3187718 112.3297552  48.1508911  68.6862622 113.6542657  44.1399884
  69.4334441 114.1664055  43.8307006  68.9554212 113.3326710  45.0004277
  66.9589272 116.1501198  41.1226838  66.0500492 115.8660231  41.2199308
  66.9884356 116.5700277  40.2630145  72.1908540 119.7607788  44.8918006
  71.7370867 118.9198697  44.9483196  71.5602507 120.3969186  45.2292786
  71.1341459 110.6899774  46.1218673  70.3964216 110.1777160  46.4528916
  71.3868233 110.2500155  45.3101950  70.6341479 121.5984284  45.8267824
  70.9264453 122.1589341  45.1080189  71.1440100 121.8912845  46.5820983
  71.2353087 103.4676026  46.7160442  71.5411964 102.6073389  46.4286357
  71.9605692 104.0593646  46.5159436  57.5277443 113.8706712  45.1042040
  57.3301843 113.2776073  44.3793107  56.9724107 113.5658922  45.8217979
  65.5074166 113.7629819  47.2236633  65.5622776 112.8103655  47.1479110
  64.6965369 113.9189258  47.7077932  66.6565360 117.6909942  38.4614917
  66.2184790 116.9745801  38.0020554  67.3975801 117.9186057  37.9000008
  63.4466526 112.3806878  44.9827012  62.6334392 112.6801049  45.3892204
  63.9425521 111.9862567  45.7001494  65.5975104 122.3764635  46.9161277
  65.5551283 122.6025482  45.9869809  66.5137803 122.1428010  47.0647078
  69.0440738 112.8448703  53.8141906  69.3990126 113.0720176  54.6736372
  69.6912869 113.1767080  53.1919161  74.7738475 115.9667139  44.5191235
  74.6356374 116.1568735  43.5912424  74.4174694 116.7286522  44.9759286
  62.9380601 109.9525234  50.5988247  63.5779980 109.8113993  49.9011210
  62.1058132 109.6659747  50.2226849  74.8007855 118.0343666  49.5302507
  75.2344361 117.9418955  50.3785561  75.5139435 118.0101166  48.8922523
  63.7140905 119.2527664  46.7123240  64.5081504 118.7577985  46.5105815
  63.0032597 118.7245527  46.3490945  68.5335750 121.6345760  51.0635607
  68.5872772 122.2036696  51.8313323  67.6650531 121.8047645  50.6989644
  60.0223669 113.3970746  42.7882992  59.0921257 113.3355202  43.0052954
  60.1181141 112.8746699  41.9919634  59.9409218 109.9225559  45.3761234
  60.2016035 110.8370892  45.2670394  60.7626390 109.4550001  45.5257847
  61.4134143 111.3363316  52.5460058  62.0857196 111.1280678  51.8972707
  60.5863929 111.1385402  52.1065291  75.6623404 118.0767366  52.0635392
  75.8559294 118.9813177  52.3094667  75.5624022 117.6174786  52.8973977
  67.3159715 107.9625257  54.5625719  66.6687630 108.6615207  54.4690196
  68.0860730 108.3961401  54.9301968  70.7238513 118.2274109  57.6376273
  70.5724019 117.9984661  56.7206356  70.7143192 119.1844711  57.6507618
  67.4923849 115.8006022  52.6222539  68.4215909 115.9517182  52.4491506
  67.0714879 115.8890043  51.7671186  66.2912181 119.8256686  50.3921077
  66.1523267 119.4575471  51.2647015  65.5026777 120.3404326  50.2205034
  66.8860333 124.9265783  41.7346613  67.0612089 124.4553826  42.5492236
  66.1993121 125.5531549  41.9627874  67.8417396 119.2038289  47.7809914
  67.5067229 119.1639059  48.6767564  67.3421342 118.5383005  47.3080325
  61.8161640 114.6105919  53.3062496  61.6781438 113.8786158  53.9074035
  62.7266564 114.5214819  53.0246683  70.7776588 116.5494323  38.0546974
  70.1605758 115.8241152  37.9580027  70.3093076 117.3103684  37.7114048
  64.4443941 114.3225878  52.7946175  65.1543559 113.6819071  52.7532794
  64.4013249 114.5738773  53.7172356  72.4330720 121.2593232  55.7152754
  72.3743266 120.5752452  55.0483337  72.8350238 122.0012222  55.2633380
  63.1572875 111.3091096  54.6141815  62.6210232 110.8581835  55.2663411
  62.5689583 111.4437005  53.8712279  62.5675134 110.7679748  37.1768278
  61.6904600 110.6468548  36.8130525  63.0432887 109.9765826  36.9247167
  72.4348127 119.2232816  53.9466734  71.5474906 118.8858737  54.0693133
  73.0046678 118.4915847  54.1835500  54.0877274 115.5556907  47.2709786
  54.7748314 115.2418637  46.6830801  53.9325403 116.4598272  46.9977037
  58.8911996 110.4447104  51.6994809  58.8070185 109.8372774  50.9645219
  58.0694702 110.9356122  51.7004306  65.9649280 123.8834268  50.9127977
  65.8919452 124.6889240  51.4247282  65.5226673 124.0826234  50.0875999
  65.7539060 123.1206038  44.4230799  64.9706582 123.6627718  44.5169023
  66.4531805 123.6380018  44.8225040  69.0635710 108.9300668  47.0665004
  69.5604409 108.1770630  46.7466075  68.2922691 108.9664984  46.5008214
  76.9165467 114.6341033  48.7083296  76.9055344 115.5165748  48.3377229
  76.0482847 114.2812584  48.5137833  68.4247964 123.7821102  53.0686136
  69.1375936 124.4168567  52.9962037  67.9337992 123.8784968  52.2526138
  70.1465491 117.6872355  44.6403428  69.2121769 117.8073817  44.4708132
  70.3242159 116.7844822  44.3763438  65.6470679 111.0718051  46.7936689
  65.2768466 110.5189091  47.4817594  66.1429771 110.4676184  46.2411689
  73.5338042 113.5289674  45.1753462  73.9998494 114.3617666  45.1013764
  73.9845542 113.0634656  45.8798720  63.4759877 121.5315546  53.8891707
  64.1769337 122.1652028  54.0421101  63.0054992 121.8730277  53.1287346
  71.6014273 119.8733495  42.1739614  71.8774117 119.7590090  43.0833488
  70.7318772 119.4750980  42.1351787  71.5054705 105.8970261  49.2144363
  70.5917784 106.1274488  49.3826570  71.9347806 105.9808705  50.0658396
  71.2761163 114.0860153  51.7144257  70.6232613 114.3336060  51.0596710
  71.6541543 113.2724291  51.3806734  68.2368337 124.1219846  45.8172427
  68.4190732 123.3041502  46.2800180  69.0601323 124.3387538  45.3797317
  68.5710503 123.0488031  43.0787476  69.0998269 122.5380486  42.4657638
  68.8338722 122.7330561  43.9433009  67.3248736 114.8279964  58.2010294
  66.6489373 114.7274093  58.8712669  68.1476370 114.6719178  58.6646291
  59.0727595 121.0651901  50.8222810  59.6581032 120.3195588  50.9550714
  58.8752434 121.3755857  51.7059473  61.9266251 124.1003148  45.8385252
  61.2576626 124.5849276  45.3549292  61.7879120 124.3472368  46.7528630
  53.6645250 113.6357501  49.5427253  53.7029350 113.1021091  50.3364371
  53.1585543 113.1092706  48.9238230  66.0671519 126.1346891  52.4367910
  66.6189827 126.2978513  53.2016995  66.4077713 126.7251329  51.7647935
  61.0436012 108.4822041  53.0389795  61.1077339 109.3436872  52.6267193
  60.9803133 107.8696043  52.3062153  60.5188285 110.5545174  56.6862829
  61.1460324 110.1722251  57.3000354  59.6616204 110.3359376  57.0518522
  70.9182393 120.9608149  58.2916565  71.4622297 121.5738107  57.7971519
  70.3369238 121.5187727  58.8083578  57.2953828 112.3621603  42.6181184
  57.5907269 111.4532281  42.5648238  56.3941863 112.3409342  42.2962186
  69.2039906 124.0828867  49.4231592  69.0791046 123.2818607  48.9142538
  69.8618997 124.5775060  48.9345562  60.8248075 110.4377600  48.6008733
  60.1034660 111.0513567  48.4616206  61.6141330 110.9735364  48.5225379
  71.2674815 121.8837887  51.0511143  70.3205150 121.7643238  50.9789469
  71.6157588 120.9960385  51.1337404  63.6274388 107.7732026  54.8749384
  64.1508790 108.0194323  55.6375694  63.4086721 108.6052061  54.4552522
  59.0241669 110.0435701  42.7420509  58.6954375 109.1633080  42.5595615
  59.3781040 109.9883369  43.6296898  68.2721248 121.6790603  47.2515495
  68.1246210 120.7507311  47.4323065  69.0974742 121.7010694  46.7672570
  62.1383492 110.3308670  43.1095987  62.4779565 110.8594592  42.3874595
  62.5855613 110.6689077  43.8854553  71.8755370 122.5019162  48.3380367
  72.8001917 122.2962023  48.2004819  71.7070673 122.2535563  49.2469709
  64.8326933 108.7145721  52.5599055  64.4923754 107.9153534  52.9619735
  64.1265939 109.0147432  51.9875888  65.4843405 105.7995034  51.0126378
  66.3069474 105.3255512  50.8905268  65.7281469 106.5785517  51.5125064
  64.1251639 108.8283292  41.3089280  64.8460002 109.2064545  40.8052996
  63.5016944 109.5472169  41.4124258  68.2682762 109.5328441  42.2447612
  68.4846377 110.4153079  41.9436440  67.7876830 109.1414654  41.5153254
  63.0081984 112.4914154  48.8218357  62.8626564 112.8054457  49.7142638
  62.5307187 113.1099055  48.2689255  64.8678367 109.4816702  48.8699246
  64.8539935 108.5857795  48.5331544  65.5850795 109.4887366  49.5037532
  66.7204497 109.9154042  50.9152374  66.4622275 110.8371113  50.9136704
  66.1889538 109.5184477  51.6052838  71.6650686 123.0204829  43.6942459
  71.8387564 122.4551252  42.9416311  72.1579577 123.8205724  43.5121949
  57.4827646 115.0319499  51.7606018  56.9381114 115.8079307  51.8926292
  58.3606996 115.3790303  51.6025139  64.2715263 108.3631082  44.1386816
  64.3931174 107.4347729  44.3377704  63.9817305 108.3769768  43.2265132
  67.1406453 106.0485993  47.2753536  67.1628150 106.1125326  46.3205516
  67.5574512 105.2090502  47.4694042  77.5190077 115.7841252  45.3132759
  77.9621223 115.0348578  44.9151882  76.6416588 115.7751389  44.9306491
  72.6525859 122.3371594  40.7939357  73.3476763 122.9578287  41.0126672
  72.9949009 121.4866945  41.0691735  58.2693668 114.1589395  54.6536175
  57.5275404 114.3072030  55.2400805  57.9486412 114.4197660  53.7902924
  74.5517282 119.7871299  42.3226688  75.0768606 120.1258572  41.5976008
  74.4639634 118.8518315  42.1389823  66.2137330 123.7005373  54.4516565
  66.5224457 123.4554520  55.3239264  67.0112812 123.9052012  53.9635435
  66.2357942 125.8543283  46.6821941  65.7962933 125.3619661  47.3754798
  66.9866059 125.3116250  46.4414016  58.7150281 122.0454824  46.6846569
  59.5408301 121.7458595  46.3045213  58.3644333 121.2762446  47.1336358
  63.6831815 121.3981292  48.7544243  63.0611824 120.7351997  48.4546471
  64.3536682 121.4242424  48.0717891  56.9158887 119.9641150  47.6435503
  56.0790795 119.5363324  47.4619504  56.8882532 120.1573593  48.5806294
  63.7556342 109.8763080  58.3476749  63.8044498 110.7525203  57.9654518
  64.2978856 109.3340473  57.7748392  74.2411188 120.4204203  57.6277886
  73.4506731 120.4028342  57.0882385  74.0044542 120.9592497  58.3826923
  74.3609063 117.2696669  54.9410614  74.4107068 117.1046677  55.8826137
  74.2522986 116.4023928  54.5508495  63.2445322 119.9485215  42.2302703
  63.3933442 120.6320680  41.5769376  64.0511765 119.9290305  42.7452159
  71.6512825 113.2527597  56.2569921  72.5522688 113.1134062  55.9653919
  71.7260800 113.4182052  57.1968099  65.9855631 110.6294452  55.1023108
  65.1158940 110.9228018  54.8305696  66.2215111 111.2134897  55.8230371
  75.8627260 119.6893611  55.1852636  75.5712068 120.0523592  56.0216097
  75.2499391 118.9760619  55.0065968  77.0622942 117.2546491  47.7055206
  77.8969833 117.6936295  47.8692767  77.1982071 116.7785144  46.8863452
  74.1114448 114.8126226  53.6532694  74.5868570 115.0053872  52.8451545
  73.1880013 114.8685411  53.4076078  60.9997955 115.9750393  43.2363772
  60.7543996 115.0712723  43.4343982  61.1693869 115.9767543  42.2943250
  68.6894664 106.8474069  52.6188528  69.2076608 107.5835096  52.2935016
  68.3349797 107.1538062  53.4535287  60.2693602 111.7078750  40.7349934
  59.5762847 111.7823105  40.0789970  60.0245354 110.9439094  41.2571451
  68.9407259 103.2674352  48.1389425  69.2209012 102.5997541  48.7649851
  69.7257865 103.4603447  47.6264088  66.7440727 122.4433346  39.7014451
  66.1714694 123.0623533  39.2484923  67.3173521 122.9932707  40.2354373
  72.8116117 111.6891986  51.8861000  73.7633540 111.7890083  51.9073224
  72.6419567 110.8970254  52.3959084  70.8330496 108.7747569  52.0720401
  70.2380428 109.0552582  51.3766889  70.5480193 109.2641470  52.8437142
  69.9637987 122.7270496  40.8323033  70.8968660 122.6616057  41.0355909
  69.8761200 123.5626763  40.3737566  72.5926004 122.0436366  37.7926981
  72.5139635 121.7096230  38.6862739  73.4135670 122.5358134  37.7918453
  75.2904195 114.9098105  51.0003299  75.2580515 113.9714106  51.1862983
  75.9004818 114.9882142  50.2669124  67.1287526 113.7794158  37.0430503
  68.0746630 113.6500366  37.1118921  66.7501771 113.0408820  37.5199931
  75.4398683 111.7009149  51.0461582  74.9237732 110.9167605  50.8591511
  76.3238632 111.3727865  51.2108102  73.1009410 105.4450164  47.0057395
  72.9034231 105.1365253  47.8900727  73.7109116 106.1711803  47.1355325
  81.1080745 115.9714112  50.1409336  81.8384133 115.7099400  50.7017039
  80.4987690 115.2342834  50.1811404  79.1896042 114.1121975  50.7383787
  78.4629205 113.9777940  50.1300279  78.7743329 114.4198803  51.5440505
  67.0126218 117.8311904  58.5031160  67.9329228 118.0090503  58.6971207
  66.9775801 116.8867950  58.3510860  65.3130443 111.7044135  36.9785389
  64.4061898 111.4077247  37.0548102  65.5906424 111.4073953  36.1119675
  56.2308383 113.0250498  47.4284435  55.9111167 112.1715806  47.1358809
  55.6841811 113.2399076  48.1842402  60.0088291 115.7412939  51.1453941
  60.2274300 116.6730047  51.1641975  60.4214064 115.3820914  51.9308745
  66.9292508 106.2481024  43.1329630  66.1193237 105.9028109  43.5084876
  67.6176925 105.9388568  43.7217241  68.8583057 105.3259071  44.7553926
  69.4114095 105.7454525  45.4143950  69.0953143 104.3994819  44.7976882
  64.8816156 111.3146145  60.5356690  64.7812883 112.2640502  60.4668781
  64.6637698 110.9864384  59.6632760  64.0829227 108.5631070  37.1197368
  64.9448391 108.8885968  37.3793185  64.2679571 107.7762566  36.6070434
  56.0996643 116.6453410  49.3977557  55.4060115 116.2307362  48.8847511
  56.8469634 116.6873946  48.8010975  72.2361864 107.4359596  44.2632591
  71.6560533 108.0944400  43.8810643  71.9697796 106.6136941  43.8520008
  70.6865430 106.8364654  46.4653911  71.1865209 106.9481189  45.6568230
  71.3301038 106.5325707  47.1054719  64.7447426 114.7443284  59.3521752
  64.2614508 115.5443644  59.5585641  64.8308365 114.7551229  58.3989196
  58.0133386 116.5771663  47.2743571  57.9904074 116.6759351  46.3225454
  58.3234022 117.4236814  47.5960738  60.6720764 118.6347818  51.3890186
  61.6264017 118.6031761  51.3220117  60.4733287 118.1738442  52.2040412
  61.2620146 117.2048934  53.9560983  62.0813035 117.6993013  53.9795821
  61.5356953 116.2880903  53.9278551  71.0186742 109.5959687  43.3188939
  70.1312597 109.8809337  43.1009134  71.4340731 109.4353450  42.4716216
  74.3701278 109.6206208  47.0343278  75.1461668 110.1102660  47.3067895
  73.6449412 110.0464262  47.4915148  76.8073837 110.3333827  48.0917219
  77.4018327 110.0929563  47.3810527  76.8800420 109.6140958  48.7190755
  59.0270992 124.1767438  48.4060384  58.8925460 123.4167839  47.8398382
  58.6103055 124.9008338  47.9389173  70.1629955 119.3604361  37.4136959
  70.8665805 119.5654364  38.0294615  69.4392604 119.9281123  37.6786042
  70.9927766 115.1114223  43.5339229  70.9362967 115.5682774  42.6946862
  71.5456108 114.3504907  43.3562072  74.8032571 110.9003955  44.3589349
  74.5469506 110.5000590  45.1897556  74.1785440 111.6147749  44.2339488
  79.1144909 113.6400028  46.8660640  78.5544467 113.7093217  47.6392202
  78.5088413 113.4641012  46.1460136  62.1840118 125.0736755  48.6178826
  62.0672502 126.0182187  48.5157517  61.3632564 124.7710316  49.0064626
  72.0716653 119.7986891  39.4635419  72.9062257 119.3668089  39.2812894
  71.9100996 119.6268904  40.3912314  71.7262545 116.3019004  40.8291758
  71.6711349 116.1363275  39.8880202  71.1008600 117.0095037  40.9853948
  56.5155060 111.5387068  54.6553181  57.1613923 111.0286022  55.1440406
  56.3072211 112.2755750  55.2296606  69.0408452 118.6067916  60.1545321
  69.9099612 118.7808568  59.7931956  68.5615204 119.4262333  60.0321050
  65.0358670 105.8027113  40.4077077  65.0237340 106.7468953  40.5645348
  65.9282092 105.6197258  40.1136538  63.2094632 125.7265017  51.8334755
  64.1121879 125.7588627  52.1501250  62.9832002 124.7965468  51.8481091
  64.9648234 124.4796003  48.4944833  64.0143865 124.4797865  48.3809206
  65.2680720 123.7328738  47.9780868  68.8510790 102.3969890  44.6623014
  68.0843186 101.8428376  44.8079696  69.2621495 102.4691758  45.5237165
  60.8552551 108.6854685  58.7528195  61.7184012 108.3291490  58.9631519
  60.2817962 108.3468580  59.4403599  80.7000928 130.3156542  49.5590596
  81.3379338 130.1963289  48.8553936  80.5821771 131.2637386  49.6178548
  77.5090634 130.2683970  49.4952120  77.1709146 130.1525035  48.6072655
  78.3780402 129.8675135  49.4753127  77.9910417 131.4218822  55.4538326
  77.9799058 131.0271620  54.5818830  78.1531057 130.6884894  56.0472097
  75.2098913 129.0372217  38.8269061  75.4624434 128.5153739  38.0652524
  74.2723473 128.8738363  38.9295744  80.2542196 128.0407996  46.6343804
  81.0405286 127.6227419  46.2834221  80.5180901 128.9454088  46.8025452
  85.6550623 127.9783229  47.5376782  86.3875795 127.4082446  47.7714612
  84.8989979 127.5904829  47.9783288  77.2726743 130.4010470  44.7340125
  76.9084950 129.8741091  45.4453046  78.1293859 130.0108939  44.5606610
  83.1776044 121.6904803  51.9971391  82.8459369 122.5600214  51.7732606
  82.5821657 121.3741087  52.6765421  76.9132230 125.4300370  39.7301473
  77.0806632 126.2980606  40.0971944  76.7229399 125.5927652  38.8062763
  83.0704707 126.4099889  49.0764741  82.1621584 126.3415298  48.7823502
  83.0192303 126.8871834  49.9046566  76.8921451 127.8858028  40.7148140
  76.7721076 128.3315078  41.5533620  76.1974039 128.2343345  40.1561678
  77.1445573 127.8289535  57.0199638  76.3678907 128.3883455  57.0102503
  77.7836136 128.3146318  57.5414508  84.9366353 124.6116327  50.8542615
  84.2940734 124.9048861  50.2082409  84.4321282 124.4969248  51.6595812
  82.5906517 128.3579501  41.5428474  83.5024373 128.5906887  41.3676172
  82.0816164 128.9416545  40.9803553  80.8747285 132.7804129  55.1789767
  81.2830641 132.3386539  54.4344399  80.1524546 132.2056756  55.4323960
  77.2278355 127.7176735  52.5523324  78.0739550 128.1416149  52.6957973
  77.1676993 127.0610360  53.2461887  80.3777800 125.3781104  54.2104497
  80.1338732 126.1323164  53.6738773  80.6537731 125.7566451  55.0451744
  82.3316263 131.9219716  52.8881763  82.5433158 132.5651476  52.2116144
  82.2846011 131.0882033  52.4203693  79.9342492 124.5337537  49.7918335
  79.0726971 124.8318790  50.0835073  79.9604927 124.7507936  48.8599368
  75.6872947 129.2002880  43.0081706  76.3896991 129.6523923  43.4755632
  75.3553576 128.5586698  43.6361599  74.1353309 127.7914636  57.3832915
  73.5051969 128.4730917  57.6168312  74.0289397 127.6797718  56.4386054
  69.4298281 127.4586432  48.3098839  68.6397335 127.7143961  47.8338950
  69.9209529 128.2734770  48.4150880  71.3813027 127.8231012  45.2682316
  70.5844190 127.9349706  45.7865812  71.1538619 128.1617664  44.4023207
  73.4134052 122.0935402  59.7458166  73.0200997 121.5401601  60.4205811
  74.2300192 122.4045981  60.1364684  76.3302013 123.5093281  57.3378423
  77.0711726 124.1100434  57.2582885  76.5619935 122.7670919  56.7796465
  71.4743351 128.6949648  55.6156653  71.3596866 127.7934906  55.9163751
  70.6187868 128.9413345  55.2641469  80.2759176 119.5374384  51.6142705
  79.9323445 120.4276026  51.5381815  80.6438138 119.3476042  50.7512290
  80.2409458 129.5282995  40.1215140  79.7256082 130.2987600  40.3603527
  79.9686767 128.8548131  40.7448201  77.8256569 124.3732696  45.1800378
  76.9698166 123.9839546  45.0006017  78.2383521 124.4524657  44.3200164
  79.3555716 121.9079039  49.5791938  78.8520512 121.8709174  48.7659743
  79.6486323 122.8171782  49.6388594  75.5998602 121.9917769  48.5858120
  76.4651599 121.7960578  48.2264009  75.6676111 121.7628121  49.5127476
  80.0295761 127.4010087  41.9474921  79.7245897 127.7156236  42.7985064
  80.9826204 127.4791507  41.9902254  73.2060921 124.2219977  45.9574486
  73.7804673 123.9995158  45.2247679  73.7931903 124.2908671  46.7103088
  82.2640498 130.1093704  46.7638863  82.7772380 130.7423696  47.2660573
  82.9141722 129.5094899  46.3982223  73.5330508 126.2524438  39.9770372
  72.6967820 126.5899124  40.2979646  73.3935278 126.1173418  39.0397509
  75.5083589 121.0961226  44.6849556  74.8548001 120.7810243  44.0606171
  75.4664063 120.4736966  45.4109379  76.6194793 131.3780521  36.6002848
  75.7121855 131.1469774  36.7993997  77.1165825 130.5818140  36.7876829
  78.7421329 127.5843159  49.0097203  77.8243890 127.8058106  48.8518891
  79.1581473 127.6589470  48.1508911  79.5256377 128.9834575  44.1399884
  80.2728196 129.4955972  43.8307006  79.7947966 128.6618628  45.0004277
  77.7983027 131.4793116  41.1226838  76.8894246 131.1952149  41.2199308
  77.8278111 131.8992194  40.2630145  81.9735214 126.0191691  46.1218673
  81.2357971 125.5069077  46.4528916  82.2261987 125.5792073  45.3101950
  82.0746841 118.7967943  46.7160442  82.3805718 117.9365307  46.4286357
  82.7999446 119.3885563  46.5159436  76.3467921 129.0921736  47.2236633
  76.4016531 128.1395573  47.1479110  75.5359123 129.2481175  47.7077932
  74.2860281 127.7098796  44.9827012  73.4728146 128.0092967  45.3892204
  74.7819275 127.3154485  45.7001494  79.8834493 128.1740621  53.8141906
  80.2383880 128.4012094  54.6736372  80.5306624 128.5058997  53.1919161
  73.7774356 125.2817152  50.5988247  74.4173735 125.1405911  49.9011210
  72.9451886 124.9951665  50.2226849  70.8617423 128.7262664  42.7882992
  69.9315011 128.6647119  43.0052954  70.9574895 128.2038617  41.9919634
  70.7802972 125.2517477  45.3761234  71.0409789 126.1662810  45.2670394
  71.6020144 124.7841919  45.5257847  72.2527897 126.6655234  52.5460058
  72.9250951 126.4572596  51.8972707  71.4257684 126.4677320  52.1065291
  78.1553469 123.2917175  54.5625719  77.5081384 123.9907124  54.4690196
  78.9254485 123.7253319  54.9301968  78.3317604 131.1297940  52.6222539
  79.2609664 131.2809099  52.4491506  77.9108634 131.2181960  51.7671186
  72.6555395 129.9397837  53.3062496  72.5175193 129.2078076  53.9074035
  73.5660318 129.8506737  53.0246683  81.6170342 131.8786241  38.0546974
  80.9999513 131.1533069  37.9580027  81.1486831 132.6395601  37.7114048
  75.2837695 129.6517796  52.7946175  75.9937314 129.0110988  52.7532794
  75.2407003 129.9030691  53.7172356  73.9966629 126.6383014  54.6141815
  73.4603986 126.1873752  55.2663411  73.4083338 126.7728923  53.8712279
  73.4068888 126.0971665  37.1768278  72.5298355 125.9760466  36.8130525
  73.8826641 125.3057744  36.9247167  69.7305751 125.7739022  51.6994809
  69.6463939 125.1664691  50.9645219  68.9088457 126.2648040  51.7004306
  79.9029464 124.2592585  47.0665004  80.3998164 123.5062548  46.7466075
  79.1316446 124.2956902  46.5008214  76.4864433 126.4009968  46.7936689
  76.1162221 125.8481009  47.4817594  76.9823526 125.7968102  46.2411689
  84.3731796 128.8581592  45.1753462  84.8392249 129.6909583  45.1013764
  84.8239297 128.3926573  45.8798720  82.3448459 121.2262179  49.2144363
  81.4311539 121.4566406  49.3826570  82.7741561 121.3100623  50.0658396
  82.1154918 129.4152071  51.7144257  81.4626368 129.6627978  51.0596710
  82.4935298 128.6016209  51.3806734  78.1642491 130.1571882  58.2010294
  77.4883128 130.0566011  58.8712669  78.9870125 130.0011095  58.6646291
  71.8829767 123.8113959  53.0389795  71.9471093 124.6728790  52.6267193
  71.8196887 123.1987961  52.3062153  71.3582039 125.8837091  56.6862829
  71.9854078 125.5014169  57.3000354  70.5009958 125.6651293  57.0518522
  68.1347582 127.6913521  42.6181184  68.4301023 126.7824199  42.5648238
  67.2335618 127.6701260  42.2962186  71.6641829 125.7669517  48.6008733
  70.9428415 126.3805485  48.4616206  72.4535085 126.3027282  48.5225379
  74.4668143 123.1023944  54.8749384  74.9902544 123.3486240  55.6375694
  74.2480476 123.9343978  54.4552522  69.8635424 125.3727618  42.7420509
  69.5348130 124.4924997  42.5595615  70.2174794 125.3175287  43.6296898
  72.9777247 125.6600588  43.1095987  73.3173319 126.1886509  42.3874595
  73.4249367 125.9980994  43.8854553  75.6720688 124.0437639  52.5599055
  75.3317508 123.2445452  52.9619735  74.9659694 124.3439350  51.9875888
  76.3237159 121.1286951  51.0126378  77.1463229 120.6547429  50.8905268
  76.5675223 121.9077435  51.5125064  74.9645394 124.1575210  41.3089280
  75.6853756 124.5356462  40.8052996  74.3410698 124.8764086  41.4124258
  79.1076517 124.8620359  42.2447612  79.3240131 125.7444997  41.9436440
  78.6270584 124.4706572  41.5153254  73.8475738 127.8206072  48.8218357
  73.7020319 128.1346375  49.7142638  73.3700942 128.4390972  48.2689255
  75.7072121 124.8108620  48.8699246  75.6933690 123.9149713  48.5331544
  76.4244549 124.8179284  49.5037532  77.5598252 125.2445960  50.9152374
  77.3016030 126.1663031  50.9136704  77.0283292 124.8476395  51.6052838
  75.1109017 123.6923000  44.1386816  75.2324928 122.7639646  44.3377704
  74.8211059 123.7061686  43.2265132  77.9800207 121.3777911  47.2753536
  78.0021904 121.4417244  46.3205516  78.3968266 120.5382419  47.4694042
  74.5950097 125.2054997  58.3476749  74.6438252 126.0817120  57.9654518
  75.1372611 124.6632391  57.7748392  82.4906580 128.5819515  56.2569921
  83.3916442 128.4425980  55.9653919  82.5654554 128.7473970  57.1968099
  76.8249385 125.9586370  55.1023108  75.9552694 126.2519936  54.8305696
  77.0608865 126.5426815  55.8230371  84.9508202 130.1418143  53.6532694
  85.4262324 130.3345790  52.8451545  84.0273768 130.1977329  53.4076078
  79.5288419 122.1765987  52.6188528  80.0470363 122.9127014  52.2935016
  79.1743552 122.4829980  53.4535287  71.1087357 127.0370668  40.7349934
  70.4156601 127.1115023  40.0789970  70.8639108 126.2731012  41.2571451
  79.7801013 118.5966269  48.1389425  80.0602767 117.9289458  48.7649851
  80.5651620 118.7895365  47.6264088  83.6509871 127.0183903  51.8861000
  84.6027294 127.1182001  51.9073224  83.4813322 126.2262172  52.3959084
  81.6724251 124.1039487  52.0720401  81.0774183 124.3844499  51.3766889
  81.3873948 124.5933387  52.8437142  77.9681280 129.1086076  37.0430503
  78.9140385 128.9792284  37.1118921  77.5895525 128.3700738  37.5199931
  86.2792438 127.0301066  51.0461582  85.7631486 126.2459523  50.8591511
  87.1632386 126.7019783  51.2108102  83.9403165 120.7742082  47.0057395
  83.7427986 120.4657170  47.8900727  84.5502870 121.5003721  47.1355325
  76.1524197 127.0336052  36.9785389  75.2455653 126.7369165  37.0548102
  76.4300178 126.7365870  36.1119675  77.7686263 121.5772942  43.1329630
  76.9586991 121.2320027  43.5084876  78.4570680 121.2680486  43.7217241
  79.6976811 120.6550989  44.7553926  80.2507850 121.0746442  45.4143950
  79.9346898 119.7286737  44.7976882  75.7209910 126.6438063  60.5356690
  75.6206637 127.5932420  60.4668781  75.5031452 126.3156301  59.6632760
  74.9222982 123.8922988  37.1197368  75.7842146 124.2177886  37.3793185
  75.1073326 123.1054484  36.6070434  83.0755618 122.7651514  44.2632591
  82.4954287 123.4236318  43.8810643  82.8091551 121.9428859  43.8520008
  81.5259185 122.1656572  46.4653911  82.0258963 122.2773106  45.6568230
  82.1694793 121.8617625  47.1054719  75.5841181 130.0735201  59.3521752
  75.1008262 130.8735562  59.5585641  75.6702120 130.0843146  58.3989196
  81.8580496 124.9251604  43.3188939  80.9706351 125.2101255  43.1009134
  82.2734485 124.7645368  42.4716216  85.2095032 124.9498125  47.0343278
  85.9855423 125.4394578  47.3067895  84.4843167 125.3756180  47.4915148
  87.6467591 125.6625745  48.0917219  88.2412082 125.4221481  47.3810527
  87.7194175 124.9432875  48.7190755  81.8321520 130.4406140  43.5339229
  81.7756721 130.8974692  42.6946862  82.3849863 129.6796825  43.3562072
  85.6426326 126.2295872  44.3589349  85.3863260 125.8292508  45.1897556
  85.0179194 126.9439666  44.2339488  82.5656299 131.6310922  40.8291758
  82.5105103 131.4655193  39.8880202  81.9402355 132.3386955  40.9853948
  67.3548814 126.8678986  54.6553181  68.0007678 126.3577940  55.1440406
  67.1465965 127.6047668  55.2296606  75.8752425 121.1319031  40.4077077
  75.8631095 122.0760871  40.5645348  76.7675847 120.9489176  40.1136538
  79.6904544 117.7261807  44.6623014  78.9236940 117.1720294  44.8079696
  80.1015249 117.7983676  45.5237165  71.6946305 124.0146603  58.7528195
  72.5577767 123.6583408  58.9631519  71.1211716 123.6760498  59.4403599
  15.6638402  15.3467158  36.2835902  16.3016812  15.2273906  35.5799242
  15.5459245  16.2948002  36.3423855  12.4728108  15.2994586  36.2197427
  12.1346620  15.1835651  35.3317962  13.3417877  14.8985751  36.1998433
  12.9547891  16.4529438  42.1783633  12.9436532  16.0582236  41.3064136
  13.1168531  15.7195511  42.7717404   5.8779356  18.6481254  35.0478539
   6.6700648  18.3072079  34.6324838   6.1176006  18.7576229  35.9680692
   9.6755153  19.2366550  41.1262817   9.3845019  20.1412181  41.0109483
  10.3112137  19.2783078  41.8406886  10.6011359  16.6143398  37.7164176
  11.1974932  16.3899421  37.0021139  10.6586331  15.8728144  38.3189624
  20.6188098  13.0093845  34.2622089  21.3513270  12.4393062  34.4959918
  19.8627453  12.6215446  34.7028595  18.1413518   6.7215419  38.7216698
  17.8096843   7.5910830  38.4977913  17.5459131   6.4051703  39.4010728
  14.6345038  18.9227965  38.1212610  14.3345761  19.8253004  38.0128418
  14.2896097  18.6560149  38.9733763  18.0342181  11.4410506  35.8010048
  17.1259059  11.3725914  35.5068809  17.9829777  11.9182451  36.6291873
   9.6165817  25.6872286  31.0883578   9.5389847  26.6380111  31.1672059
   9.0127461  25.3418158  31.7458504  12.1083047  12.8600151  43.7444945
  11.3316381  13.4194071  43.7347810  12.7473610  13.3456934  44.2659815
  19.9003828   9.6426944  37.5787922  19.2578208   9.9359477  36.9327716
  19.3958756   9.5279864  38.3841118  10.3629419  15.6685605  43.3062912
  11.1044104  16.2070649  43.0297736   9.6566405  16.2951893  43.4634464
  15.8384759  17.8114745  41.9035073  16.2468115  17.3697156  41.1589706
  15.1162021  17.2367373  42.1569266  12.1915829  12.7487352  39.2768630
  13.0377024  13.1726765  39.4203279  12.1314467  12.0920976  39.9707193
  16.1613574  18.3715936  35.6587362  15.5322436  18.5361650  34.9563430
  15.7739236  18.7857545  36.4298326  20.0402806  19.3070374  33.0131726
  19.3553844  19.6869275  32.4628759  20.1246655  19.9165700  33.7463674
  15.3415275  10.4091720  40.9349804  15.0976206  11.1633781  40.3984080
  15.6175205  10.7877068  41.7697051  17.2953737  16.9530333  39.6127070
  17.5070633  17.5962092  38.9361451  17.2483486  16.1192649  39.1449000
  11.7141536  18.1090344  32.9237447  12.1779881  18.3878047  32.1342070
  11.4498334  17.2073788  32.7410538   8.6065617  17.6561825  35.8617211
   9.1766974  18.0849094  35.2234695   9.1973729  17.3744410  36.5601396
   9.0990783  12.8225253  44.1078222   8.4689444  13.5041534  44.3413619
   8.9926871  12.7108334  43.1631360  18.4099565  19.8302288  37.7849427
  19.2317009  19.4282475  37.5032109  18.4061968  19.7270522  38.7365543
  12.1756169  19.3786331  39.9410137  12.2400601  19.8406738  40.7768309
  11.4667093  18.7483696  40.0692447  26.5005558  16.1741036  34.1334398
  25.7469267  15.6048435  33.9778403  26.6353099  16.1403701  35.0805033
   7.1528468  21.6795633  32.4639796   7.3295097  22.6013598  32.2760780
   7.9485302  21.3654052  32.8934176  13.5172663  21.6678005  43.9389460
  13.0736517  20.8814384  43.6210364  14.1789876  21.8557156  43.2733351
   8.2759784  23.1973807  38.4650138   8.8267209  23.0690870  37.6927132
   7.4371260  23.4968696  38.1145031  15.6153901  21.9480805  41.9670861
  15.5972376  22.7689686  41.4751130  16.5373821  21.8234880  42.1921002
  12.0726955  19.4624935  42.8094369  12.6055292  18.7013223  42.5793677
  11.5441036  19.1698586  43.5518524  18.4172514  16.7859948  35.4380228
  17.7596188  17.4759209  35.5260356  19.2212913  17.1756380  35.7814214
  17.2277972  15.1404320  33.4884170  17.7409854  15.7734312  33.9905879
  17.8779196  14.5405516  33.1227530  13.7058803  12.6153776  35.7342510
  12.7881365  12.8368723  35.5764198  14.1218947  12.6900086  34.8754217
  17.9939769  20.1210322  31.6163312  17.5402096  19.2801232  31.6728503
  17.3633735  20.7571720  31.9538092  16.4372708  21.9586818  32.5513130
  16.7295682  22.5191876  31.8325496  16.9471328  22.2515379  33.3066289
  11.4006333  22.7367170  33.6406583  11.3582512  22.9628016  32.7115116
  12.3169032  22.5030544  33.7892385  14.8471967  13.2051237  40.5387213
  15.2021355  13.4322710  41.3981678  15.4944098  13.5369614  39.9164468
  20.5769704  16.3269673  31.2436542  20.4387602  16.5171269  30.3157731
  20.2205923  17.0889056  31.7004593  20.6039083  18.3946200  36.2547813
  21.0375590  18.3021489  37.1030867  21.3170664  18.3703700  35.6167829
   9.5172134  19.6130199  33.4368546  10.3112732  19.1180519  33.2351121
   8.8063826  19.0848062  33.0736252  14.3366978  21.9948294  37.7880914
  14.3904001  22.5639230  38.5558630  13.4681760  22.1650179  37.4234951
  21.4654633  18.4369901  38.7880699  21.6590523  19.3415711  39.0339974
  21.3655251  17.9777320  39.6219284  16.5269742  18.5876643  44.3621579
  16.3755248  18.3587195  43.4451663  16.5174421  19.5447245  44.3752924
  13.2955078  16.1608556  39.3467846  14.2247138  16.3119716  39.1736813
  12.8746108  16.2492577  38.4916492  12.0943410  20.1859221  37.1166383
  11.9554496  19.8178005  37.9892321  11.3058006  20.7006860  36.9450341
  12.6891562  25.2868317  28.4591920  12.8643318  24.8156360  29.2737543
  12.0024350  25.9134083  28.6873181  13.6448625  19.5640823  34.5055221
  13.3098458  19.5241593  35.4012871  13.1452571  18.8985539  34.0325631
   7.6192869  14.9708453  40.0307802   7.4812667  14.2388692  40.6319341
   8.5297792  14.8817353  39.7491990  10.2475170  14.6828413  39.5191482
  10.9574788  14.0421605  39.4778100  10.2044478  14.9341307  40.4417663
  18.2361948  21.6195766  42.4398061  18.1774494  20.9354986  41.7728644
  18.6381467  22.3614756  41.9878687   7.2552647  28.4357680  35.2331780
   7.4949245  29.0676204  35.9110799   6.4121844  28.0845720  35.5197139
  18.2379356  19.5835350  40.6712041  17.3506134  19.2461272  40.7938440
  18.8077907  18.8518381  40.9080806  11.7680509  24.2436802  37.6373284
  11.6950680  25.0491774  38.1492589  11.3257902  24.4428768  36.8121305
  11.5570289  23.4808572  31.1476106  10.7737811  24.0230252  31.2414330
  12.2563034  23.9982552  31.5470347  22.7196696  14.9943567  35.4328602
  22.7086572  15.8768283  35.0622536  21.8514076  14.6415118  35.2383139
  14.2279193  24.1423636  39.7931443  14.9407165  24.7771101  39.7207344
  13.7369221  24.2387502  38.9771444  15.9496719  18.0474889  31.3648734
  15.0152998  18.1676351  31.1953439  16.1273388  17.1447356  31.1008744
  19.3369271  13.8892208  31.8998768  19.8029723  14.7220200  31.8259071
  19.7876771  13.4237190  32.6044027   9.2791106  21.8918080  40.6137013
   9.9800566  22.5254563  40.7666408   8.8086221  22.2332811  39.8532653
  17.0792392  14.4462687  38.4389564  16.4263842  14.6938595  37.7842017
  17.4572772  13.6326825  38.1052041  14.0399566  24.4822380  32.5417734
  14.2221960  23.6644036  33.0045486  14.8632552  24.6990073  32.1042624
  14.3741731  23.4090565  29.8032783  14.9029498  22.8983020  29.1902945
  14.6369951  23.0933096  30.6678316  13.1279965  15.1882498  44.9255601
  12.4520602  15.0876628  45.5957976  13.9507599  15.0321712  45.3891598
   4.8758824  21.4254435  37.5468116   5.4612261  20.6798123  37.6796020
   4.6783663  21.7358391  38.4304780   7.7297479  24.4605682  32.5630559
   7.0607855  24.9451810  32.0794599   7.5910349  24.7074903  33.4773937
  11.8702748  26.4949426  39.1613217  12.4221056  26.6581047  39.9262302
  12.2108941  27.0853864  38.4893242  16.7213622  21.3210683  45.0161871
  17.2653526  21.9340641  44.5216826  16.1400467  21.8790262  45.5328884
  15.0071135  24.4431401  36.1476899  14.8822275  23.6421141  35.6387845
  15.6650226  24.9377595  35.6590869  17.0706044  22.2440421  37.7756449
  16.1236379  22.1245772  37.7034776  17.4188817  21.3562919  37.8582711
  14.0752477  22.0393138  33.9760801  13.9277439  21.1109845  34.1568371
  14.9005970  22.0613228  33.4917877  17.6786599  22.8621696  35.0625674
  18.6033146  22.6564558  34.9250125  17.5101902  22.6138097  35.9715016
  17.4681915  23.3807364  30.4187766  17.6418792  22.8153786  29.6661618
  17.9610806  24.1808259  30.2367256  23.3221306  16.1443787  32.0378065
  23.7652452  15.3951112  31.6397189  22.4447816  16.1353923  31.6551797
  18.4557087  22.6974128  27.5184664  19.1507992  23.3180821  27.7371979
  18.7980238  21.8469479  27.7937042  20.3548511  20.1473834  29.0471995
  20.8799835  20.4861106  28.3221315  20.2670863  19.2120849  28.8635129
  12.0168559  24.0607907  41.1761871  12.3255686  23.8157054  42.0484571
  12.8144041  24.2654546  40.6880741  12.0389171  26.2145817  33.4067248
  11.5994162  25.7222196  34.1000105  12.7897288  25.6718785  33.1659323
   4.5181510  22.4057358  33.4091876   5.3439530  22.1061130  33.0290519
   4.1675562  21.6364980  33.8581665   9.4863043  21.7583826  35.4789549
   8.8643053  21.0954531  35.1791777  10.1567910  21.7844958  34.7963197
  20.0442417  20.7806737  44.3523193  19.2537960  20.7630876  43.8127692
  19.8075771  21.3195031  45.1072229  20.1640292  17.6299204  41.6655921
  20.2138297  17.4649211  42.6071444  20.0554215  16.7626463  41.2753802
  17.4544054  13.6130132  42.9815228  18.3553917  13.4736597  42.6899226
  17.5292029  13.7784587  43.9213405  11.7886859  10.9896986  41.8268414
  10.9190169  11.2830552  41.5551003  12.0246340  11.5737431  42.5475678
  21.6658488  20.0496145  41.9097943  21.3743297  20.4126126  42.7461404
  21.0530620  19.3363153  41.7311275  22.8654171  17.6149025  34.4300513
  23.7001062  18.0538829  34.5938073  23.0013300  17.1387678  33.6108759
  19.9145677  15.1728760  40.3778001  20.3899798  15.3656406  39.5696852
  18.9911242  15.2287946  40.1321384  18.6147346  12.0494520  38.6106306
  19.5664769  12.1492618  38.6318530  18.4450796  11.2572788  39.1204391
  16.6361725   9.1350103  38.7965707  16.0411657   9.4155116  38.1012196
  16.3511422   9.6244004  39.5682448  21.0935424  15.2700640  37.7248606
  21.0611744  14.3316640  37.9108290  21.7036047  15.3484676  36.9914431
  21.2429912  12.0611683  37.7706889  20.7268961  11.2770140  37.5836818
  22.1269861  11.7330400  37.9353409  26.9111973  16.3316646  36.8654643
  27.6415362  16.0701935  37.4262346  26.3018919  15.5945368  36.9056711
  24.9927270  14.4724509  37.4629094  24.2660434  14.3380474  36.8545585
  24.5774557  14.7801338  38.2685812  12.8157447  18.1914439  45.2276467
  13.7360456  18.3693038  45.4216513  12.7807030  17.2470484  45.0756166
   5.8119519  16.1015473  37.8699248   6.0305529  17.0332581  37.8887282
   6.2245293  15.7423448  38.6554052  10.6847385  11.6748679  47.2601997
  10.5844112  12.6243036  47.1914088  10.4668927  11.3466918  46.3878067
  10.5478655  15.1045818  46.0767059  10.0645737  15.9046178  46.2830948
  10.6339594  15.1153763  45.1234503   6.4751992  18.9950353  38.1135492
   7.4295246  18.9634295  38.0465424   6.2764516  18.5340976  38.9285718
   7.0651374  17.5651469  40.6806290   7.8844263  18.0595547  40.7041127
   7.3388182  16.6483437  40.6523858  20.1732507   9.9808742  33.7588585
  20.9492897  10.4705194  34.0313202  19.4480641  10.4066796  34.2160454
  22.6105065  10.6936361  34.8162526  23.2049556  10.4532097  34.1055834
  22.6831649   9.9743492  35.4436062   4.8302221  24.5369972  35.1305690
   4.6956689  23.7770373  34.5643688   4.4134283  25.2610872  34.6634479
  24.9176138  14.0002562  33.5905947  24.3575696  14.0695751  34.3637509
  24.3119642  13.8243547  32.8705443   7.9871347  25.4339289  35.3424133
   7.8703731  26.3784722  35.2402823   7.1663793  25.1312851  35.7309932
  14.8439681  18.9670450  46.8790628  15.7130841  19.1411102  46.5177263
  14.3646432  19.7864867  46.7566357   9.0125861  26.0867551  38.5580061
   9.9153108  26.1191161  38.8746556   8.7863231  25.1568002  38.5726397
  10.7679463  24.8398538  35.2190140   9.8175094  24.8400399  35.1054512
  11.0711949  24.0931272  34.7026175  26.5032157  30.6759076  36.2835902
  27.1410567  30.5565823  35.5799242  26.3852999  31.6239920  36.3423855
  23.3121863  30.6286504  36.2197427  22.9740374  30.5127569  35.3317962
  24.1811631  30.2277669  36.1998433  19.1708679  32.4821980  32.2094318
  18.6073544  32.3911917  31.4410606  19.0561074  31.6621885  32.6896811
  23.7941646  31.7821356  42.1783633  23.7830287  31.3874154  41.3064136
  23.9562285  31.0487428  42.7717404  16.7173111  33.9773172  35.0478539
  17.5094402  33.6363997  34.6324838  16.9569761  34.0868147  35.9680692
  24.7508237  36.1492948  27.5208783  24.0996217  36.7347029  27.1342797
  25.5452600  36.6799143  27.5803820  18.6763864  33.2382085  27.9195917
  19.4494740  32.6911072  27.7808793  19.0289263  34.1026335  28.1310379
  20.5148907  34.5658468  41.1262817  20.2238773  35.4704098  41.0109483
  21.1505891  34.6074995  41.8406886  21.4405114  31.9435316  37.7164176
  22.0368686  31.7191339  37.0021139  21.4980085  31.2020062  38.3189624
  21.0130142  29.3974751  25.5514367  21.2655663  28.8756273  24.7897830
  20.0754701  29.2340897  25.6541051  26.0573425  28.4010530  33.3589110
  26.8436514  27.9829953  33.0079527  26.3212129  29.3056622  33.5270759
  26.2283502  33.8383380  28.0577767  25.5929335  33.9118007  28.7698672
  25.8980909  34.4276979  27.3796847  31.4581852  28.3385763  34.2622089
  32.1907024  27.7684980  34.4959918  30.7021208  27.9507363  34.7028595
  20.7326431  31.3002857  27.7538742  20.6162689  30.6247761  28.4219826
  20.8428691  30.8135231  26.9370895  23.0757972  30.7613005  31.4585431
  22.7116179  30.2343625  32.1698353  23.9325088  30.3711474  31.2851917
  28.9807273  22.0507337  38.7216698  28.6490597  22.9202748  38.4977913
  28.3852886  21.7343621  39.4010728  22.7163459  25.7902904  26.4546780
  22.8837861  26.6583141  26.8217251  22.5260628  25.9530186  25.5308069
  25.4738792  34.2519883  38.1212610  25.1739515  35.1544922  38.0128418
  25.1289852  33.9852066  38.9733763  18.9251274  30.7033680  34.1549315
  18.0001770  30.5709894  34.3627006  19.1735687  31.4827899  34.6519257
  28.8735936  26.7702423  35.8010048  27.9652813  26.7017832  35.5068809
  28.8223532  27.2474368  36.6291873  22.6952680  28.2460562  27.4393447
  22.5752305  28.6917612  28.2778927  22.0005268  28.5945879  26.8806985
  16.2860085  30.3466954  34.9893104  16.4152466  30.6001432  35.9032516
  15.6057536  30.9394662  34.6697759  20.4559572  41.0164203  31.0883578
  20.3783602  41.9672029  31.1672059  19.8521215  40.6710076  31.7458504
  22.9476802  28.1892069  43.7444945  22.1710136  28.7485989  43.7347810
  23.5867365  28.6748852  44.2659815  30.7397582  24.9718862  37.5787922
  30.0971963  25.2651395  36.9327716  30.2352511  24.8571782  38.3841118
  28.3937746  28.7182035  28.2673781  29.3055602  28.9509422  28.0921478
  27.8847393  29.3019079  27.7048859  21.2023174  30.9977522  43.3062912
  21.9437858  31.5362566  43.0297736  20.4960159  31.6243811  43.4634464
  26.6778514  33.1406663  41.9035073  27.0861870  32.6989073  41.1589706
  25.9555775  32.5659290  42.1569266  23.0309584  28.0779269  39.2768630
  23.8770779  28.5018683  39.4203279  22.9708221  27.4212894  39.9707193
  27.0007328  33.7007853  35.6587362  26.3716191  33.8653567  34.9563430
  26.6132990  34.1149463  36.4298326  30.8796560  34.6362291  33.0131726
  30.1947598  35.0161193  32.4628759  30.9640409  35.2457618  33.7463674
  26.1809029  25.7383638  40.9349804  25.9369961  26.4925698  40.3984080
  26.4568960  26.1168985  41.7697051  28.1347492  32.2822250  39.6127070
  28.3464387  32.9254010  38.9361451  28.0877240  31.4484567  39.1449000
  25.7373721  24.8940071  36.5163642  24.8758200  25.1921324  36.8080379
  25.7636155  25.1110470  35.5844674  22.5535290  33.4382261  32.9237447
  23.0173636  33.7169964  32.1342070  22.2892088  32.5365706  32.7410538
  19.4459371  32.9853743  35.8617211  20.0160728  33.4141011  35.2234695
  20.0367483  32.7036328  36.5601396  21.4904176  29.5605414  29.7327013
  22.1928220  30.0126457  30.2000939  21.1584805  28.9189233  30.3606906
  19.9384538  28.1517170  44.1078222  19.3083198  28.8333451  44.3413619
  19.8320626  28.0400252  43.1631360  15.2329510  27.8188966  35.0344146
  14.4428564  28.0746495  34.5584257  15.7240758  28.6337304  35.1396187
  29.2493320  35.1594206  37.7849427  30.0710763  34.7574393  37.5032109
  29.2455723  35.0562440  38.7365543  17.1844256  28.1833546  31.9927623
  16.3875419  28.2952240  32.5111118  16.9569848  28.5220198  31.1268513
  23.0149923  34.7078249  39.9410137  23.0794356  35.1698656  40.7768309
  22.3060847  34.0775614  40.0692447  13.5167213  28.0719457  37.4659137
  13.7675252  28.9566467  37.7316713  14.0526762  27.8924058  36.6934229
  37.3399313  31.5032954  34.1334398  36.5863021  30.9340352  33.9778403
  37.4746854  31.4695619  35.0805033  22.7297941  36.3746356  29.8089118
  22.5943616  37.2197892  30.2373966  23.2707753  36.5765634  29.0455052
  19.2165280  22.4537936  46.4703473  18.8232226  21.9004135  47.1451117
  20.0331421  22.7648515  46.8609990  16.1827338  33.8921794  30.3817043
  16.6951859  34.6865045  30.5322607  16.8350051  33.1948085  30.3150644
  17.9922223  37.0087551  32.4639796  18.1688851  37.9305515  32.2760780
  18.7879056  36.6945970  32.8934176  22.1333241  23.8695815  44.0623730
  22.8742955  24.4702969  43.9828192  22.3651164  23.1273453  43.5041772
  17.2774579  29.0552183  42.3401959  17.1628095  28.1537440  42.6409058
  16.4219097  29.3015879  41.9886776  24.3566417  36.9969923  43.9389460
  23.9130271  36.2106301  43.6210364  25.0183631  37.1849073  43.2733351
  19.1153538  38.5265725  38.4650138  19.6660963  38.3982788  37.6927132
  18.2765014  38.8260614  38.1145031  26.4547655  37.2772723  41.9670861
  26.4366131  38.0981604  41.4751130  27.3767575  37.1526798  42.1921002
  22.9120709  34.7916852  42.8094369  23.4449046  34.0305141  42.5793677
  22.3834791  34.4990504  43.5518524  26.0790404  19.8976918  38.3388011
  25.7354674  20.7878560  38.2627122  26.4469367  19.7078576  37.4757596
  14.1476255  32.2210449  31.1576613  14.9851477  32.6307457  30.9410321
  14.3254523  31.2809891  31.1276807  26.0440687  29.8885529  26.8460446
  25.5287311  30.6590134  27.0848834  25.7717996  29.2150666  27.4693508
  23.6287798  24.7335230  31.9045685  22.7729394  24.3442081  31.7251323
  24.0414750  24.8127191  31.0445470  25.1586945  22.2681573  36.3037244
  24.6551740  22.2311709  35.4905050  25.4517552  23.1774316  36.3633901
  21.4029831  22.3520303  35.3103426  22.2682827  22.1563112  34.9509316
  21.4707340  22.1230655  36.2372783  31.0174961  32.6417884  28.7813620
  30.2404404  32.3029044  28.3368782  31.6966442  32.6470507  28.1068585
  25.8326990  27.7612622  28.6720227  25.5277126  28.0758771  29.5230371
  26.7857432  27.8394041  28.7147560  24.2773422  33.9202845  30.3213181
  23.7494784  33.1855604  30.0086419  23.7760925  34.6977521  30.0753150
  29.2566268  32.1151865  35.4380228  28.5989943  32.8051127  35.5260356
  30.0606667  32.5048297  35.7814214  19.0092150  24.5822511  32.6819793
  19.5835902  24.3597693  31.9492986  19.5963132  24.6511206  33.4348394
  28.0671727  30.4696238  33.4884170  28.5803609  31.1026230  33.9905879
  28.7172951  29.8697434  33.1227530  19.3361737  26.6126972  26.7015678
  18.4999049  26.9501659  27.0224953  19.1966506  26.4775952  25.7642815
  21.3114817  21.4563760  31.4094862  20.6579230  21.1412777  30.7851477
  21.2695292  20.8339500  32.1354685  22.4226022  31.7383055  23.3248154
  21.5153084  31.5072309  23.5239303  22.9197054  30.9420674  23.5122136
  25.3294101  40.4480562  26.2444841  24.6555800  40.7512259  26.8529798
  25.7159923  41.2509643  25.8950298  24.5452558  27.9445694  35.7342510
  23.6275119  28.1660641  35.5764198  24.9612701  28.0192004  34.8754217
  25.3287606  29.3437109  30.8645190  26.0759425  29.8558506  30.5552312
  25.5979195  29.0221162  31.7249584  23.6014256  31.8395650  27.8472145
  22.6925475  31.5554683  27.9444614  23.6309340  32.2594729  26.9875451
  28.8333523  35.4502239  31.6163312  28.3795850  34.6093149  31.6728503
  28.2027490  36.0863638  31.9538092  27.7766443  26.3794225  32.8463980
  27.0389200  25.8671612  33.1774222  28.0293216  25.9394607  32.0347256
  27.2766462  37.2878736  32.5513130  27.5689437  37.8483793  31.8325496
  27.7865083  37.5807297  33.3066289  27.8778070  19.1570477  33.4405749
  28.1836947  18.2967841  33.1531664  28.6030675  19.7488098  33.2404743
  14.1702426  29.5601164  31.8287347  13.9726826  28.9670525  31.1038413
  13.6149090  29.2553374  32.5463286  22.1499150  29.4524271  33.9481940
  22.2047760  28.4998107  33.8724417  21.3390352  29.6083710  34.4323238
  23.2990344  33.3804394  25.1860223  22.8609773  32.6640253  24.7265861
  24.0400784  33.6080508  24.6245315  20.0891510  28.0701330  31.7072319
  19.2759375  28.3695501  32.1137511  20.5850504  27.6757019  32.4246801
  22.2400088  38.0659087  33.6406583  22.1976266  38.2919934  32.7115116
  23.1562786  37.8322462  33.7892385  25.6865721  28.5343155  40.5387213
  26.0415109  28.7614628  41.3981678  26.3337853  28.8661532  39.9164468
  31.4163458  31.6561591  31.2436542  31.2781357  31.8463187  30.3157731
  31.0599677  32.4180973  31.7004593  19.5805584  25.6419686  37.3233554
  20.2204964  25.5008445  36.6256517  18.7483115  25.3554199  36.9472156
  31.4432838  33.7238118  36.2547813  31.8769345  33.6313407  37.1030867
  32.1564419  33.6995618  35.6167829  20.3565888  34.9422116  33.4368546
  21.1506487  34.4472436  33.2351121  19.6457581  34.4139979  33.0736252
  25.1760733  37.3240212  37.7880914  25.2297755  37.8931148  38.5558630
  24.3075514  37.4942097  37.4234951  16.6648652  29.0865198  29.5128299
  15.7346240  29.0249653  29.7298261  16.7606124  28.5641151  28.7164940
  16.5834201  25.6120011  32.1006541  16.8441018  26.5265344  31.9915701
  17.4051373  25.1444453  32.2503153  18.0559126  27.0257768  39.2705365
  18.7282180  26.8175130  38.6218014  17.2288913  26.8279854  38.8310597
  32.3048388  33.7661818  38.7880699  32.4984278  34.6707629  39.0339974
  32.2049006  33.3069237  39.6219284  23.9584698  23.6519709  41.2871026
  23.3112613  24.3509659  41.1935502  24.7285714  24.0855853  41.6547274
  27.3663496  33.9168561  44.3621579  27.2149003  33.6879113  43.4451663
  27.3568176  34.8739162  44.3752924  24.1348833  31.4900474  39.3467846
  25.0640893  31.6411633  39.1736813  23.7139863  31.5784495  38.4916492
  22.9337164  35.5151138  37.1166383  22.7948250  35.1469923  37.9892321
  22.1451761  36.0298778  36.9450341  23.5285316  40.6160235  28.4591920
  23.7037072  40.1448278  29.2737543  22.8418104  41.2426001  28.6873181
  24.4842380  34.8932741  34.5055221  24.1492212  34.8533511  35.4012871
  23.9846325  34.2277457  34.0325631  18.4586623  30.3000371  40.0307802
  18.3206421  29.5680610  40.6319341  19.3691547  30.2109271  39.7491990
  27.4201571  32.2388775  24.7792281  26.8030742  31.5135603  24.6825333
  26.9518060  32.9998136  24.4359355  21.0868924  30.0120330  39.5191482
  21.7968543  29.3713522  39.4778100  21.0438232  30.2633225  40.4417663
  29.0755703  36.9487684  42.4398061  29.0168249  36.2646904  41.7728644
  29.4775221  37.6906674  41.9878687  19.7997858  26.9985548  41.3387121
  19.2635215  26.5476287  41.9908718  19.2114567  27.1331457  40.5957586
  18.0946402  43.7649597  35.2331780  18.3343000  44.3968122  35.9110799
  17.2515598  43.4137637  35.5197139  29.0773110  34.9127268  40.6712041
  28.1899889  34.5753189  40.7938440  29.6471661  34.1810299  40.9080806
  10.7302257  31.2451359  33.9955092  11.4173297  30.9313089  33.4076107
  10.5750386  32.1492724  33.7222344  15.5336979  26.1341556  38.4240116
  15.4495168  25.5267225  37.6890526  14.7119686  26.6250574  38.4249612
  22.6074263  39.5728720  37.6373284  22.5344435  40.3783691  38.1492589
  22.1651657  39.7720686  36.8121305  22.3964043  38.8100490  31.1476106
  21.6131565  39.3522170  31.2414330  23.0956788  39.3274470  31.5470347
  25.7060693  24.6195119  33.7910311  26.2029393  23.8665082  33.4711381
  24.9347675  24.6559436  33.2253520  33.5590451  30.3235485  35.4328602
  33.5480327  31.2060200  35.0622536  32.6907830  29.9707036  35.2383139
  25.0672947  39.4715554  39.7931443  25.7800919  40.1063019  39.7207344
  24.5762976  39.5679420  38.9771444  26.7890474  33.3766807  31.3648734
  25.8546753  33.4968269  31.1953439  26.9667142  32.4739273  31.1008744
  22.2895662  26.7612502  33.5181996  21.9193449  26.2083543  34.2062901
  22.7854754  26.1570636  32.9656996  30.1763025  29.2184126  31.8998768
  30.6423477  30.0512117  31.8259071  30.6270526  28.7529107  32.6044027
  20.1184861  37.2209997  40.6137013  20.8194320  37.8546480  40.7666408
  19.6479976  37.5624729  39.8532653  28.2439256  35.5627947  28.8984920
  28.5199100  35.4484542  29.8078795  27.3743755  35.1645432  28.8597094
  28.1479688  21.5864713  35.9389670  27.2342768  21.8168940  36.1071877
  28.5772789  21.6703157  36.7903702  27.9186147  29.7754605  38.4389564
  27.2657597  30.0230512  37.7842017  28.2966526  28.9618743  38.1052041
  24.8793320  39.8114298  32.5417734  25.0615715  38.9935954  33.0045486
  25.7026306  40.0281990  32.1042624  25.2135486  38.7382483  29.8032783
  25.7423252  38.2274938  29.1902945  25.4763705  38.4225013  30.6678316
  23.9673720  30.5174416  44.9255601  23.2914357  30.4168545  45.5957976
  24.7901353  30.3613630  45.3891598  15.7152579  36.7546352  37.5468116
  16.3006015  36.0090040  37.6796020  15.5177417  37.0650309  38.4304780
  18.5691234  39.7897600  32.5630559  17.9001609  40.2743727  32.0794599
  18.4304104  40.0366820  33.4773937  10.3070233  29.3251953  36.2672559
  10.3454333  28.7915543  37.0609677   9.8010526  28.7987158  35.6483536
  22.7096502  41.8241343  39.1613217  23.2614810  41.9872965  39.9262302
  23.0502696  42.4145781  38.4893242  17.6860996  24.1716493  39.7635102
  17.7502322  25.0331324  39.3512499  17.6228116  23.5590495  39.0307460
  17.1613268  26.2439626  43.4108136  17.7885307  25.8616703  44.0245660
  16.3041187  26.0253828  43.7763828  27.5607377  36.6502601  45.0161871
  28.1047281  37.2632559  44.5216826  26.9794222  37.2082179  45.5328884
  13.9378811  28.0516055  29.3426491  14.2332252  27.1426733  29.2893544
  13.0366847  28.0303794  29.0207493  25.8464890  39.7723319  36.1476899
  25.7216029  38.9713059  35.6387845  26.5043981  40.2669512  35.6590869
  17.4673058  26.1272051  35.3254039  16.7459644  26.7408019  35.1861513
  18.2566314  26.6629816  35.2470685  27.9099798  37.5732339  37.7756449
  26.9630134  37.4537690  37.7034776  28.2582571  36.6854837  37.8582711
  20.2699371  23.4626478  41.5994691  20.7933773  23.7088774  42.3621000
  20.0511705  24.2946513  41.1797828  15.6666653  25.7330152  29.4665816
  15.3379359  24.8527531  29.2840922  16.0206023  25.6777821  30.3542205
  24.9146231  37.3685055  33.9760801  24.7671194  36.4401763  34.1568371
  25.7399725  37.3905146  33.4917877  18.7808476  26.0203122  29.8341294
  19.1204548  26.5489044  29.1119902  19.2280596  26.3583528  30.6099860
  28.5180353  38.1913614  35.0625674  29.4426901  37.9856475  34.9250125
  28.3495657  37.9430015  35.9715016  21.4751916  24.4040173  39.2844362
  21.1348737  23.6047986  39.6865041  20.7690923  24.7041884  38.7121195
  22.1268388  21.4889485  37.7371685  22.9494458  21.0149964  37.6150575
  22.3706452  22.2679969  38.2370371  20.7676623  24.5177744  28.0334586
  21.4884985  24.8958997  27.5298303  20.1441927  25.2366621  28.1369564
  24.9107746  25.2222893  28.9692919  25.1271360  26.1047531  28.6681747
  24.4301813  24.8309106  28.2398561  19.6506967  28.1808606  35.5463663
  19.5051548  28.4948909  36.4387945  19.1732171  28.7993506  34.9934562
  21.5103350  25.1711154  35.5944553  21.4964919  24.2752247  35.2576851
  22.2275778  25.1781818  36.2282839  23.3629481  25.6048494  37.6397680
  23.1047258  26.5265565  37.6382011  22.8314521  25.2078929  38.3298144
  28.3075669  38.7099281  30.4187766  28.4812547  38.1445704  29.6661618
  28.8004561  39.5100176  30.2367256  14.1252629  30.7213950  38.4851324
  13.5806097  31.4973758  38.6171599  15.0031979  31.0684755  38.3270446
  20.9140246  24.0525534  30.8632123  21.0356157  23.1242181  31.0623010
  20.6242288  24.0664220  29.9510438  23.7831436  21.7380445  33.9998843
  23.8053133  21.8019778  33.0450822  24.1999495  20.8984953  34.1939349
  34.1615061  31.4735704  32.0378065  34.6046207  30.7243030  31.6397189
  33.2841571  31.4645841  31.6551797  29.2950842  38.0266046  27.5184664
  29.9901747  38.6472738  27.7371979  29.6373992  37.1761397  27.7937042
  14.9118651  29.8483847  41.3781481  14.1700387  29.9966482  41.9646112
  14.5911395  30.1092112  40.5148231  31.1942265  35.4765751  29.0471995
  31.7193589  35.8153024  28.3221315  31.1064618  34.5412767  28.8635129
  22.8562314  39.3899825  41.1761871  23.1649440  39.1448972  42.0484571
  23.6537796  39.5946463  40.6880741  22.8782926  41.5437735  33.4067248
  22.4387916  41.0514113  34.1000105  23.6291043  41.0010702  33.1659323
  15.3575265  37.7349275  33.4091876  16.1833285  37.4353047  33.0290519
  15.0069317  36.9656898  33.8581665  20.3256798  37.0875744  35.4789549
  19.7036807  36.4246449  35.1791777  20.9961665  37.1136876  34.7963197
  13.5583870  35.6535602  34.3680809  12.7215778  35.2257776  34.1864811
  13.5307515  35.8468045  35.3051601  20.3981325  25.5657532  45.0722056
  20.4469481  26.4419655  44.6899825  20.9403840  25.0234925  44.4993699
  30.8836171  36.1098655  44.3523193  30.0931715  36.0922794  43.8127692
  30.6469526  36.6486949  45.1072229  31.0034046  32.9591121  41.6655921
  31.0532051  32.7941129  42.6071444  30.8947969  32.0918380  41.2753802
  19.8870305  35.6379667  28.9548010  20.0358425  36.3215131  28.3014683
  20.6936748  35.6184757  29.4697466  28.2937809  28.9422049  42.9815228
  29.1947671  28.8028514  42.6899226  28.3685783  29.1076504  43.9213405
  22.6280614  26.3188904  41.8268414  21.7583923  26.6122470  41.5551003
  22.8640094  26.9029349  42.5475678  32.5052243  35.3788063  41.9097943
  32.2137051  35.7418043  42.7461404  31.8924374  34.6655071  41.7311275
  33.7047925  32.9440943  34.4300513  34.5394817  33.3830747  34.5938073
  33.8407054  32.4679596  33.6108759  30.7539431  30.5020677  40.3778001
  31.2293553  30.6948324  39.5696852  29.8304997  30.5579863  40.1321384
  17.6422938  31.6644845  29.9609079  17.3968980  30.7607175  30.1589289
  17.8118852  31.6661995  29.0188557  25.3319648  22.5368521  39.3433835
  25.8501592  23.2729548  39.0180323  24.9774780  22.8432514  40.1780594
  16.9118585  27.3973202  27.4595240  16.2187830  27.4717557  26.8035276
  16.6670337  26.6333546  27.9816757  25.5832242  18.9568804  34.8634731
  25.8633996  18.2891993  35.4895158  26.3682849  19.1497899  34.3509395
  23.3865710  38.1327797  26.4259757  22.8139677  38.7517985  25.9730229
  23.9598504  38.6827159  26.9599679  29.4541100  27.3786438  38.6106306
  30.4058523  27.4784535  38.6318530  29.2844551  26.5864706  39.1204391
  27.4755480  24.4642021  38.7965707  26.8805412  24.7447033  38.1012196
  27.1905176  24.9535922  39.5682448  26.6062970  38.4164948  27.5568340
  27.5393643  38.3510509  27.7601215  26.5186183  39.2521214  27.0982872
  29.2350987  37.7330818  24.5172287  29.1564618  37.3990682  25.4108045
  30.0560654  38.2252586  24.5163760  31.9329178  30.5992557  37.7248606
  31.9005498  29.6608558  37.9108290  32.5429802  30.6776594  36.9914431
  23.7712509  29.4688610  23.7675810  24.7171614  29.3394818  23.8364228
  23.3926754  28.7303272  24.2445238  32.0823666  27.3903601  37.7706889
  31.5662715  26.6062057  37.5836818  32.9663615  27.0622317  37.9353409
  29.7434393  21.1344616  33.7302702  29.5459215  20.8259704  34.6146034
  30.3534099  21.8606255  33.8600632  37.7505728  31.6608564  36.8654643
  38.4809116  31.3993852  37.4262346  37.1412673  30.9237286  36.9056711
  35.8321025  29.8016427  37.4629094  35.1054189  29.6672392  36.8545585
  35.4168312  30.1093255  38.2685812  23.6551201  33.5206356  45.2276467
  24.5754211  33.6984955  45.4216513  23.6200784  32.5762402  45.0756166
  21.9555426  27.3938587  23.7030695  21.0486881  27.0971699  23.7793409
  22.2331407  27.0968405  22.8364981  12.8733366  28.7144950  34.1529742
  12.5536151  27.8610258  33.8604116  12.3266795  28.9293528  34.9087709
  16.6513274  31.4307391  37.8699248  16.8699284  32.3624499  37.8887282
  17.0639048  31.0715365  38.6554052  23.5717492  21.9375476  29.8574936
  22.7618220  21.5922561  30.2330183  24.2601909  21.6283020  30.4462548
  25.5008040  21.0153523  31.4799233  26.0539079  21.4348977  32.1389256
  25.7378126  20.0889271  31.5222189  21.5241139  27.0040597  47.2601997
  21.4237866  27.9534954  47.1914088  21.3062681  26.6758836  46.3878067
  12.7421626  32.3347861  36.1222863  12.0485098  31.9201814  35.6092818
  13.4894617  32.3768398  35.5256282  28.8786847  23.1254048  30.9877897
  28.2985516  23.7838852  30.6055950  28.6122780  22.3031393  30.5765315
  27.3290413  22.5259106  33.1899218  27.8290192  22.6375641  32.3813537
  27.9726021  22.2220159  33.8300026  21.3872409  30.4337736  46.0767059
  20.9039491  31.2338096  46.2830948  21.4733348  30.4445680  45.1234503
  14.6558369  32.2666115  33.9988878  14.6329057  32.3653803  33.0470761
  14.9659005  33.1131266  34.3206044  17.3145747  34.3242270  38.1135492
  18.2689000  34.2926213  38.0465424  17.1158270  33.8632894  38.9285718
  17.9045129  32.8943386  40.6806290  18.7238018  33.3887465  40.7041127
  18.1781937  31.9775354  40.6523858  27.6611725  25.2854139  30.0434246
  26.7737580  25.5703789  29.8254440  28.0765714  25.1247902  29.1961523
  31.0126261  25.3100660  33.7588585  31.7886651  25.7997112  34.0313202
  30.2874395  25.7358714  34.2160454  33.4498820  26.0228279  34.8162526
  34.0443311  25.7824015  34.1055834  33.5225404  25.3035409  35.4436062
  15.6695976  39.8661890  35.1305690  15.5350444  39.1062291  34.5643688
  15.2528038  40.5902790  34.6634479  26.8054939  35.0498813  24.1382266
  27.5090789  35.2548816  24.7539921  26.0817587  35.6175575  24.4031349
  27.6352749  30.8008675  30.2584536  27.5787950  31.2577226  29.4192168
  28.1881091  30.0399359  30.0807379  31.4457555  26.5898406  31.0834655
  31.1894489  26.1895042  31.9142863  30.8210423  27.3042200  30.9584794
  35.7569893  29.3294480  33.5905947  35.1969451  29.3987669  34.3637509
  35.1513396  29.1535464  32.8705443  18.8265101  40.7631207  35.3424133
  18.7097486  41.7076639  35.2402823  18.0057548  40.4604768  35.7309932
  28.7141636  35.4881343  26.1880726  29.5487240  35.0562541  26.0058200
  28.5525979  35.3163356  27.1157620  28.3687528  31.9913456  27.5537065
  28.3136332  31.8257727  26.6125509  27.7433583  32.6989489  27.7099255
  13.1580043  27.2281520  41.3798487  13.8038907  26.7180474  41.8685712
  12.9497194  27.9650202  41.9541912  25.6833435  34.2962368  46.8790628
  26.5524595  34.4703020  46.5177263  25.2040187  35.1156785  46.7566357
  21.6783654  21.4921565  27.1322383  21.6662323  22.4363405  27.2890654
  22.5707076  21.3091710  26.8381845  19.8519616  41.4159469  38.5580061
  20.7546862  41.4483079  38.8746556  19.6256986  40.4859920  38.5726397
  21.6073218  40.1690455  35.2190140  20.6568849  40.1692317  35.1054512
  21.9105704  39.4223190  34.7026175  25.4935773  18.0864341  31.3868320
  24.7268169  17.5322828  31.5325003  25.9046478  18.1586210  32.2482472
  17.4977534  24.3749137  45.4773501  18.3608996  24.0185942  45.6876826
  16.9242945  24.0363032  46.1648906  37.3425911  46.0050994  36.2835902
  37.9804321  45.8857741  35.5799242  37.2246754  46.9531838  36.3423855
  34.1515617  45.9578422  36.2197427  33.8134129  45.8419486  35.3317962
  35.0205386  45.5569587  36.1998433  30.0102433  47.8113898  32.2094318
  29.4467298  47.7203835  31.4410606  29.8954828  46.9913803  32.6896811
  34.6335400  47.1113273  42.1783633  34.6224041  46.7166072  41.3064136
  34.7956040  46.3779346  42.7717404  27.5566865  49.3065090  35.0478539
  28.3488157  48.9655914  34.6324838  27.7963515  49.4160065  35.9680692
  35.5901992  51.4784866  27.5208783  34.9389972  52.0638946  27.1342797
  36.3846355  52.0091061  27.5803820  29.5157619  48.5674003  27.9195917
  30.2888495  48.0202990  27.7808793  29.8683018  49.4318252  28.1310379
  31.3542662  49.8950385  41.1262817  31.0632527  50.7996016  41.0109483
  31.9899646  49.9366913  41.8406886  32.2798868  47.2727234  37.7164176
  32.8762441  47.0483256  37.0021139  32.3373840  46.5311979  38.3189624
  31.8523897  44.7266669  25.5514367  32.1049417  44.2048190  24.7897830
  30.9148456  44.5632815  25.6541051  36.8967180  43.7302447  33.3589110
  37.6830269  43.3121871  33.0079527  37.1605884  44.6348540  33.5270759
  37.0677257  49.1675298  28.0577767  36.4323090  49.2409924  28.7698672
  36.7374663  49.7568897  27.3796847  42.2975607  43.6677681  34.2622089
  43.0300779  43.0976898  34.4959918  41.5414962  43.2799281  34.7028595
  31.5720186  46.6294775  27.7538742  31.4556444  45.9539678  28.4219826
  31.6822445  46.1427149  26.9370895  33.9151726  46.0904922  31.4585431
  33.5509934  45.5635543  32.1698353  34.7718842  45.7003391  31.2851917
  39.8201027  37.3799255  38.7216698  39.4884352  38.2494666  38.4977913
  39.2246640  37.0635539  39.4010728  33.5557213  41.1194822  26.4546780
  33.7231616  41.9875058  26.8217251  33.3654382  41.2822104  25.5308069
  36.3132547  49.5811801  38.1212610  36.0133270  50.4836840  38.0128418
  35.9683606  49.3143984  38.9733763  29.7645028  46.0325598  34.1549315
  28.8395525  45.9001812  34.3627006  30.0129441  46.8119817  34.6519257
  39.7129690  42.0994341  35.8010048  38.8046568  42.0309749  35.5068809
  39.6617286  42.5766286  36.6291873  33.5346434  43.5752479  27.4393447
  33.4146059  44.0209530  28.2778927  32.8399023  43.9237797  26.8806985
  27.1253839  45.6758871  34.9893104  27.2546220  45.9293350  35.9032516
  26.4451290  46.2686579  34.6697759  31.2953326  56.3456121  31.0883578
  31.2177356  57.2963946  31.1672059  30.6914970  56.0001994  31.7458504
  33.7870556  43.5183987  43.7444945  33.0103890  44.0777907  43.7347810
  34.4261119  44.0040770  44.2659815  41.5791337  40.3010779  37.5787922
  40.9365717  40.5943313  36.9327716  41.0746265  40.1863700  38.3841118
  39.2331500  44.0473953  28.2673781  40.1449357  44.2801339  28.0921478
  38.7241148  44.6310997  27.7048859  32.0416928  46.3269440  43.3062912
  32.7831613  46.8654484  43.0297736  31.3353914  46.9535729  43.4634464
  37.5172268  48.4698580  41.9035073  37.9255624  48.0280991  41.1589706
  36.7949530  47.8951208  42.1569266  33.8703338  43.4071187  39.2768630
  34.7164533  43.8310601  39.4203279  33.8101976  42.7504811  39.9707193
  37.8401083  49.0299771  35.6587362  37.2109945  49.1945485  34.9563430
  37.4526745  49.4441381  36.4298326  41.7190315  49.9654209  33.0131726
  41.0341353  50.3453110  32.4628759  41.8034164  50.5749536  33.7463674
  37.0202783  41.0675556  40.9349804  36.7763715  41.8217616  40.3984080
  37.2962714  41.4460903  41.7697051  38.9741246  47.6114168  39.6127070
  39.1858141  48.2545928  38.9361451  38.9270995  46.7776484  39.1449000
  36.5767475  40.2231989  36.5163642  35.7151954  40.5213242  36.8080379
  36.6029910  40.4402387  35.5844674  33.3929045  48.7674179  32.9237447
  33.8567390  49.0461882  32.1342070  33.1285843  47.8657624  32.7410538
  30.2853126  48.3145661  35.8617211  30.8554483  48.7432929  35.2234695
  30.8761238  48.0328245  36.5601396  32.3297931  44.8897331  29.7327013
  33.0321974  45.3418375  30.2000939  31.9978559  44.2481150  30.3606906
  30.7778292  43.4809088  44.1078222  30.1476953  44.1625369  44.3413619
  30.6714380  43.3692170  43.1631360  26.0723265  43.1480884  35.0344146
  25.2822319  43.4038413  34.5584257  26.5634512  43.9629222  35.1396187
  40.0887074  50.4886123  37.7849427  40.9104518  50.0866311  37.5032109
  40.0849477  50.3854357  38.7365543  28.0238010  43.5125463  31.9927623
  27.2269173  43.6244158  32.5111118  27.7963602  43.8512116  31.1268513
  33.8543678  50.0370167  39.9410137  33.9188110  50.4990574  40.7768309
  33.1454602  49.4067532  40.0692447  24.3560968  43.4011375  37.4659137
  24.6069006  44.2858385  37.7316713  24.8920516  43.2215976  36.6934229
  48.1793067  46.8324872  34.1334398  47.4256776  46.2632270  33.9778403
  48.3140608  46.7987536  35.0805033  33.5691695  51.7038274  29.8089118
  33.4337370  52.5489810  30.2373966  34.1101508  51.9057552  29.0455052
  30.0559035  37.7829854  46.4703473  29.6625981  37.2296053  47.1451117
  30.8725175  38.0940432  46.8609990  27.0221093  49.2213712  30.3817043
  27.5345613  50.0156962  30.5322607  27.6743806  48.5240003  30.3150644
  28.8315977  52.3379468  32.4639796  29.0082606  53.2597433  32.2760780
  29.6272811  52.0237888  32.8934176  32.9726996  39.1987733  44.0623730
  33.7136709  39.7994886  43.9828192  33.2044919  38.4565371  43.5041772
  28.1168334  44.3844100  42.3401959  28.0021849  43.4829358  42.6409058
  27.2612852  44.6307797  41.9886776  35.1960172  52.3261841  43.9389460
  34.7524026  51.5398219  43.6210364  35.8577385  52.5140991  43.2733351
  29.9547293  53.8557642  38.4650138  30.5054718  53.7274706  37.6927132
  29.1158769  54.1552531  38.1145031  37.2941410  52.6064641  41.9670861
  37.2759885  53.4273522  41.4751130  38.2161330  52.4818716  42.1921002
  33.7514464  50.1208770  42.8094369  34.2842801  49.3597058  42.5793677
  33.2228545  49.8282422  43.5518524  36.9184159  35.2268836  38.3388011
  36.5748428  36.1170478  38.2627122  37.2863121  35.0370494  37.4757596
  24.9870009  47.5502366  31.1576613  25.8245231  47.9599375  30.9410321
  25.1648277  46.6101809  31.1276807  36.8834442  45.2177447  26.8460446
  36.3681065  45.9882052  27.0848834  36.6111750  44.5442583  27.4693508
  34.4681553  40.0627148  31.9045685  33.6123149  39.6733998  31.7251323
  34.8808504  40.1419109  31.0445470  35.9980699  37.5973491  36.3037244
  35.4945495  37.5603626  35.4905050  36.2911306  38.5066234  36.3633901
  32.2423585  37.6812221  35.3103426  33.1076582  37.4855030  34.9509316
  32.3101094  37.4522573  36.2372783  41.8568716  47.9709802  28.7813620
  41.0798158  47.6320961  28.3368782  42.5360197  47.9762425  28.1068585
  36.6720745  43.0904539  28.6720227  36.3670880  43.4050688  29.5230371
  37.6251187  43.1685959  28.7147560  35.1167177  49.2494763  30.3213181
  34.5888538  48.5147522  30.0086419  34.6154679  50.0269439  30.0753150
  40.0960023  47.4443783  35.4380228  39.4383697  48.1343044  35.5260356
  40.9000422  47.8340215  35.7814214  29.8485904  39.9114429  32.6819793
  30.4229656  39.6889610  31.9492986  30.4356887  39.9803123  33.4348394
  38.9065481  45.7988156  33.4884170  39.4197363  46.4318148  33.9905879
  39.5566705  45.1989351  33.1227530  30.1755491  41.9418890  26.7015678
  29.3392804  42.2793576  27.0224953  30.0360261  41.8067870  25.7642815
  32.1508572  36.7855678  31.4094862  31.4972984  36.4704695  30.7851477
  32.1089046  36.1631418  32.1354685  33.2619777  47.0674973  23.3248154
  32.3546839  46.8364226  23.5239303  33.7590809  46.2712592  23.5122136
  36.1687856  55.7772480  26.2444841  35.4949554  56.0804177  26.8529798
  36.5553678  56.5801560  25.8950298  35.3846312  43.2737611  35.7342510
  34.4668874  43.4952558  35.5764198  35.8006456  43.3483922  34.8754217
  36.1681360  44.6729027  30.8645190  36.9153179  45.1850424  30.5552312
  36.4372950  44.3513080  31.7249584  34.4408010  47.1687568  27.8472145
  33.5319229  46.8846600  27.9444614  34.4703094  47.5886646  26.9875451
  39.6727278  50.7794157  31.6163312  39.2189605  49.9385067  31.6728503
  39.0421244  51.4155556  31.9538092  38.6160197  41.7086143  32.8463980
  37.8782954  41.1963529  33.1774222  38.8686971  41.2686525  32.0347256
  38.1160217  52.6170654  32.5513130  38.4083191  53.1775711  31.8325496
  38.6258837  52.9099215  33.3066289  38.7171825  34.4862395  33.4405749
  39.0230701  33.6259759  33.1531664  39.4424429  35.0780015  33.2404743
  25.0096181  44.8893082  31.8287347  24.8120580  44.2962442  31.1038413
  24.4542845  44.5845292  32.5463286  32.9892904  44.7816188  33.9481940
  33.0441514  43.8290025  33.8724417  32.1784106  44.9375627  34.4323238
  34.1384098  48.7096311  25.1860223  33.7003528  47.9932170  24.7265861
  34.8794539  48.9372426  24.6245315  30.9285264  43.3993248  31.7072319
  30.1153130  43.6987419  32.1137511  31.4244258  43.0048937  32.4246801
  33.0793842  53.3951005  33.6406583  33.0370021  53.6211851  32.7115116
  33.9956541  53.1614380  33.7892385  36.5259476  43.8635072  40.5387213
  36.8808864  44.0906546  41.3981678  37.1731607  44.1953449  39.9164468
  42.2557213  46.9853508  31.2436542  42.1175111  47.1755104  30.3157731
  41.8993432  47.7472891  31.7004593  30.4199339  40.9711604  37.3233554
  31.0598718  40.8300363  36.6256517  29.5876870  40.6846117  36.9472156
  42.2826592  49.0530035  36.2547813  42.7163099  48.9605324  37.1030867
  42.9958173  49.0287536  35.6167829  31.1959643  50.2714034  33.4368546
  31.9900241  49.7764354  33.2351121  30.4851335  49.7431897  33.0736252
  36.0154487  52.6532129  37.7880914  36.0691510  53.2223066  38.5558630
  35.1469269  52.8234014  37.4234951  27.5042406  44.4157116  29.5128299
  26.5739994  44.3541571  29.7298261  27.5999878  43.8933068  28.7164940
  27.4227955  40.9411928  32.1006541  27.6834773  41.8557262  31.9915701
  28.2445128  40.4736371  32.2503153  28.8952881  42.3549686  39.2705365
  29.5675934  42.1467048  38.6218014  28.0682667  42.1571772  38.8310597
  43.1442142  49.0953736  38.7880699  43.3378032  49.9999547  39.0339974
  43.0442760  48.6361155  39.6219284  34.7978453  38.9811627  41.2871026
  34.1506368  39.6801576  41.1935502  35.5679468  39.4147771  41.6547274
  38.2057251  49.2460479  44.3621579  38.0542757  49.0171030  43.4451663
  38.1961930  50.2031080  44.3752924  34.9742587  46.8192391  39.3467846
  35.9034647  46.9703551  39.1736813  34.5533617  46.9076412  38.4916492
  33.7730919  50.8443056  37.1166383  33.6342005  50.4761840  37.9892321
  32.9845515  51.3590695  36.9450341  34.3679071  55.9452152  28.4591920
  34.5430827  55.4740196  29.2737543  33.6811859  56.5717919  28.6873181
  35.3236134  50.2224659  34.5055221  34.9885967  50.1825429  35.4012871
  34.8240080  49.5569375  34.0325631  29.2980378  45.6292289  40.0307802
  29.1600176  44.8972527  40.6319341  30.2085301  45.5401189  39.7491990
  38.2595326  47.5680693  24.7792281  37.6424496  46.8427521  24.6825333
  37.7911814  48.3290053  24.4359355  31.9262679  45.3412248  39.5191482
  32.6362297  44.7005440  39.4778100  31.8831987  45.5925143  40.4417663
  39.9149457  52.2779601  42.4398061  39.8562003  51.5938821  41.7728644
  40.3168976  53.0198591  41.9878687  30.6391613  42.3277466  41.3387121
  30.1028970  41.8768204  41.9908718  30.0508321  42.4623375  40.5957586
  28.9340156  59.0941515  35.2331780  29.1736754  59.7260039  35.9110799
  28.0909353  58.7429555  35.5197139  30.0493872  41.7866117  23.9013585
  29.1723338  41.6654918  23.5375832  30.5251625  40.9952196  23.6492474
  39.9166865  50.2419185  40.6712041  39.0293643  49.9045107  40.7938440
  40.4865416  49.5102216  40.9080806  21.5696012  46.5743277  33.9955092
  22.2567052  46.2605007  33.4076107  21.4144140  47.4784642  33.7222344
  26.3730734  41.4633474  38.4240116  26.2888923  40.8559143  37.6890526
  25.5513440  41.9542492  38.4249612  33.4468018  54.9020638  37.6373284
  33.3738189  55.7075609  38.1492589  33.0045411  55.1012603  36.8121305
  33.2357798  54.1392408  31.1476106  32.4525319  54.6814088  31.2414330
  33.9350543  54.6566387  31.5470347  36.5454448  39.9487037  33.7910311
  37.0423147  39.1956999  33.4711381  35.7741429  39.9851354  33.2253520
  44.3984205  45.6527403  35.4328602  44.3874081  46.5352118  35.0622536
  43.5301585  45.2998953  35.2383139  35.9066701  54.8007472  39.7931443
  36.6194674  55.4354936  39.7207344  35.4156730  54.8971338  38.9771444
  37.6284228  48.7058724  31.3648734  36.6940507  48.8260187  31.1953439
  37.8060897  47.8031191  31.1008744  33.1289416  42.0904420  33.5181996
  32.7587204  41.5375460  34.2062901  33.6248509  41.4862554  32.9656996
  41.0156780  44.5476044  31.8998768  41.4817232  45.3804035  31.8259071
  41.4664280  44.0821025  32.6044027  30.9578615  52.5501915  40.6137013
  31.6588075  53.1838398  40.7666408  30.4873730  52.8916647  39.8532653
  39.0833011  50.8919865  28.8984920  39.3592855  50.7776459  29.8078795
  38.2137510  50.4937350  28.8597094  38.9873442  36.9156631  35.9389670
  38.0736522  37.1460857  36.1071877  39.4166544  36.9995075  36.7903702
  38.7579901  45.1046523  38.4389564  38.1051351  45.3522430  37.7842017
  39.1360281  44.2910661  38.1052041  35.7187075  55.1406216  32.5417734
  35.9009469  54.3227872  33.0045486  36.5420061  55.3573908  32.1042624
  36.0529240  54.0674401  29.8032783  36.5817007  53.5566855  29.1902945
  36.3157460  53.7516931  30.6678316  34.8067474  45.8466334  44.9255601
  34.1308111  45.7460463  45.5957976  35.6295108  45.6905547  45.3891598
  26.5546333  52.0838270  37.5468116  27.1399770  51.3381958  37.6796020
  26.3571172  52.3942227  38.4304780  29.4084988  55.1189518  32.5630559
  28.7395364  55.6035645  32.0794599  29.2697858  55.3658738  33.4773937
  21.1463988  44.6543870  36.2672559  21.1848087  44.1207461  37.0609677
  20.6404281  44.1279076  35.6483536  33.5490257  57.1533261  39.1613217
  34.1008565  57.3164883  39.9262302  33.8896450  57.7437699  38.4893242
  28.5254750  39.5008411  39.7635102  28.5896077  40.3623242  39.3512499
  28.4621870  38.8882412  39.0307460  28.0007023  41.5731543  43.4108136
  28.6279061  41.1908621  44.0245660  27.1434942  41.3545745  43.7763828
  38.4001131  51.9794519  45.0161871  38.9441035  52.5924477  44.5216826
  37.8187976  52.5374097  45.5328884  24.7772565  43.3807973  29.3426491
  25.0726006  42.4718651  29.2893544  23.8760601  43.3595712  29.0207493
  36.6858644  55.1015237  36.1476899  36.5609784  54.3004976  35.6387845
  37.3437735  55.5961430  35.6590869  28.3066812  41.4563969  35.3254039
  27.5853398  42.0699937  35.1861513  29.0960068  41.9921734  35.2470685
  38.7493553  52.9024257  37.7756449  37.8023888  52.7829608  37.7034776
  39.0976326  52.0146755  37.8582711  31.1093126  38.7918396  41.5994691
  31.6327528  39.0380692  42.3621000  30.8905459  39.6238430  41.1797828
  26.5060407  41.0622070  29.4665816  26.1773113  40.1819449  29.2840922
  26.8599778  41.0069739  30.3542205  35.7539986  52.6976973  33.9760801
  35.6064948  51.7693680  34.1568371  36.5793479  52.7197064  33.4917877
  29.6202230  41.3495040  29.8341294  29.9598303  41.8780961  29.1119902
  30.0674351  41.6875446  30.6099860  39.3574108  53.5205532  35.0625674
  40.2820655  53.3148393  34.9250125  39.1889411  53.2721933  35.9715016
  32.3145671  39.7332091  39.2844362  31.9742491  38.9339904  39.6865041
  31.6084677  40.0333802  38.7121195  32.9662143  36.8181403  37.7371685
  33.7888212  36.3441881  37.6150575  33.2100206  37.5971887  38.2370371
  31.6070377  39.8469662  28.0334586  32.3278740  40.2250914  27.5298303
  30.9835681  40.5658538  28.1369564  35.7501500  40.5514811  28.9692919
  35.9665115  41.4339448  28.6681747  35.2695567  40.1601024  28.2398561
  30.4900722  43.5100524  35.5463663  30.3445302  43.8240827  36.4387945
  30.0125925  44.1285424  34.9934562  32.3497104  40.5003072  35.5944553
  32.3358673  39.6044165  35.2576851  33.0669533  40.5073735  36.2282839
  34.2023235  40.9340412  37.6397680  33.9441013  41.8557483  37.6382011
  33.6708276  40.5370846  38.3298144  39.1469424  54.0391199  30.4187766
  39.3206301  53.4737622  29.6661618  39.6398315  54.8392094  30.2367256
  24.9646384  46.0505868  38.4851324  24.4199852  46.8265676  38.6171599
  25.8425734  46.3976673  38.3270446  31.7534000  39.3817452  30.8632123
  31.8749912  38.4534098  31.0623010  31.4636043  39.3956138  29.9510438
  34.6225191  37.0672362  33.9998843  34.6446888  37.1311696  33.0450822
  35.0393250  36.2276871  34.1939349  45.0008815  46.8027622  32.0378065
  45.4439961  46.0534947  31.6397189  44.1235325  46.7937758  31.6551797
  40.1344596  53.3557963  27.5184664  40.8295501  53.9764656  27.7371979
  40.4767747  52.5053315  27.7937042  25.7512406  45.1775764  41.3781481
  25.0094142  45.3258400  41.9646112  25.4305150  45.4384030  40.5148231
  42.0336020  50.8057669  29.0471995  42.5587344  51.1444942  28.3221315
  41.9458372  49.8704684  28.8635129  33.6956068  54.7191743  41.1761871
  34.0043195  54.4740889  42.0484571  34.4931550  54.9238381  40.6880741
  33.7176680  56.8729652  33.4067248  33.2781671  56.3806031  34.1000105
  34.4684797  56.3302620  33.1659323  26.1969019  53.0641193  33.4091876
  27.0227039  52.7644965  33.0290519  25.8463071  52.2948816  33.8581665
  31.1650552  52.4167661  35.4789549  30.5430562  51.7538366  35.1791777
  31.8355419  52.4428793  34.7963197  24.3977624  50.9827520  34.3680809
  23.5609533  50.5549694  34.1864811  24.3701270  51.1759963  35.3051601
  31.2375080  40.8949449  45.0722056  31.2863235  41.7711572  44.6899825
  31.7797594  40.3526842  44.4993699  41.7229926  51.4390573  44.3523193
  40.9325469  51.4214711  43.8127692  41.4863280  51.9778866  45.1072229
  41.8427801  48.2883039  41.6655921  41.8925806  48.1233046  42.6071444
  41.7341724  47.4210298  41.2753802  30.7264059  50.9671585  28.9548010
  30.8752180  51.6507049  28.3014683  31.5330503  50.9476675  29.4697466
  39.1331563  44.2713967  42.9815228  40.0341426  44.1320432  42.6899226
  39.2079538  44.4368422  43.9213405  33.4674368  41.6480822  41.8268414
  32.5977678  41.9414388  41.5551003  33.7033849  42.2321267  42.5475678
  43.3445997  50.7079981  41.9097943  43.0530806  51.0709961  42.7461404
  42.7318129  49.9946989  41.7311275  44.5441680  48.2732860  34.4300513
  45.3788571  48.7122664  34.5938073  44.6800809  47.7971514  33.6108759
  41.5933186  45.8312595  40.3778001  42.0687307  46.0240241  39.5696852
  40.6698751  45.8871781  40.1321384  28.4816692  46.9936762  29.9609079
  28.2362734  46.0899092  30.1589289  28.6512607  46.9953913  29.0188557
  36.1713402  37.8660439  39.3433835  36.6895346  38.6021466  39.0180323
  35.8168535  38.1724432  40.1780594  27.7512340  42.7265120  27.4595240
  27.0581585  42.8009475  26.8035276  27.5064092  41.9625464  27.9816757
  36.4225996  34.2860721  34.8634731  36.7027750  33.6183910  35.4895158
  37.2076603  34.4789817  34.3509395  34.2259465  53.4619715  26.4259757
  33.6533432  54.0809902  25.9730229  34.7992259  54.0119077  26.9599679
  40.2934855  42.7078355  38.6106306  41.2452278  42.8076453  38.6318530
  40.1238305  41.9156624  39.1204391  38.3149234  39.7933938  38.7965707
  37.7199166  40.0738951  38.1012196  38.0298931  40.2827839  39.5682448
  37.4456725  53.7456865  27.5568340  38.3787398  53.6802427  27.7601215
  37.3579937  54.5813132  27.0982872  40.0744741  53.0622736  24.5172287
  39.9958373  52.7282599  25.4108045  40.8954408  53.5544504  24.5163760
  42.7722932  45.9284475  37.7248606  42.7399253  44.9900476  37.9108290
  43.3823556  46.0068512  36.9914431  34.6106263  44.7980528  23.7675810
  35.5565368  44.6686736  23.8364228  34.2320508  44.0595190  24.2445238
  42.9217421  42.7195518  37.7706889  42.4056470  41.9353975  37.5836818
  43.8057369  42.3914235  37.9353409  40.5828148  36.4636534  33.7302702
  40.3852969  36.1551622  34.6146034  41.1927853  37.1898173  33.8600632
  48.5899482  46.9900482  36.8654643  49.3202871  46.7285770  37.4262346
  47.9806428  46.2529204  36.9056711  46.6714779  45.1308344  37.4629094
  45.9447943  44.9964309  36.8545585  46.2562066  45.4385173  38.2685812
  34.4944956  48.8498274  45.2276467  35.4147965  49.0276873  45.4216513
  34.4594539  47.9054319  45.0756166  32.7949181  42.7230504  23.7030695
  31.8880636  42.4263617  23.7793409  33.0725162  42.4260322  22.8364981
  23.7127121  44.0436868  34.1529742  23.3929905  43.1902176  33.8604116
  23.1660549  44.2585446  34.9087709  27.4907028  46.7599309  37.8699248
  27.7093038  47.6916416  37.8887282  27.9032802  46.4007283  38.6554052
  34.4111246  37.2667394  29.8574936  33.6011975  36.9214479  30.2330183
  35.0995663  36.9574938  30.4462548  36.3401795  36.3445441  31.4799233
  36.8932833  36.7640894  32.1389256  36.5771881  35.4181189  31.5222189
  32.3634894  42.3332514  47.2601997  32.2631621  43.2826871  47.1914088
  32.1456436  42.0050753  46.3878067  31.5647965  39.5817440  23.8442674
  32.4267129  39.9072338  24.1038492  31.7498309  38.7948935  23.3315740
  23.5815381  47.6639779  36.1222863  22.8878852  47.2493732  35.6092818
  24.3288372  47.7060316  35.5256282  39.7180602  38.4545966  30.9877897
  39.1379271  39.1130770  30.6055950  39.4516534  37.6323311  30.5765315
  38.1684168  37.8551024  33.1899218  38.6683946  37.9667558  32.3813537
  38.8119776  37.5512077  33.8300026  32.2266164  45.7629653  46.0767059
  31.7433246  46.5630013  46.2830948  32.3127103  45.7737598  45.1234503
  25.4952123  47.5958033  33.9988878  25.4722812  47.6945720  33.0470761
  25.8052760  48.4423184  34.3206044  28.1539501  49.6534188  38.1135492
  29.1082755  49.6218130  38.0465424  27.9552025  49.1924812  38.9285718
  28.7438883  48.2235304  40.6806290  29.5631772  48.7179383  40.7041127
  29.0175691  47.3067272  40.6523858  38.5005480  40.6146056  30.0434246
  37.6131335  40.8995707  29.8254440  38.9159469  40.4539820  29.1961523
  41.8520016  40.6392577  33.7588585  42.6280406  41.1289030  34.0313202
  41.1268150  41.0650632  34.2160454  44.2892574  41.3520197  34.8162526
  44.8837065  41.1115933  34.1055834  44.3619158  40.6327327  35.4436062
  26.5089730  55.1953807  35.1305690  26.3744198  54.4354208  34.5643688
  26.0921792  55.9194707  34.6634479  37.6448693  50.3790731  24.1382266
  38.3484543  50.5840734  24.7539921  36.9211342  50.9467493  24.4031349
  38.4746503  46.1300592  30.2584536  38.4181705  46.5869144  29.4192168
  39.0274846  45.3691277  30.0807379  42.2851309  41.9190324  31.0834655
  42.0288244  41.5186960  31.9142863  41.6604177  42.6334118  30.9584794
  46.5963647  44.6586397  33.5905947  46.0363205  44.7279587  34.3637509
  45.9907150  44.4827382  32.8705443  29.6658856  56.0923125  35.3424133
  29.5491240  57.0368557  35.2402823  28.8451302  55.7896686  35.7309932
  39.5535390  50.8173260  26.1880726  40.3880994  50.3854459  26.0058200
  39.3919733  50.6455274  27.1157620  39.2081283  47.3205374  27.5537065
  39.1530086  47.1549645  26.6125509  38.5827338  48.0281406  27.7099255
  23.9973798  42.5573438  41.3798487  24.6432661  42.0472392  41.8685712
  23.7890949  43.2942120  41.9541912  36.5227190  49.6254285  46.8790628
  37.3918349  49.7994938  46.5177263  36.0433941  50.4448702  46.7566357
  32.5177408  36.8213483  27.1322383  32.5056078  37.7655322  27.2890654
  33.4100830  36.6383628  26.8381845  30.6913370  56.7451386  38.5580061
  31.5940617  56.7774997  38.8746556  30.4650740  55.8151837  38.5726397
  32.4466972  55.4982373  35.2190140  31.4962603  55.4984235  35.1054512
  32.7499458  54.7515108  34.7026175  36.3329528  33.4156259  31.3868320
  35.5661923  32.8614746  31.5325003  36.7440233  33.4878128  32.2482472
  28.3371289  39.7041055  45.4773501  29.2002750  39.3477860  45.6876826
  27.7636699  39.3654950  46.1648906  48.1819666  61.3342911  36.2835902
  48.8198076  61.2149659  35.5799242  48.0640508  62.2823755  36.3423855
  44.9909372  61.2870339  36.2197427  44.6527883  61.1711404  35.3317962
  45.8599140  60.8861505  36.1998433  40.8496188  63.1405816  32.2094318
  40.2861053  63.0495753  31.4410606  40.7348583  62.3205720  32.6896811
  45.4729155  62.4405191  42.1783633  45.4617796  62.0457989  41.3064136
  45.6349794  61.7071264  42.7717404  38.3960619  64.6357007  35.0478539
  39.1881911  64.2947832  34.6324838  38.6357270  64.7451982  35.9680692
  46.4295746  66.8076784  27.5208783  45.7783726  67.3930864  27.1342797
  47.2240109  67.3382978  27.5803820  40.3551373  63.8965921  27.9195917
  41.1282249  63.3494908  27.7808793  40.7076772  64.7610170  28.1310379
  42.1936416  65.2242303  41.1262817  41.9026282  66.1287934  41.0109483
  42.8293400  65.2658831  41.8406886  43.1192623  62.6019151  37.7164176
  43.7156195  62.3775174  37.0021139  43.1767594  61.8603897  38.3189624
  42.6917651  60.0558587  25.5514367  42.9443172  59.5340108  24.7897830
  41.7542210  59.8924732  25.6541051  47.7360934  59.0594365  33.3589110
  48.5224023  58.6413788  33.0079527  47.9999638  59.9640457  33.5270759
  47.9071011  64.4967215  28.0577767  47.2716844  64.5701842  28.7698672
  47.5768418  65.0860814  27.3796847  53.1369361  58.9969598  34.2622089
  53.8694533  58.4268815  34.4959918  52.3808717  58.6091199  34.7028595
  42.4113940  61.9586693  27.7538742  42.2950198  61.2831596  28.4219826
  42.5216200  61.4719067  26.9370895  44.7545481  61.4196840  31.4585431
  44.3903688  60.8927461  32.1698353  45.6112597  61.0295309  31.2851917
  50.6594782  52.7091172  38.7216698  50.3278106  53.5786583  38.4977913
  50.0640395  52.3927456  39.4010728  44.3950968  56.4486740  26.4546780
  44.5625370  57.3166976  26.8217251  44.2048137  56.6114021  25.5308069
  47.1526301  64.9103718  38.1212610  46.8527024  65.8128757  38.0128418
  46.8077361  64.6435902  38.9733763  40.6038783  61.3617515  34.1549315
  39.6789279  61.2293729  34.3627006  40.8523196  62.1411735  34.6519257
  50.5523445  57.4286259  35.8010048  49.6440322  57.3601667  35.5068809
  50.5011041  57.9058204  36.6291873  44.3740189  58.9044397  27.4393447
  44.2539814  59.3501448  28.2778927  43.6792777  59.2529715  26.8806985
  37.9647594  61.0050789  34.9893104  38.0939975  61.2585268  35.9032516
  37.2845045  61.5978497  34.6697759  42.1347081  71.6748039  31.0883578
  42.0571111  72.6255864  31.1672059  41.5308724  71.3293911  31.7458504
  44.6264311  58.8475904  43.7444945  43.8497645  59.4069824  43.7347810
  45.2654874  59.3332687  44.2659815  52.4185091  55.6302697  37.5787922
  51.7759472  55.9235230  36.9327716  51.9140020  55.5155617  38.3841118
  50.0725255  59.3765870  28.2673781  50.9843111  59.6093257  28.0921478
  49.5634902  59.9602914  27.7048859  42.8810683  61.6561358  43.3062912
  43.6225367  62.1946402  43.0297736  42.1747668  62.2827646  43.4634464
  48.3566023  63.7990498  41.9035073  48.7649379  63.3572909  41.1589706
  47.6343284  63.2243126  42.1569266  44.7097093  58.7363105  39.2768630
  45.5558288  59.1602518  39.4203279  44.6495730  58.0796729  39.9707193
  48.6794837  64.3591689  35.6587362  48.0503700  64.5237403  34.9563430
  48.2920499  64.7733298  36.4298326  52.5584069  65.2946127  33.0131726
  51.8735107  65.6745028  32.4628759  52.6427918  65.9041453  33.7463674
  47.8596538  56.3967473  40.9349804  47.6157470  57.1509534  40.3984080
  48.1356468  56.7752821  41.7697051  49.8135001  62.9406086  39.6127070
  50.0251896  63.5837845  38.9361451  49.7664749  62.1068402  39.1449000
  47.4161230  55.5523906  36.5163642  46.5545709  55.8505160  36.8080379
  47.4423664  55.7694305  35.5844674  44.2322799  64.0966097  32.9237447
  44.6961145  64.3753800  32.1342070  43.9679597  63.1949541  32.7410538
  41.1246880  63.6437578  35.8617211  41.6948237  64.0724847  35.2234695
  41.7154992  63.3620163  36.5601396  43.1691685  60.2189249  29.7327013
  43.8715729  60.6710293  30.2000939  42.8372314  59.5773068  30.3606906
  41.6172047  58.8101006  44.1078222  40.9870707  59.4917287  44.3413619
  41.5108135  58.6984087  43.1631360  36.9117019  58.4772802  35.0344146
  36.1216073  58.7330330  34.5584257  37.4028267  59.2921140  35.1396187
  50.9280829  65.8178041  37.7849427  51.7498272  65.4158228  37.5032109
  50.9243232  65.7146275  38.7365543  38.8631765  58.8417381  31.9927623
  38.0662928  58.9536075  32.5111118  38.6357357  59.1804033  31.1268513
  44.6937432  65.3662084  39.9410137  44.7581865  65.8282492  40.7768309
  43.9848356  64.7359449  40.0692447  35.1954722  58.7303292  37.4659137
  35.4462761  59.6150302  37.7316713  35.7314271  58.5507894  36.6934229
  59.0186822  62.1616789  34.1334398  58.2650530  61.5924188  33.9778403
  59.1534363  62.1279454  35.0805033  44.4085450  67.0330192  29.8089118
  44.2731125  67.8781728  30.2373966  44.9495262  67.2349469  29.0455052
  40.8952789  53.1121772  46.4703473  40.5019735  52.5587970  47.1451117
  41.7118930  53.4232350  46.8609990  37.8614847  64.5505630  30.3817043
  38.3739368  65.3448880  30.5322607  38.5137560  63.8531920  30.3150644
  39.6709732  67.6671386  32.4639796  39.8476360  68.5889351  32.2760780
  40.4666565  67.3529805  32.8934176  43.8120750  54.5279651  44.0623730
  44.5530464  55.1286804  43.9828192  44.0438673  53.7857289  43.5041772
  38.9562088  59.7136018  42.3401959  38.8415604  58.8121275  42.6409058
  38.1006606  59.9599715  41.9886776  46.0353926  67.6553758  43.9389460
  45.5917780  66.8690137  43.6210364  46.6971140  67.8432909  43.2733351
  40.7941047  69.1849560  38.4650138  41.3448472  69.0566623  37.6927132
  39.9552523  69.4844449  38.1145031  48.1335164  67.9356558  41.9670861
  48.1153640  68.7565439  41.4751130  49.0555084  67.8110633  42.1921002
  44.5908218  65.4500688  42.8094369  45.1236555  64.6888976  42.5793677
  44.0622299  65.1574340  43.5518524  47.7577913  50.5560754  38.3388011
  47.4142183  51.4462395  38.2627122  48.1256876  50.3662411  37.4757596
  35.8263764  62.8794284  31.1576613  36.6638986  63.2891292  30.9410321
  36.0042032  61.9393726  31.1276807  47.7228196  60.5469365  26.8460446
  47.2074820  61.3173969  27.0848834  47.4505505  59.8734501  27.4693508
  45.3075307  55.3919066  31.9045685  44.4516903  55.0025916  31.7251323
  45.7202259  55.4711026  31.0445470  46.8374454  52.9265409  36.3037244
  46.3339249  52.8895544  35.4905050  47.1305061  53.8358152  36.3633901
  43.0817340  53.0104139  35.3103426  43.9470336  52.8146947  34.9509316
  43.1494849  52.7814490  36.2372783  52.6962470  63.3001719  28.7813620
  51.9191913  62.9612879  28.3368782  53.3753951  63.3054343  28.1068585
  47.5114499  58.4196457  28.6720227  47.2064635  58.7342606  29.5230371
  48.4644941  58.4977877  28.7147560  45.9560931  64.5786680  30.3213181
  45.4282293  63.8439440  30.0086419  45.4548434  65.3561357  30.0753150
  50.9353777  62.7735701  35.4380228  50.2777452  63.4634962  35.5260356
  51.7394176  63.1632133  35.7814214  40.6879659  55.2406346  32.6819793
  41.2623411  55.0181528  31.9492986  41.2750641  55.3095041  33.4348394
  49.7459236  61.1280073  33.4884170  50.2591118  61.7610065  33.9905879
  50.3960460  60.5281269  33.1227530  41.0149246  57.2710807  26.7015678
  40.1786558  57.6085494  27.0224953  40.8754015  57.1359787  25.7642815
  42.9902326  52.1147595  31.4094862  42.3366739  51.7996613  30.7851477
  42.9482801  51.4923336  32.1354685  44.1013531  62.3966890  23.3248154
  43.1940593  62.1656144  23.5239303  44.5984563  61.6004510  23.5122136
  47.0081610  71.1064398  26.2444841  46.3343309  71.4096094  26.8529798
  47.3947432  71.9093478  25.8950298  46.2240067  58.6029529  35.7342510
  45.3062628  58.8244476  35.5764198  46.6400210  58.6775839  34.8754217
  47.0075115  60.0020945  30.8645190  47.7546933  60.5142342  30.5552312
  47.2766704  59.6804997  31.7249584  45.2801765  62.4979485  27.8472145
  44.3712984  62.2138518  27.9444614  45.3096849  62.9178564  26.9875451
  50.5121032  66.1086075  31.6163312  50.0583359  65.2676985  31.6728503
  49.8814999  66.7447473  31.9538092  49.4553952  57.0378061  32.8463980
  48.7176708  56.5255447  33.1774222  49.7080725  56.5978442  32.0347256
  48.9553971  67.9462572  32.5513130  49.2476946  68.5067629  31.8325496
  49.4652592  68.2391133  33.3066289  49.5565579  49.8154313  33.4405749
  49.8624456  48.9551676  33.1531664  50.2818184  50.4071933  33.2404743
  35.8489935  60.2184999  31.8287347  35.6514335  59.6254360  31.1038413
  35.2936599  59.9137210  32.5463286  43.8286659  60.1108106  33.9481940
  43.8835269  59.1581942  33.8724417  43.0177861  60.2667545  34.4323238
  44.9777853  64.0388229  25.1860223  44.5397282  63.3224088  24.7265861
  45.7188293  64.2664344  24.6245315  41.7679019  58.7285166  31.7072319
  40.9546884  59.0279336  32.1137511  42.2638013  58.3340854  32.4246801
  43.9187597  68.7242923  33.6406583  43.8763775  68.9503769  32.7115116
  44.8350295  68.4906297  33.7892385  47.3653230  59.1926990  40.5387213
  47.7202618  59.4198463  41.3981678  48.0125362  59.5245367  39.9164468
  53.0950967  62.3145426  31.2436542  52.9568866  62.5047022  30.3157731
  52.7387186  63.0764809  31.7004593  41.2593093  56.3003521  37.3233554
  41.8992473  56.1592280  36.6256517  40.4270624  56.0138035  36.9472156
  53.1220347  64.3821953  36.2547813  53.5556854  64.2897242  37.1030867
  53.8351928  64.3579453  35.6167829  42.0353397  65.6005952  33.4368546
  42.8293996  65.1056272  33.2351121  41.3245090  65.0723815  33.0736252
  46.8548242  67.9824047  37.7880914  46.9085264  68.5514983  38.5558630
  45.9863023  68.1525932  37.4234951  38.3436161  59.7449033  29.5128299
  37.4133749  59.6833489  29.7298261  38.4393633  59.2224986  28.7164940
  38.2621710  56.2703846  32.1006541  38.5228527  57.1849179  31.9915701
  39.0838882  55.8028289  32.2503153  39.7346635  57.6841603  39.2705365
  40.4069689  57.4758965  38.6218014  38.9076422  57.4863689  38.8310597
  53.9835896  64.4245654  38.7880699  54.1771787  65.3291464  39.0339974
  53.8836515  63.9653073  39.6219284  45.6372207  54.3103544  41.2871026
  44.9900122  55.0093494  41.1935502  46.4073223  54.7439688  41.6547274
  49.0451005  64.5752396  44.3621579  48.8936512  64.3462948  43.4451663
  49.0355685  65.5322998  44.3752924  45.8136342  62.1484309  39.3467846
  46.7428402  62.2995469  39.1736813  45.3927372  62.2368330  38.4916492
  44.6124673  66.1734974  37.1166383  44.4735759  65.8053758  37.9892321
  43.8239270  66.6882613  36.9450341  45.2072825  71.2744070  28.4591920
  45.3824581  70.8032113  29.2737543  44.5205613  71.9009836  28.6873181
  46.1629888  65.5516576  34.5055221  45.8279721  65.5117346  35.4012871
  45.6633834  64.8861292  34.0325631  40.1374132  60.9584206  40.0307802
  39.9993930  60.2264445  40.6319341  41.0479056  60.8693106  39.7491990
  49.0989080  62.8972611  24.7792281  48.4818251  62.1719439  24.6825333
  48.6305569  63.6581971  24.4359355  42.7656433  60.6704166  39.5191482
  43.4756052  60.0297358  39.4778100  42.7225741  60.9217060  40.4417663
  50.7543212  67.6071519  42.4398061  50.6955758  66.9230739  41.7728644
  51.1562730  68.3490509  41.9878687  41.4785367  57.6569384  41.3387121
  40.9422724  57.2060122  41.9908718  40.8902076  57.7915292  40.5957586
  39.7733911  74.4233433  35.2331780  40.0130509  75.0551957  35.9110799
  38.9303107  74.0721473  35.5197139  40.8887626  57.1158035  23.9013585
  40.0117092  56.9946836  23.5375832  41.3645379  56.3244113  23.6492474
  50.7560619  65.5711103  40.6712041  49.8687398  65.2337025  40.7938440
  51.3259170  64.8394134  40.9080806  32.4089766  61.9035195  33.9955092
  33.0960806  61.5896925  33.4076107  32.2537895  62.8076559  33.7222344
  37.2124488  56.7925391  38.4240116  37.1282677  56.1851061  37.6890526
  36.3907195  57.2834410  38.4249612  44.2861772  70.2312555  37.6373284
  44.2131944  71.0367527  38.1492589  43.8439166  70.4304521  36.8121305
  44.0751552  69.4684325  31.1476106  43.2919074  70.0106005  31.2414330
  44.7744297  69.9858305  31.5470347  47.3848202  55.2778955  33.7910311
  47.8816902  54.5248917  33.4711381  46.6135184  55.3143271  33.2253520
  55.2377960  60.9819320  35.4328602  55.2267836  61.8644036  35.0622536
  54.3695339  60.6290871  35.2383139  46.7460456  70.1299389  39.7931443
  47.4588428  70.7646854  39.7207344  46.2550485  70.2263255  38.9771444
  48.4677983  64.0350642  31.3648734  47.5334262  64.1552104  31.1953439
  48.6454651  63.1323109  31.1008744  43.9683171  57.4196338  33.5181996
  43.5980958  56.8667378  34.2062901  44.4642263  56.8154471  32.9656996
  51.8550534  59.8767961  31.8998768  52.3210986  60.7095953  31.8259071
  52.3058035  59.4112943  32.6044027  41.7972370  67.8793833  40.6137013
  42.4981829  68.5130316  40.7666408  41.3267485  68.2208564  39.8532653
  49.9226765  66.2211783  28.8984920  50.1986609  66.1068377  29.8078795
  49.0531264  65.8229267  28.8597094  49.8267197  52.2448548  35.9389670
  48.9130277  52.4752775  36.1071877  50.2560298  52.3286992  36.7903702
  49.5973655  60.4338440  38.4389564  48.9445106  60.6814348  37.7842017
  49.9754035  59.6202578  38.1052041  46.5580829  70.4698133  32.5417734
  46.7403224  69.6519789  33.0045486  47.3813815  70.6865826  32.1042624
  46.8922995  69.3966319  29.8032783  47.4210761  68.8858773  29.1902945
  47.1551214  69.0808849  30.6678316  45.6461229  61.1758251  44.9255601
  44.9701866  61.0752381  45.5957976  46.4688862  61.0197465  45.3891598
  37.3940088  67.4130188  37.5468116  37.9793524  66.6673876  37.6796020
  37.1964926  67.7234145  38.4304780  40.2478743  70.4481435  32.5630559
  39.5789118  70.9327563  32.0794599  40.1091612  70.6950656  33.4773937
  31.9857742  59.9835788  36.2672559  32.0241842  59.4499379  37.0609677
  31.4798035  59.4570994  35.6483536  44.3884011  72.4825179  39.1613217
  44.9402319  72.6456800  39.9262302  44.7290205  73.0729617  38.4893242
  39.3648505  54.8300329  39.7635102  39.4289831  55.6915159  39.3512499
  39.3015625  54.2174330  39.0307460  38.8400777  56.9023461  43.4108136
  39.4672816  56.5200538  44.0245660  37.9828696  56.6837663  43.7763828
  49.2394886  67.3086436  45.0161871  49.7834790  67.9216395  44.5216826
  48.6581731  67.8666015  45.5328884  35.6166320  58.7099890  29.3426491
  35.9119761  57.8010569  29.2893544  34.7154356  58.6887630  29.0207493
  47.5252399  70.4307154  36.1476899  47.4003538  69.6296894  35.6387845
  48.1831490  70.9253348  35.6590869  39.1460567  56.7855887  35.3254039
  38.4247153  57.3991854  35.1861513  39.9353823  57.3213652  35.2470685
  49.5887307  68.2316174  37.7756449  48.6417643  68.1121526  37.7034776
  49.9370080  67.3438672  37.8582711  41.9486880  54.1210313  41.5994691
  42.4721282  54.3672610  42.3621000  41.7299214  54.9530348  41.1797828
  37.3454161  56.3913988  29.4665816  37.0166868  55.5111367  29.2840922
  37.6993532  56.3361657  30.3542205  46.5933740  68.0268891  33.9760801
  46.4458703  67.0985598  34.1568371  47.4187234  68.0488981  33.4917877
  40.4595985  56.6786958  29.8341294  40.7992057  57.2072879  29.1119902
  40.9068105  57.0167364  30.6099860  50.1967862  68.8497449  35.0625674
  51.1214410  68.6440311  34.9250125  50.0283166  68.6013850  35.9715016
  43.1539425  55.0624008  39.2844362  42.8136246  54.2631821  39.6865041
  42.4478432  55.3625719  38.7121195  43.8055897  52.1473321  37.7371685
  44.6281967  51.6733799  37.6150575  44.0493961  52.9263805  38.2370371
  42.4464132  55.1761579  28.0334586  43.1672494  55.5542832  27.5298303
  41.8229436  55.8950456  28.1369564  46.5895255  55.8806728  28.9692919
  46.8058869  56.7631366  28.6681747  46.1089322  55.4892942  28.2398561
  41.3294476  58.8392441  35.5463663  41.1839057  59.1532744  36.4387945
  40.8519680  59.4577342  34.9934562  43.1890859  55.8294989  35.5944553
  43.1752428  54.9336083  35.2576851  43.9063287  55.8365653  36.2282839
  45.0416990  56.2632330  37.6397680  44.7834767  57.1849400  37.6382011
  44.5102030  55.8662764  38.3298144  49.9863178  69.3683117  30.4187766
  50.1600056  68.8029539  29.6661618  50.4792070  70.1684012  30.2367256
  35.8040138  61.3797786  38.4851324  35.2593606  62.1557594  38.6171599
  36.6819488  61.7268590  38.3270446  42.5927755  54.7109370  30.8632123
  42.7143666  53.7826016  31.0623010  42.3029797  54.7248056  29.9510438
  45.4618945  52.3964280  33.9998843  45.4840642  52.4603613  33.0450822
  45.8787004  51.5568789  34.1939349  55.8402570  62.1319540  32.0378065
  56.2833716  61.3826865  31.6397189  54.9629080  62.1229676  31.6551797
  50.9738351  68.6849881  27.5184664  51.6689256  69.3056574  27.7371979
  51.3161501  67.8345232  27.7937042  36.5906160  60.5067682  41.3781481
  35.8487896  60.6550317  41.9646112  36.2698904  60.7675948  40.5148231
  52.8729774  66.1349587  29.0471995  53.3981098  66.4736859  28.3221315
  52.7852127  65.1996602  28.8635129  44.5349823  70.0483660  41.1761871
  44.8436949  69.8032807  42.0484571  45.3325305  70.2530299  40.6880741
  44.5570435  72.2021570  33.4067248  44.1175425  71.7097949  34.1000105
  45.3078552  71.6594538  33.1659323  37.0362774  68.3933111  33.4091876
  37.8620794  68.0936883  33.0290519  36.6856826  67.6240733  33.8581665
  42.0044307  67.7459579  35.4789549  41.3824316  67.0830284  35.1791777
  42.6749174  67.7720711  34.7963197  35.2371379  66.3119437  34.3680809
  34.4003287  65.8841612  34.1864811  35.2095024  66.5051881  35.3051601
  42.0768834  56.2241367  45.0722056  42.1256990  57.1003490  44.6899825
  42.6191349  55.6818760  44.4993699  52.5623680  66.7682490  44.3523193
  51.7719224  66.7506629  43.8127692  52.3257035  67.3070784  45.1072229
  52.6821555  63.6174957  41.6655921  52.7319560  63.4524964  42.6071444
  52.5735478  62.7502216  41.2753802  41.5657814  66.2963502  28.9548010
  41.7145934  66.9798967  28.3014683  42.3724257  66.2768592  29.4697466
  49.9725318  59.6005885  42.9815228  50.8735180  59.4612350  42.6899226
  50.0473292  59.7660340  43.9213405  44.3068123  56.9772739  41.8268414
  43.4371432  57.2706306  41.5551003  44.5427603  57.5613184  42.5475678
  54.1839752  66.0371898  41.9097943  53.8924560  66.4001879  42.7461404
  53.5711883  65.3238906  41.7311275  55.3835434  63.6024778  34.4300513
  56.2182326  64.0414582  34.5938073  55.5194563  63.1263431  33.6108759
  52.4326940  61.1604513  40.3778001  52.9081062  61.3532159  39.5696852
  51.5092506  61.2163699  40.1321384  39.3210447  62.3228680  29.9609079
  39.0756489  61.4191010  30.1589289  39.4906361  62.3245830  29.0188557
  47.0107157  53.1952356  39.3433835  47.5289101  53.9313383  39.0180323
  46.6562289  53.5016350  40.1780594  38.5906094  58.0557038  27.4595240
  37.8975339  58.1301393  26.8035276  38.3457846  57.2917381  27.9816757
  47.2619751  49.6152639  34.8634731  47.5421505  48.9475828  35.4895158
  48.0470358  49.8081735  34.3509395  45.0653219  68.7911633  26.4259757
  44.4927186  69.4101820  25.9730229  45.6386013  69.3410995  26.9599679
  51.1328609  58.0370273  38.6106306  52.0846032  58.1368371  38.6318530
  50.9632060  57.2448541  39.1204391  49.1542989  55.1225856  38.7965707
  48.5592921  55.4030869  38.1012196  48.8692685  55.6119757  39.5682448
  48.2850479  69.0748783  27.5568340  49.2181152  69.0094345  27.7601215
  48.1973692  69.9105050  27.0982872  50.9138496  68.3914653  24.5172287
  50.8352127  68.0574517  25.4108045  51.7348163  68.8836421  24.5163760
  53.6116687  61.2576393  37.7248606  53.5793007  60.3192393  37.9108290
  54.2217311  61.3360429  36.9914431  45.4500018  60.1272446  23.7675810
  46.3959123  59.9978654  23.8364228  45.0714263  59.3887107  24.2445238
  53.7611175  58.0487436  37.7706889  53.2450224  57.2645893  37.5836818
  54.6451124  57.7206153  37.9353409  51.4221902  51.7928452  33.7302702
  51.2246724  51.4843540  34.6146034  52.0321608  52.5190091  33.8600632
  59.4293237  62.3192399  36.8654643  60.1596625  62.0577688  37.4262346
  58.8200182  61.5821121  36.9056711  57.5108534  60.4600262  37.4629094
  56.7841698  60.3256227  36.8545585  57.0955821  60.7677091  38.2685812
  45.3338710  64.1790192  45.2276467  46.2541720  64.3568791  45.4216513
  45.2988293  63.2346237  45.0756166  43.6342935  58.0522422  23.7030695
  42.7274390  57.7555535  23.7793409  43.9118916  57.7552240  22.8364981
  34.5520875  59.3728785  34.1529742  34.2323660  58.5194094  33.8604116
  34.0054304  59.5877364  34.9087709  38.3300783  62.0891226  37.8699248
  38.5486793  63.0208334  37.8887282  38.7426557  61.7299201  38.6554052
  45.2505001  52.5959312  29.8574936  44.4405729  52.2506397  30.2330183
  45.9389418  52.2866855  30.4462548  47.1795549  51.6737358  31.4799233
  47.7326588  52.0932812  32.1389256  47.4165635  50.7473107  31.5222189
  43.2028648  57.6624432  47.2601997  43.1025375  58.6118789  47.1914088
  42.9850190  57.3342671  46.3878067  42.4041720  54.9109357  23.8442674
  43.2660884  55.2364255  24.1038492  42.5892064  54.1240853  23.3315740
  34.4209135  62.9931697  36.1222863  33.7272607  62.5785650  35.6092818
  35.1682126  63.0352233  35.5256282  50.5574356  53.7837884  30.9877897
  49.9773025  54.4422688  30.6055950  50.2910289  52.9615228  30.5765315
  49.0077922  53.1842941  33.1899218  49.5077701  53.2959476  32.3813537
  49.6513530  52.8803994  33.8300026  43.0659918  61.0921571  46.0767059
  42.5827000  61.8921931  46.2830948  43.1520857  61.1029516  45.1234503
  36.3345878  62.9249951  33.9988878  36.3116566  63.0237638  33.0470761
  36.6446514  63.7715101  34.3206044  38.9933256  64.9826106  38.1135492
  39.9476509  64.9510048  38.0465424  38.7945779  64.5216729  38.9285718
  39.5832638  63.5527222  40.6806290  40.4025527  64.0471300  40.7041127
  39.8569446  62.6359190  40.6523858  49.3399234  55.9437974  30.0434246
  48.4525089  56.2287625  29.8254440  49.7553223  55.7831737  29.1961523
  52.6913770  55.9684495  33.7588585  53.4674160  56.4580947  34.0313202
  51.9661904  56.3942549  34.2160454  55.1286329  56.6812114  34.8162526
  55.7230820  56.4407850  34.1055834  55.2012913  55.9619245  35.4436062
  37.3483485  70.5245725  35.1305690  37.2137952  69.7646126  34.5643688
  36.9315547  71.2486625  34.6634479  48.4842448  65.7082649  24.1382266
  49.1878298  65.9132651  24.7539921  47.7605096  66.2759411  24.4031349
  49.3140258  61.4592510  30.2584536  49.2575459  61.9161061  29.4192168
  49.8668600  60.6983195  30.0807379  53.1245064  57.2482242  31.0834655
  52.8681998  56.8478877  31.9142863  52.4997932  57.9626036  30.9584794
  57.4357402  59.9878315  33.5905947  56.8756960  60.0571504  34.3637509
  56.8300905  59.8119300  32.8705443  40.5052610  71.4215042  35.3424133
  40.3884995  72.3660475  35.2402823  39.6845057  71.1188604  35.7309932
  50.3929145  66.1465178  26.1880726  51.2274749  65.7146376  26.0058200
  50.2313488  65.9747192  27.1157620  50.0475037  62.6497291  27.5537065
  49.9923841  62.4841563  26.6125509  49.4221092  63.3573324  27.7099255
  34.8367552  57.8865356  41.3798487  35.4826416  57.3764310  41.8685712
  34.6284703  58.6234037  41.9541912  47.3620944  64.9546203  46.8790628
  48.2312104  65.1286855  46.5177263  46.8827696  65.7740620  46.7566357
  43.3571163  52.1505400  27.1322383  43.3449832  53.0947240  27.2890654
  44.2494584  51.9675546  26.8381845  41.5307125  72.0743304  38.5580061
  42.4334371  72.1066914  38.8746556  41.3044495  71.1443755  38.5726397
  43.2860727  70.8274291  35.2190140  42.3356358  70.8276152  35.1054512
  43.5893213  70.0807025  34.7026175  47.1723282  48.7448177  31.3868320
  46.4055678  48.1906664  31.5325003  47.5833987  48.8170046  32.2482472
  39.1765043  55.0332973  45.4773501  40.0396505  54.6769778  45.6876826
  38.6030454  54.6946867  46.1648906  59.0213420  76.6634829  36.2835902
  59.6591830  76.5441576  35.5799242  58.9034263  77.6115673  36.3423855
  55.8303126  76.6162257  36.2197427  55.4921638  76.5003322  35.3317962
  56.6992895  76.2153422  36.1998433  51.6889942  78.4697734  32.2094318
  51.1254807  78.3787670  31.4410606  51.5742337  77.6497638  32.6896811
  56.3122909  77.7697109  42.1783633  56.3011550  77.3749907  41.3064136
  56.4743549  77.0363181  42.7717404  49.2354374  79.9648925  35.0478539
  50.0275666  79.6239750  34.6324838  49.4751024  80.0743900  35.9680692
  57.2689501  82.1368701  27.5208783  56.6177481  82.7222782  27.1342797
  58.0633864  82.6674896  27.5803820  51.1945128  79.2257838  27.9195917
  51.9676004  78.6786825  27.7808793  51.5470527  80.0902088  28.1310379
  53.0330170  80.5534221  41.1262817  52.7420036  81.4579851  41.0109483
  53.6687155  80.5950748  41.8406886  53.9586377  77.9311069  37.7164176
  54.5549950  77.7067092  37.0021139  54.0161349  77.1895815  38.3189624
  53.5311406  75.3850504  25.5514367  53.7836926  74.8632026  24.7897830
  52.5935965  75.2216650  25.6541051  58.5754689  74.3886283  33.3589110
  59.3617778  73.9705706  33.0079527  58.8393393  75.2932375  33.5270759
  58.7464766  79.8259133  28.0577767  58.1110599  79.8993760  28.7698672
  58.4162172  80.4152732  27.3796847  63.9763116  74.3261516  34.2622089
  64.7088288  73.7560733  34.4959918  63.2202471  73.9383117  34.7028595
  53.2507694  77.2878610  27.7538742  53.1343953  76.6123514  28.4219826
  53.3609954  76.8010984  26.9370895  55.5939235  76.7488758  31.4585431
  55.2297443  76.2219379  32.1698353  56.4506351  76.3587227  31.2851917
  61.4988536  68.0383090  38.7216698  61.1671861  68.9078501  38.4977913
  60.9034149  67.7219374  39.4010728  55.2344722  71.7778657  26.4546780
  55.4019125  72.6458894  26.8217251  55.0441891  71.9405939  25.5308069
  57.9920056  80.2395636  38.1212610  57.6920779  81.1420675  38.0128418
  57.6471115  79.9727819  38.9733763  51.4432537  76.6909433  34.1549315
  50.5183034  76.5585647  34.3627006  51.6916950  77.4703652  34.6519257
  61.3917199  72.7578176  35.8010048  60.4834077  72.6893585  35.5068809
  61.3404795  73.2350121  36.6291873  55.2133943  74.2336315  27.4393447
  55.0933568  74.6793366  28.2778927  54.5186532  74.5821632  26.8806985
  48.8041348  76.3342707  34.9893104  48.9333729  76.5877185  35.9032516
  48.1238799  76.9270415  34.6697759  52.9740835  87.0039957  31.0883578
  52.8964865  87.9547782  31.1672059  52.3702479  86.6585829  31.7458504
  55.4658065  74.1767822  43.7444945  54.6891399  74.7361742  43.7347810
  56.1048628  74.6624605  44.2659815  63.2578846  70.9594615  37.5787922
  62.6153226  71.2527148  36.9327716  62.7533774  70.8447535  38.3841118
  60.9119009  74.7057788  28.2673781  61.8236866  74.9385175  28.0921478
  60.4028656  75.2894832  27.7048859  53.7204437  76.9853275  43.3062912
  54.4619122  77.5238319  43.0297736  53.0141423  77.6119564  43.4634464
  59.1959777  79.1282416  41.9035073  59.6043133  78.6864826  41.1589706
  58.4737039  78.5535043  42.1569266  55.5490847  74.0655023  39.2768630
  56.3952042  74.4894436  39.4203279  55.4889485  73.4088647  39.9707193
  59.5188592  79.6883606  35.6587362  58.8897454  79.8529321  34.9563430
  59.1314254  80.1025216  36.4298326  63.3977824  80.6238044  33.0131726
  62.7128862  81.0036946  32.4628759  63.4821673  81.2333371  33.7463674
  58.6990292  71.7259391  40.9349804  58.4551224  72.4801451  40.3984080
  58.9750223  72.1044738  41.7697051  60.6528755  78.2698003  39.6127070
  60.8645650  78.9129763  38.9361451  60.6058503  77.4360320  39.1449000
  58.2554984  70.8815824  36.5163642  57.3939463  71.1797077  36.8080379
  58.2817419  71.0986223  35.5844674  55.0716554  79.4258014  32.9237447
  55.5354899  79.7045717  32.1342070  54.8073352  78.5241459  32.7410538
  51.9640635  78.9729496  35.8617211  52.5341992  79.4016764  35.2234695
  52.5548747  78.6912081  36.5601396  54.0085440  75.5481167  29.7327013
  54.7109483  76.0002211  30.2000939  53.6766068  74.9064986  30.3606906
  52.4565801  74.1392923  44.1078222  51.8264462  74.8209204  44.3413619
  52.3501889  74.0276005  43.1631360  47.7510774  73.8064719  35.0344146
  46.9609828  74.0622248  34.5584257  48.2422021  74.6213057  35.1396187
  61.7674583  81.1469959  37.7849427  62.5892027  80.7450146  37.5032109
  61.7636986  81.0438193  38.7365543  49.7025519  74.1709299  31.9927623
  48.9056682  74.2827993  32.5111118  49.4751111  74.5095951  31.1268513
  55.5331187  80.6954002  39.9410137  55.5975619  81.1574409  40.7768309
  54.8242111  80.0651367  40.0692447  46.0348477  74.0595210  37.4659137
  46.2856515  74.9442220  37.7316713  46.5708025  73.8799811  36.6934229
  69.8580576  77.4908707  34.1334398  69.1044285  76.9216105  33.9778403
  69.9928117  77.4571372  35.0805033  55.2479204  82.3622109  29.8089118
  55.1124879  83.2073645  30.2373966  55.7889017  82.5641387  29.0455052
  51.7346544  68.4413689  46.4703473  51.3413489  67.8879888  47.1451117
  52.5512684  68.7524268  46.8609990  48.7008602  79.8797547  30.3817043
  49.2133122  80.6740798  30.5322607  49.3531315  79.1823838  30.3150644
  50.5103486  82.9963304  32.4639796  50.6870115  83.9181268  32.2760780
  51.3060320  82.6821723  32.8934176  54.6514505  69.8571568  44.0623730
  55.3924218  70.4578722  43.9828192  54.8832428  69.1149206  43.5041772
  49.7955843  75.0427936  42.3401959  49.6809358  74.1413193  42.6409058
  48.9400361  75.2891632  41.9886776  56.8747681  82.9845676  43.9389460
  56.4311535  82.1982055  43.6210364  57.5364894  83.1724826  43.2733351
  51.6334802  84.5141478  38.4650138  52.1842227  84.3858541  37.6927132
  50.7946278  84.8136367  38.1145031  58.9728919  83.2648476  41.9670861
  58.9547394  84.0857357  41.4751130  59.8948839  83.1402551  42.1921002
  55.4301973  80.7792605  42.8094369  55.9630310  80.0180894  42.5793677
  54.9016054  80.4866257  43.5518524  58.5971668  65.8852671  38.3388011
  58.2535937  66.7754313  38.2627122  58.9650630  65.6954329  37.4757596
  46.6657518  78.2086202  31.1576613  47.5032740  78.6183210  30.9410321
  46.8435786  77.2685644  31.1276807  58.5621951  75.8761282  26.8460446
  58.0468574  76.6465887  27.0848834  58.2899259  75.2026419  27.4693508
  56.1469062  70.7210983  31.9045685  55.2910658  70.3317834  31.7251323
  56.5596013  70.8002944  31.0445470  57.6768208  68.2557326  36.3037244
  57.1733004  68.2187462  35.4905050  57.9698815  69.1650069  36.3633901
  53.9211094  68.3396056  35.3103426  54.7864091  68.1438865  34.9509316
  53.9888603  68.1106408  36.2372783  63.5356225  78.6293637  28.7813620
  62.7585667  78.2904797  28.3368782  64.2147706  78.6346260  28.1068585
  58.3508254  73.7488375  28.6720227  58.0458389  74.0634524  29.5230371
  59.3038696  73.8269794  28.7147560  56.7954686  79.9078598  30.3213181
  56.2676047  79.1731357  30.0086419  56.2942188  80.6853274  30.0753150
  61.7747532  78.1027618  35.4380228  61.1171206  78.7926880  35.5260356
  62.5787931  78.4924050  35.7814214  51.5273413  70.5698264  32.6819793
  52.1017165  70.3473446  31.9492986  52.1144396  70.6386959  33.4348394
  60.5852990  76.4571991  33.4884170  61.0984872  77.0901983  33.9905879
  61.2354214  75.8573187  33.1227530  51.8543000  72.6002725  26.7015678
  51.0180313  72.9377412  27.0224953  51.7147770  72.4651705  25.7642815
  53.8296081  67.4439513  31.4094862  53.1760493  67.1288530  30.7851477
  53.7876555  66.8215254  32.1354685  54.9407286  77.7258808  23.3248154
  54.0334348  77.4948062  23.5239303  55.4378318  76.9296427  23.5122136
  57.8475365  86.4356315  26.2444841  57.1737063  86.7388012  26.8529798
  58.2341187  87.2385396  25.8950298  57.0633821  73.9321447  35.7342510
  56.1456383  74.1536394  35.5764198  57.4793965  74.0067757  34.8754217
  57.8468869  75.3312862  30.8645190  58.5940688  75.8434259  30.5552312
  58.1160459  75.0096915  31.7249584  56.1195519  77.8271403  27.8472145
  55.2106738  77.5430436  27.9444614  56.1490603  78.2470482  26.9875451
  61.3514787  81.4377992  31.6163312  60.8977114  80.5968902  31.6728503
  60.7208753  82.0739391  31.9538092  60.2947706  72.3669979  32.8463980
  59.5570463  71.8547365  33.1774222  60.5474480  71.9270360  32.0347256
  59.7947726  83.2754489  32.5513130  60.0870700  83.8359546  31.8325496
  60.3046346  83.5683050  33.3066289  60.3959334  65.1446231  33.4405749
  60.7018210  64.2843594  33.1531664  61.1211938  65.7363851  33.2404743
  46.6883690  75.5476917  31.8287347  46.4908089  74.9546278  31.1038413
  46.1330354  75.2429127  32.5463286  54.6680413  75.4400024  33.9481940
  54.7229023  74.4873860  33.8724417  53.8571615  75.5959463  34.4323238
  55.8171607  79.3680147  25.1860223  55.3791037  78.6516006  24.7265861
  56.5582048  79.5956261  24.6245315  52.6072773  74.0577083  31.7072319
  51.7940639  74.3571254  32.1137511  53.1031767  73.6632772  32.4246801
  54.7581351  84.0534840  33.6406583  54.7157530  84.2795687  32.7115116
  55.6744050  83.8198215  33.7892385  58.2046985  74.5218908  40.5387213
  58.5596373  74.7490381  41.3981678  58.8519116  74.8537285  39.9164468
  63.9344722  77.6437344  31.2436542  63.7962620  77.8338940  30.3157731
  63.5780941  78.4056727  31.7004593  52.0986848  71.6295439  37.3233554
  52.7386227  71.4884198  36.6256517  51.2664378  71.3429952  36.9472156
  63.9614101  79.7113871  36.2547813  64.3950608  79.6189160  37.1030867
  64.6745682  79.6871371  35.6167829  52.8747152  80.9297869  33.4368546
  53.6687750  80.4348189  33.2351121  52.1638844  80.4015732  33.0736252
  57.6941996  83.3115965  37.7880914  57.7479019  83.8806901  38.5558630
  56.8256778  83.4817850  37.4234951  49.1829915  75.0740951  29.5128299
  48.2527503  75.0125407  29.7298261  49.2787387  74.5516904  28.7164940
  49.1015464  71.5995764  32.1006541  49.3622282  72.5141097  31.9915701
  49.9232637  71.1320206  32.2503153  50.5740390  73.0133521  39.2705365
  51.2463443  72.8050883  38.6218014  49.7470176  72.8155607  38.8310597
  64.8229651  79.7537571  38.7880699  65.0165541  80.6583382  39.0339974
  64.7230269  79.2944990  39.6219284  56.4765962  69.6395462  41.2871026
  55.8293877  70.3385412  41.1935502  57.2466977  70.0731606  41.6547274
  59.8844760  79.9044314  44.3621579  59.7330266  79.6754866  43.4451663
  59.8749439  80.8614916  44.3752924  56.6530096  77.4776227  39.3467846
  57.5822156  77.6287386  39.1736813  56.2321126  77.5660248  38.4916492
  55.4518428  81.5026891  37.1166383  55.3129514  81.1345676  37.9892321
  54.6633024  82.0174531  36.9450341  56.0466580  86.6035988  28.4591920
  56.2218335  86.1324031  29.2737543  55.3599368  87.2301754  28.6873181
  57.0023643  80.8808494  34.5055221  56.6673476  80.8409264  35.4012871
  56.5027589  80.2153210  34.0325631  50.9767887  76.2876124  40.0307802
  50.8387685  75.5556363  40.6319341  51.8872810  76.1985024  39.7491990
  59.9382835  78.2264528  24.7792281  59.3212005  77.5011356  24.6825333
  59.4699323  78.9873889  24.4359355  53.6050188  75.9996083  39.5191482
  54.3149806  75.3589276  39.4778100  53.5619496  76.2508978  40.4417663
  61.5936966  82.9363437  42.4398061  61.5349512  82.2522657  41.7728644
  61.9956485  83.6782427  41.9878687  52.3179122  72.9861301  41.3387121
  51.7816479  72.5352040  41.9908718  51.7295830  73.1207210  40.5957586
  50.6127665  89.7525351  35.2331780  50.8524263  90.3843875  35.9110799
  49.7696862  89.4013391  35.5197139  51.7281381  72.4449953  23.9013585
  50.8510847  72.3238753  23.5375832  52.2039134  71.6536031  23.6492474
  61.5954374  80.9003021  40.6712041  60.7081152  80.5628942  40.7938440
  62.1652925  80.1686052  40.9080806  43.2483521  77.2327112  33.9955092
  43.9354561  76.9188842  33.4076107  43.0931649  78.1368477  33.7222344
  48.0518243  72.1217309  38.4240116  47.9676432  71.5142978  37.6890526
  47.2300949  72.6126327  38.4249612  55.1255527  85.5604473  37.6373284
  55.0525698  86.3659444  38.1492589  54.6832920  85.7596439  36.8121305
  54.9145307  84.7976243  31.1476106  54.1312828  85.3397923  31.2414330
  55.6138052  85.3150223  31.5470347  58.2241957  70.6070872  33.7910311
  58.7210656  69.8540835  33.4711381  57.4528938  70.6435189  33.2253520
  66.0771714  76.3111238  35.4328602  66.0661590  77.1935953  35.0622536
  65.2089094  75.9582789  35.2383139  57.5854210  85.4591307  39.7931443
  58.2982183  86.0938772  39.7207344  57.0944239  85.5555173  38.9771444
  59.3071737  79.3642560  31.3648734  58.3728016  79.4844022  31.1953439
  59.4848406  78.4615026  31.1008744  54.8076925  72.7488255  33.5181996
  54.4374713  72.1959296  34.2062901  55.3036018  72.1446389  32.9656996
  62.6944289  75.2059879  31.8998768  63.1604741  76.0387871  31.8259071
  63.1451789  74.7404861  32.6044027  52.6366124  83.2085750  40.6137013
  53.3375583  83.8422233  40.7666408  52.1661239  83.5500482  39.8532653
  60.7620520  81.5503700  28.8984920  61.0380364  81.4360295  29.8078795
  59.8925019  81.1521185  28.8597094  60.6660951  67.5740466  35.9389670
  59.7524031  67.8044693  36.1071877  61.0954053  67.6578910  36.7903702
  60.4367410  75.7630358  38.4389564  59.7838860  76.0106265  37.7842017
  60.8147790  74.9494496  38.1052041  57.3974584  85.7990051  32.5417734
  57.5796978  84.9811707  33.0045486  58.2207570  86.0157743  32.1042624
  57.7316749  84.7258236  29.8032783  58.2604516  84.2150691  29.1902945
  57.9944969  84.4100766  30.6678316  56.4854983  76.5050169  44.9255601
  55.8095620  76.4044298  45.5957976  57.3082617  76.3489383  45.3891598
  48.2333842  82.7422105  37.5468116  48.8187279  81.9965793  37.6796020
  48.0358681  83.0526062  38.4304780  51.0872497  85.7773353  32.5630559
  50.4182873  86.2619481  32.0794599  50.9485367  86.0242573  33.4773937
  42.8251497  75.3127706  36.2672559  42.8635596  74.7791296  37.0609677
  42.3191790  74.7862911  35.6483536  55.2277766  87.8117096  39.1613217
  55.7796074  87.9748718  39.9262302  55.5683959  88.4021534  38.4893242
  50.2042259  70.1592246  39.7635102  50.2683586  71.0207077  39.3512499
  50.1409379  69.5466248  39.0307460  49.6794532  72.2315379  43.4108136
  50.3066570  71.8492456  44.0245660  48.8222450  72.0129581  43.7763828
  60.0788640  82.6378354  45.0161871  60.6228544  83.2508312  44.5216826
  59.4975485  83.1957932  45.5328884  46.4560074  74.0391808  29.3426491
  46.7513515  73.1302486  29.2893544  45.5548110  74.0179547  29.0207493
  58.3646153  85.7599072  36.1476899  58.2397293  84.9588812  35.6387845
  59.0225244  86.2545265  35.6590869  49.9854321  72.1147804  35.3254039
  49.2640907  72.7283772  35.1861513  50.7747577  72.6505569  35.2470685
  60.4281062  83.5608092  37.7756449  59.4811397  83.4413443  37.7034776
  60.7763835  82.6730590  37.8582711  52.7880635  69.4502231  41.5994691
  53.3115037  69.6964527  42.3621000  52.5692968  70.2822266  41.1797828
  48.1847916  71.7205906  29.4665816  47.8560622  70.8403284  29.2840922
  48.5387287  71.6653574  30.3542205  57.4327495  83.3560808  33.9760801
  57.2852457  82.4277516  34.1568371  58.2580988  83.3780899  33.4917877
  51.2989739  72.0078875  29.8341294  51.6385812  72.5364797  29.1119902
  51.7461860  72.3459281  30.6099860  61.0361617  84.1789367  35.0625674
  61.9608164  83.9732228  34.9250125  60.8676920  83.9305768  35.9715016
  53.9933180  70.3915926  39.2844362  53.6530000  69.5923739  39.6865041
  53.2872186  70.6917637  38.7121195  54.6449652  67.4765238  37.7371685
  55.4675721  67.0025717  37.6150575  54.8887715  68.2555722  38.2370371
  53.2857886  70.5053497  28.0334586  54.0066249  70.8834750  27.5298303
  52.6623190  71.2242374  28.1369564  57.4289009  71.2098646  28.9692919
  57.6452624  72.0923284  28.6681747  56.9483076  70.8184859  28.2398561
  52.1688231  74.1684359  35.5463663  52.0232811  74.4824662  36.4387945
  51.6913434  74.7869259  34.9934562  54.0284613  71.1586907  35.5944553
  54.0146182  70.2628000  35.2576851  54.7457042  71.1657571  36.2282839
  55.8810744  71.5924247  37.6397680  55.6228522  72.5141318  37.6382011
  55.3495785  71.1954682  38.3298144  60.8256933  84.6975034  30.4187766
  60.9993810  84.1321457  29.6661618  61.3185824  85.4975929  30.2367256
  46.6433893  76.7089703  38.4851324  46.0987361  77.4849511  38.6171599
  47.5213243  77.0560508  38.3270446  53.4321509  70.0401287  30.8632123
  53.5537421  69.1117934  31.0623010  53.1423552  70.0539973  29.9510438
  56.3012700  67.7256198  33.9998843  56.3234397  67.7895531  33.0450822
  56.7180759  66.8860706  34.1939349  66.6796324  77.4611457  32.0378065
  67.1227470  76.7118783  31.6397189  65.8022834  77.4521594  31.6551797
  61.8132105  84.0141799  27.5184664  62.5083010  84.6348491  27.7371979
  62.1555256  83.1637150  27.7937042  47.4299915  75.8359600  41.3781481
  46.6881651  75.9842235  41.9646112  47.1092659  76.0967865  40.5148231
  63.7123528  81.4641504  29.0471995  64.2374853  81.8028777  28.3221315
  63.6245881  80.5288520  28.8635129  55.3743577  85.3775578  41.1761871
  55.6830704  85.1324725  42.0484571  56.1719059  85.5822216  40.6880741
  55.3964189  87.5313488  33.4067248  54.9569180  87.0389866  34.1000105
  56.1472306  86.9886455  33.1659323  47.8756528  83.7225028  33.4091876
  48.7014548  83.4228800  33.0290519  47.5250580  82.9532651  33.8581665
  52.8438061  83.0751497  35.4789549  52.2218071  82.4122202  35.1791777
  53.5142928  83.1012629  34.7963197  46.0765133  81.6411355  34.3680809
  45.2397042  81.2133529  34.1864811  46.0488779  81.8343798  35.3051601
  52.9162589  71.5533285  45.0722056  52.9650744  72.4295408  44.6899825
  53.4585103  71.0110678  44.4993699  63.4017435  82.0974408  44.3523193
  62.6112978  82.0798547  43.8127692  63.1650789  82.6362702  45.1072229
  63.5215310  78.9466874  41.6655921  63.5713315  78.7816882  42.6071444
  63.4129233  78.0794133  41.2753802  52.4051568  81.6255420  28.9548010
  52.5539689  82.3090884  28.3014683  53.2118012  81.6060510  29.4697466
  60.8119072  74.9297802  42.9815228  61.7128935  74.7904267  42.6899226
  60.8867047  75.0952257  43.9213405  55.1461877  72.3064657  41.8268414
  54.2765187  72.5998223  41.5551003  55.3821358  72.8905102  42.5475678
  65.0233506  81.3663816  41.9097943  64.7318315  81.7293796  42.7461404
  64.4105638  80.6530824  41.7311275  66.2229189  78.9316696  34.4300513
  67.0576080  79.3706500  34.5938073  66.3588318  78.4555349  33.6108759
  63.2720695  76.4896430  40.3778001  63.7474816  76.6824077  39.5696852
  62.3486260  76.5455616  40.1321384  50.1604201  77.6520598  29.9609079
  49.9150243  76.7482928  30.1589289  50.3300116  77.6537748  29.0188557
  57.8500911  68.5244274  39.3433835  58.3682855  69.2605301  39.0180323
  57.4956044  68.8308267  40.1780594  49.4299849  73.3848955  27.4595240
  48.7369094  73.4593310  26.8035276  49.1851601  72.6209299  27.9816757
  58.1013505  64.9444557  34.8634731  58.3815259  64.2767746  35.4895158
  58.8864112  65.1373652  34.3509395  55.9046974  84.1203550  26.4259757
  55.3320941  84.7393738  25.9730229  56.4779768  84.6702912  26.9599679
  61.9722364  73.3662191  38.6106306  62.9239787  73.4660288  38.6318530
  61.8025814  72.5740459  39.1204391  59.9936743  70.4517774  38.7965707
  59.3986675  70.7322787  38.1012196  59.7086440  70.9411675  39.5682448
  59.1244234  84.4040701  27.5568340  60.0574907  84.3386262  27.7601215
  59.0367446  85.2396967  27.0982872  61.7532250  83.7206571  24.5172287
  61.6745882  83.3866435  25.4108045  62.5741917  84.2128339  24.5163760
  64.4510441  76.5868310  37.7248606  64.4186762  75.6484311  37.9108290
  65.0611065  76.6652347  36.9914431  56.2893772  75.4564363  23.7675810
  57.2352877  75.3270571  23.8364228  55.9108017  74.7179025  24.2445238
  64.6004930  73.3779354  37.7706889  64.0843979  72.5937810  37.5836818
  65.4844878  73.0498070  37.9353409  62.2615657  67.1220369  33.7302702
  62.0640478  66.8135457  34.6146034  62.8715362  67.8482008  33.8600632
  70.2686991  77.6484317  36.8654643  70.9990380  77.3869605  37.4262346
  69.6593937  76.9113039  36.9056711  68.3502288  75.7892180  37.4629094
  67.6235452  75.6548145  36.8545585  67.9349575  76.0969008  38.2685812
  56.1732465  79.5082109  45.2276467  57.0935474  79.6860708  45.4216513
  56.1382048  78.5638155  45.0756166  54.4736689  73.3814340  23.7030695
  53.5668145  73.0847452  23.7793409  54.7512670  73.0844158  22.8364981
  45.3914630  74.7020703  34.1529742  45.0717414  73.8486011  33.8604116
  44.8448058  74.9169281  34.9087709  49.1694537  77.4183144  37.8699248
  49.3880547  78.3500252  37.8887282  49.5820311  77.0591118  38.6554052
  56.0898755  67.9251229  29.8574936  55.2799484  67.5798314  30.2330183
  56.7783172  67.6158773  30.4462548  58.0189303  67.0029276  31.4799233
  58.5720342  67.4224730  32.1389256  58.2559390  66.0765024  31.5222189
  54.0422403  72.9916350  47.2601997  53.9419130  73.9410707  47.1914088
  53.8243945  72.6634589  46.3878067  53.2435474  70.2401275  23.8442674
  54.1054638  70.5656173  24.1038492  53.4285818  69.4532771  23.3315740
  45.2602890  78.3223615  36.1222863  44.5666361  77.9077567  35.6092818
  46.0075881  78.3644151  35.5256282  61.3968111  69.1129801  30.9877897
  60.8166780  69.7714605  30.6055950  61.1304043  68.2907146  30.5765315
  59.8471677  68.5134859  33.1899218  60.3471455  68.6251394  32.3813537
  60.4907285  68.2095912  33.8300026  53.9053673  76.4213489  46.0767059
  53.4220754  77.2213849  46.2830948  53.9914612  76.4321434  45.1234503
  47.1739632  78.2541868  33.9988878  47.1510321  78.3529556  33.0470761
  47.4840269  79.1007019  34.3206044  49.8327010  80.3118023  38.1135492
  50.7870264  80.2801966  38.0465424  49.6339534  79.8508647  38.9285718
  50.4226392  78.8819139  40.6806290  51.2419281  79.3763218  40.7041127
  50.6963200  77.9651108  40.6523858  60.1792989  71.2729892  30.0434246
  59.2918844  71.5579542  29.8254440  60.5946978  71.1123655  29.1961523
  63.5307525  71.2976413  33.7588585  64.3067915  71.7872865  34.0313202
  62.8055659  71.7234467  34.2160454  65.9680083  72.0104032  34.8162526
  66.5624574  71.7699768  34.1055834  66.0406667  71.2911162  35.4436062
  48.1877239  85.8537643  35.1305690  48.0531707  85.0938044  34.5643688
  47.7709301  86.5778543  34.6634479  59.3236202  81.0374566  24.1382266
  60.0272052  81.2424569  24.7539921  58.5998851  81.6051328  24.4031349
  60.1534012  76.7884428  30.2584536  60.0969214  77.2452979  29.4192168
  60.7062355  76.0275112  30.0807379  63.9638818  72.5774159  31.0834655
  63.7075752  72.1770795  31.9142863  63.3391686  73.2917953  30.9584794
  68.2751156  75.3170233  33.5905947  67.7150714  75.3863422  34.3637509
  67.6694659  75.1411217  32.8705443  51.3446365  86.7506960  35.3424133
  51.2278749  87.6952392  35.2402823  50.5238811  86.4480521  35.7309932
  61.2322899  81.4757096  26.1880726  62.0668503  81.0438294  26.0058200
  61.0707242  81.3039109  27.1157620  60.8868792  77.9789209  27.5537065
  60.8317595  77.8133480  26.6125509  60.2614847  78.6865242  27.7099255
  45.6761307  73.2157273  41.3798487  46.3220170  72.7056227  41.8685712
  45.4678458  73.9525955  41.9541912  58.2014699  80.2838121  46.8790628
  59.0705858  80.4578773  46.5177263  57.7221450  81.1032538  46.7566357
  54.1964917  67.4797318  27.1322383  54.1843587  68.4239158  27.2890654
  55.0888339  67.2967463  26.8381845  52.3700879  87.4035222  38.5580061
  53.2728126  87.4358832  38.8746556  52.1438249  86.4735673  38.5726397
  54.1254481  86.1566208  35.2190140  53.1750112  86.1568070  35.1054512
  54.4286967  85.4098943  34.7026175  58.0117037  64.0740095  31.3868320
  57.2449432  63.5198581  31.5325003  58.4227742  64.1461963  32.2482472
  50.0158798  70.3624890  45.4773501  50.8790259  70.0061695  45.6876826
  49.4424208  70.0238785  46.1648906  69.8607175  91.9926747  36.2835902
  70.4985585  91.8733494  35.5799242  69.7428017  92.9407591  36.3423855
  66.6696881  91.9454175  36.2197427  66.3315392  91.8295239  35.3317962
  67.5386649  91.5445340  36.1998433  62.5283697  93.7989651  32.2094318
  61.9648562  93.7079588  31.4410606  62.4136092  92.9789556  32.6896811
  67.1516664  93.0989027  42.1783633  67.1405305  92.7041825  41.3064136
  67.3137303  92.3655099  42.7717404  60.0748128  95.2940843  35.0478539
  60.8669420  94.9531667  34.6324838  60.3144779  95.4035818  35.9680692
  68.1083255  97.4660619  27.5208783  67.4571235  98.0514699  27.1342797
  68.9027618  97.9966814  27.5803820  62.0338882  94.5549756  27.9195917
  62.8069758  94.0078743  27.7808793  62.3864281  95.4194005  28.1310379
  63.8723925  95.8826138  41.1262817  63.5813791  96.7871769  41.0109483
  64.5080909  95.9242666  41.8406886  64.7980132  93.2602987  37.7164176
  65.3943704  93.0359009  37.0021139  64.8555103  92.5187732  38.3189624
  64.3705160  90.7142422  25.5514367  64.6230681  90.1923943  24.7897830
  63.4329719  90.5508568  25.6541051  69.4148443  89.7178201  33.3589110
  70.2011532  89.2997624  33.0079527  69.6787147  90.6224293  33.5270759
  69.5858520  95.1551051  28.0577767  68.9504353  95.2285677  28.7698672
  69.2555927  95.7444650  27.3796847  74.8156870  89.6553434  34.2622089
  75.5482042  89.0852651  34.4959918  74.0596226  89.2675034  34.7028595
  64.0901449  92.6170528  27.7538742  63.9737707  91.9415432  28.4219826
  64.2003709  92.1302902  26.9370895  66.4332990  92.0780675  31.4585431
  66.0691197  91.5511296  32.1698353  67.2900106  91.6879144  31.2851917
  72.3382291  83.3675008  38.7216698  72.0065615  84.2370419  38.4977913
  71.7427904  83.0511292  39.4010728  66.0738477  87.1070575  26.4546780
  66.2412879  87.9750811  26.8217251  65.8835646  87.2697857  25.5308069
  68.8313810  95.5687554  38.1212610  68.5314533  96.4712593  38.0128418
  68.4864870  95.3019737  38.9733763  62.2826292  92.0201351  34.1549315
  61.3576788  91.8877565  34.3627006  62.5310705  92.7995570  34.6519257
  72.2310954  88.0870094  35.8010048  71.3227831  88.0185502  35.5068809
  72.1798550  88.5642039  36.6291873  66.0527698  89.5628232  27.4393447
  65.9327323  90.0085283  28.2778927  65.3580286  89.9113550  26.8806985
  59.6435103  91.6634624  34.9893104  59.7727484  91.9169103  35.9032516
  58.9632554  92.2562332  34.6697759  63.8134590 102.3331874  31.0883578
  63.7358620 103.2839699  31.1672059  63.2096233 101.9877747  31.7458504
  66.3051820  89.5059740  43.7444945  65.5285154  90.0653660  43.7347810
  66.9442383  89.9916523  44.2659815  74.0972600  86.2886532  37.5787922
  73.4546980  86.5819066  36.9327716  73.5927529  86.1739453  38.3841118
  71.7512764  90.0349706  28.2673781  72.6630620  90.2677092  28.0921478
  71.2422411  90.6186750  27.7048859  64.5598192  92.3145193  43.3062912
  65.3012876  92.8530237  43.0297736  63.8535177  92.9411482  43.4634464
  70.0353532  94.4574333  41.9035073  70.4436888  94.0156744  41.1589706
  69.3130793  93.8826961  42.1569266  66.3884602  89.3946940  39.2768630
  67.2345797  89.8186354  39.4203279  66.3283239  88.7380565  39.9707193
  70.3582346  95.0175524  35.6587362  69.7291209  95.1821238  34.9563430
  69.9708008  95.4317134  36.4298326  74.2371578  95.9529962  33.0131726
  73.5522616  96.3328863  32.4628759  74.3215427  96.5625289  33.7463674
  69.5384047  87.0551309  40.9349804  69.2944979  87.8093369  40.3984080
  69.8143977  87.4336656  41.7697051  71.4922510  93.5989921  39.6127070
  71.7039405  94.2421681  38.9361451  71.4452258  92.7652237  39.1449000
  69.0948739  86.2107742  36.5163642  68.2333218  86.5088995  36.8080379
  69.1211173  86.4278140  35.5844674  65.9110308  94.7549932  32.9237447
  66.3748654  95.0337635  32.1342070  65.6467106  93.8533377  32.7410538
  62.8034389  94.3021414  35.8617211  63.3735746  94.7308682  35.2234695
  63.3942501  94.0203998  36.5601396  64.8479194  90.8773085  29.7327013
  65.5503237  91.3294128  30.2000939  64.5159823  90.2356903  30.3606906
  63.2959556  89.4684841  44.1078222  62.6658216  90.1501122  44.3413619
  63.1895644  89.3567923  43.1631360  58.5904528  89.1356637  35.0344146
  57.8003582  89.3914166  34.5584257  59.0815775  89.9504975  35.1396187
  72.6068338  96.4761876  37.7849427  73.4285781  96.0742064  37.5032109
  72.6030741  96.3730111  38.7365543  60.5419273  89.5001216  31.9927623
  59.7450437  89.6119911  32.5111118  60.3144866  89.8387869  31.1268513
  66.3724941  96.0245920  39.9410137  66.4369374  96.4866327  40.7768309
  65.6635865  95.3943285  40.0692447  56.8742231  89.3887128  37.4659137
  57.1250270  90.2734138  37.7316713  57.4101779  89.2091729  36.6934229
  80.6974331  92.8200625  34.1334398  79.9438039  92.2508023  33.9778403
  80.8321872  92.7863289  35.0805033  66.0872959  97.6914027  29.8089118
  65.9518634  98.5365563  30.2373966  66.6282771  97.8933305  29.0455052
  62.5740298  83.7705607  46.4703473  62.1807244  83.2171806  47.1451117
  63.3906439  84.0816185  46.8609990  59.5402356  95.2089465  30.3817043
  60.0526877  96.0032715  30.5322607  60.1925069  94.5115756  30.3150644
  61.3497241  98.3255221  32.4639796  61.5263869  99.2473186  32.2760780
  62.1454074  98.0113641  32.8934176  65.4908259  85.1863486  44.0623730
  66.2317973  85.7870639  43.9828192  65.7226182  84.4441124  43.5041772
  60.6349597  90.3719853  42.3401959  60.5203113  89.4705111  42.6409058
  59.7794115  90.6183550  41.9886776  67.7141435  98.3137594  43.9389460
  67.2705289  97.5273972  43.6210364  68.3758649  98.5016744  43.2733351
  62.4728556  99.8433395  38.4650138  63.0235981  99.7150459  37.6927132
  61.6340032 100.1428284  38.1145031  69.8122673  98.5940394  41.9670861
  69.7941149  99.4149275  41.4751130  70.7342593  98.4694469  42.1921002
  66.2695727  96.1084523  42.8094369  66.8024064  95.3472811  42.5793677
  65.7409808  95.8158175  43.5518524  69.4365422  81.2144589  38.3388011
  69.0929692  82.1046231  38.2627122  69.8044385  81.0246247  37.4757596
  57.5051273  93.5378119  31.1576613  58.3426495  93.9475128  30.9410321
  57.6829541  92.5977562  31.1276807  69.4015705  91.2053200  26.8460446
  68.8862328  91.9757805  27.0848834  69.1293014  90.5318336  27.4693508
  66.9862816  86.0502901  31.9045685  66.1304412  85.6609751  31.7251323
  67.3989768  86.1294862  31.0445470  68.5161963  83.5849244  36.3037244
  68.0126758  83.5479379  35.4905050  68.8092570  84.4941987  36.3633901
  64.7604849  83.6687974  35.3103426  65.6257845  83.4730783  34.9509316
  64.8282358  83.4398326  36.2372783  74.3749979  93.9585555  28.7813620
  73.5979422  93.6196714  28.3368782  75.0541460  93.9638178  28.1068585
  69.1902008  89.0780292  28.6720227  68.8852144  89.3926441  29.5230371
  70.1432450  89.1561712  28.7147560  67.6348440  95.2370516  30.3213181
  67.1069802  94.5023275  30.0086419  67.1335943  96.0145192  30.0753150
  72.6141286  93.4319536  35.4380228  71.9564961  94.1218797  35.5260356
  73.4181685  93.8215968  35.7814214  62.3667168  85.8990182  32.6819793
  62.9410920  85.6765363  31.9492986  62.9538150  85.9678876  33.4348394
  71.4246745  91.7863909  33.4884170  71.9378627  92.4193901  33.9905879
  72.0747969  91.1865104  33.1227530  62.6936755  87.9294643  26.7015678
  61.8574067  88.2669329  27.0224953  62.5541524  87.7943623  25.7642815
  64.6689835  82.7731431  31.4094862  64.0154248  82.4580448  30.7851477
  64.6270310  82.1507171  32.1354685  65.7801040  93.0550726  23.3248154
  64.8728102  92.8239979  23.5239303  66.2772072  92.2588345  23.5122136
  68.6869119 101.7648233  26.2444841  68.0130818 102.0679930  26.8529798
  69.0734941 102.5677313  25.8950298  67.9027576  89.2613364  35.7342510
  66.9850137  89.4828311  35.5764198  68.3187719  89.3359675  34.8754217
  68.6862624  90.6604780  30.8645190  69.4334442  91.1726177  30.5552312
  68.9554213  90.3388833  31.7249584  66.9589274  93.1563321  27.8472145
  66.0500493  92.8722353  27.9444614  66.9884358  93.5762399  26.9875451
  72.1908541  96.7669910  31.6163312  71.7370868  95.9260820  31.6728503
  71.5602508  97.4031309  31.9538092  71.1341461  87.6961896  32.8463980
  70.3964217  87.1839282  33.1774222  71.3868234  87.2562278  32.0347256
  70.6341480  98.6046407  32.5513130  70.9264455  99.1651464  31.8325496
  71.1440101  98.8974968  33.3066289  71.2353088  80.4738148  33.4405749
  71.5411965  79.6135512  33.1531664  71.9605693  81.0655768  33.2404743
  57.5277444  90.8768835  31.8287347  57.3301844  90.2838195  31.1038413
  56.9724108  90.5721045  32.5463286  65.5074168  90.7691941  33.9481940
  65.5622778  89.8165778  33.8724417  64.6965370  90.9251380  34.4323238
  66.6565362  94.6972064  25.1860223  66.2184791  93.9807923  24.7265861
  67.3975802  94.9248179  24.6245315  63.4466528  89.3869001  31.7072319
  62.6334393  89.6863172  32.1137511  63.9425522  88.9924690  32.4246801
  65.5975106  99.3826758  33.6406583  65.5551284  99.6087604  32.7115116
  66.5137804  99.1490133  33.7892385  69.0440739  89.8510825  40.5387213
  69.3990127  90.0782299  41.3981678  69.6912871  90.1829202  39.9164468
  74.7738476  92.9729261  31.2436542  74.6356375  93.1630857  30.3157731
  74.4174695  93.7348644  31.7004593  62.9380602  86.9587357  37.3233554
  63.5779982  86.8176116  36.6256517  62.1058133  86.6721870  36.9472156
  74.8007856  95.0405788  36.2547813  75.2344363  94.9481077  37.1030867
  75.5139437  95.0163289  35.6167829  63.7140906  96.2589787  33.4368546
  64.5081505  95.7640107  33.2351121  63.0032599  95.7307650  33.0736252
  68.5335751  98.6407882  37.7880914  68.5872773  99.2098819  38.5558630
  67.6650532  98.8109768  37.4234951  60.0223670  90.4032869  29.5128299
  59.0921258  90.3417324  29.7298261  60.1181142  89.8808821  28.7164940
  59.9409219  86.9287682  32.1006541  60.2016036  87.8433015  31.9915701
  60.7626391  86.4612124  32.2503153  61.4134144  88.3425439  39.2705365
  62.0857198  88.1342801  38.6218014  60.5863931  88.1447525  38.8310597
  75.6623405  95.0829489  38.7880699  75.8559296  95.9875300  39.0339974
  75.5624024  94.6236908  39.6219284  67.3159716  84.9687380  41.2871026
  66.6687631  85.6677329  41.1935502  68.0860732  85.4023524  41.6547274
  70.7238514  95.2336232  44.3621579  70.5724021  95.0046783  43.4451663
  70.7143194  96.1906833  44.3752924  67.4923851  92.8068145  39.3467846
  68.4215911  92.9579304  39.1736813  67.0714881  92.8952165  38.4916492
  66.2912182  96.8318809  37.1166383  66.1523268  96.4637593  37.9892321
  65.5026779  97.3466448  36.9450341  66.8860334 101.9327905  28.4591920
  67.0612090 101.4615949  29.2737543  66.1993122 102.5593672  28.6873181
  67.8417397  96.2100412  34.5055221  67.5067230  96.1701182  35.4012871
  67.3421343  95.5445128  34.0325631  61.8161641  91.6168042  40.0307802
  61.6781439  90.8848280  40.6319341  62.7266565  91.5276942  39.7491990
  70.7776589  93.5556446  24.7792281  70.1605760  92.8303274  24.6825333
  70.3093078  94.3165806  24.4359355  64.4443942  91.3288001  39.5191482
  65.1543561  90.6881193  39.4778100  64.4013250  91.5800896  40.4417663
  72.4330721  98.2655354  42.4398061  72.3743267  97.5814574  41.7728644
  72.8350239  99.0074344  41.9878687  63.1572876  88.3153219  41.3387121
  62.6210233  87.8643957  41.9908718  62.5689585  88.4499128  40.5957586
  61.4521420 105.0817268  35.2331780  61.6918018 105.7135792  35.9110799
  60.6090616 104.7305308  35.5197139  62.5675135  87.7741870  23.9013585
  61.6904601  87.6530671  23.5375832  63.0432888  86.9827949  23.6492474
  72.4348128  96.2294938  40.6712041  71.5474907  95.8920860  40.7938440
  73.0046679  95.4977970  40.9080806  54.0877275  92.5619030  33.9955092
  54.7748315  92.2480760  33.4076107  53.9325404  93.4660395  33.7222344
  58.8911997  87.4509227  38.4240116  58.8070186  86.8434896  37.6890526
  58.0694704  87.9418245  38.4249612  65.9649281 100.8896391  37.6373284
  65.8919453 101.6951362  38.1492589  65.5226675 101.0888356  36.8121305
  65.7539061 100.1268161  31.1476106  64.9706583 100.6689841  31.2414330
  66.4531806 100.6442140  31.5470347  69.0635711  85.9362790  33.7910311
  69.5604411  85.1832752  33.4711381  68.2922693  85.9727107  33.2253520
  76.9165469  91.6403156  35.4328602  76.9055345  92.5227871  35.0622536
  76.0482848  91.2874706  35.2383139  68.4247965 100.7883225  39.7931443
  69.1375937 101.4230689  39.7207344  67.9337994 100.8847091  38.9771444
  70.1465492  94.6934477  31.3648734  69.2121771  94.8135940  31.1953439
  70.3242160  93.7906944  31.1008744  65.6470680  88.0780173  33.5181996
  65.2768467  87.5251213  34.2062901  66.1429772  87.4738307  32.9656996
  73.5338043  90.5351797  31.8998768  73.9998495  91.3679788  31.8259071
  73.9845544  90.0696778  32.6044027  63.4759878  98.5377668  40.6137013
  64.1769338  99.1714151  40.7666408  63.0054993  98.8792400  39.8532653
  71.6014274  96.8795618  28.8984920  71.8774118  96.7652212  29.8078795
  70.7318773  96.4813103  28.8597094  71.5054706  82.9032384  35.9389670
  70.5917786  83.1336610  36.1071877  71.9347807  82.9870828  36.7903702
  71.2761164  91.0922276  38.4389564  70.6232615  91.3398183  37.7842017
  71.6541544  90.2786414  38.1052041  68.2368338 101.1281969  32.5417734
  68.4190733 100.3103625  33.0045486  69.0601324 101.3449661  32.1042624
  68.5710504 100.0550154  29.8032783  69.0998270  99.5442608  29.1902945
  68.8338723  99.7392684  30.6678316  67.3248737  91.8342087  44.9255601
  66.6489375  91.7336216  45.5957976  68.1476371  91.6781300  45.3891598
  59.0727597  98.0714023  37.5468116  59.6581033  97.3257711  37.6796020
  58.8752435  98.3817980  38.4304780  61.9266252 101.1065271  32.5630559
  61.2576627 101.5911398  32.0794599  61.7879121 101.3534491  33.4773937
  53.6645251  90.6419623  36.2672559  53.7029351  90.1083214  37.0609677
  53.1585544  90.1154829  35.6483536  66.0671520 103.1409014  39.1613217
  66.6189828 103.3040636  39.9262302  66.4077714 103.7313452  38.4893242
  61.0436014  85.4884164  39.7635102  61.1077340  86.3498995  39.3512499
  60.9803134  84.8758166  39.0307460  60.5188286  87.5607296  43.4108136
  61.1460325  87.1784374  44.0245660  59.6616205  87.3421498  43.7763828
  70.9182395  97.9670272  45.0161871  71.4622299  98.5800230  44.5216826
  70.3369240  98.5249850  45.5328884  57.2953829  89.3683726  29.3426491
  57.5907270  88.4594404  29.2893544  56.3941865  89.3471465  29.0207493
  69.2039908 101.0890990  36.1476899  69.0791047 100.2880729  35.6387845
  69.8618999 101.5837183  35.6590869  60.8248076  87.4439722  35.3254039
  60.1034662  88.0575690  35.1861513  61.6141332  87.9797487  35.2470685
  71.2674816  98.8900010  37.7756449  70.3205152  98.7705361  37.7034776
  71.6157589  98.0022508  37.8582711  63.6274389  84.7794149  41.5994691
  64.1508791  85.0256445  42.3621000  63.4086723  85.6114183  41.1797828
  59.0241670  87.0497823  29.4665816  58.6954377  86.1695202  29.2840922
  59.3781041  86.9945492  30.3542205  68.2721249  98.6852726  33.9760801
  68.1246212  97.7569433  34.1568371  69.0974743  98.7072817  33.4917877
  62.1383494  87.3370793  29.8341294  62.4779566  87.8656714  29.1119902
  62.5855614  87.6751199  30.6099860  71.8755371  99.5081285  35.0625674
  72.8001919  99.3024146  34.9250125  71.7070675  99.2597686  35.9715016
  64.8326934  85.7207844  39.2844362  64.4923755  84.9215657  39.6865041
  64.1265941  86.0209555  38.7121195  65.4843406  82.8057156  37.7371685
  66.3069476  82.3317634  37.6150575  65.7281470  83.5847640  38.2370371
  64.1251641  85.8345415  28.0334586  64.8460003  86.2126667  27.5298303
  63.5016945  86.5534291  28.1369564  68.2682764  86.5390564  28.9692919
  68.4846378  87.4215201  28.6681747  67.7876831  86.1476777  28.2398561
  63.0081985  89.4976277  35.5463663  62.8626566  89.8116580  36.4387945
  62.5307189  90.1161177  34.9934562  64.8678368  86.4878825  35.5944553
  64.8539937  85.5919918  35.2576851  65.5850796  86.4949489  36.2282839
  66.7204499  86.9216165  37.6397680  66.4622276  87.8433236  37.6382011
  66.1889539  86.5246599  38.3298144  71.6650687 100.0266952  30.4187766
  71.8387565  99.4613375  29.6661618  72.1579579 100.8267847  30.2367256
  57.4827647  92.0381621  38.4851324  56.9381115  92.8141429  38.6171599
  58.3606997  92.3852426  38.3270446  64.2715264  85.3693205  30.8632123
  64.3931175  84.4409851  31.0623010  63.9817306  85.3831891  29.9510438
  67.1406454  83.0548115  33.9998843  67.1628151  83.1187449  33.0450822
  67.5574513  82.2152624  34.1939349  77.5190079  92.7903375  32.0378065
  77.9621225  92.0410700  31.6397189  76.6416589  92.7813511  31.6551797
  72.6525860  99.3433716  27.5184664  73.3476764  99.9640409  27.7371979
  72.9949010  98.4929068  27.7937042  58.2693669  91.1651517  41.3781481
  57.5275405  91.3134153  41.9646112  57.9486413  91.4259783  40.5148231
  74.5517283  96.7933422  29.0471995  75.0768607  97.1320695  28.3221315
  74.4639636  95.8580437  28.8635129  66.2137332 100.7067496  41.1761871
  66.5224458 100.4616642  42.0484571  67.0112814 100.9114134  40.6880741
  66.2357944 102.8605405  33.4067248  65.7962934 102.3681784  34.1000105
  66.9866061 102.3178373  33.1659323  58.7150283  99.0516946  33.4091876
  59.5408303  98.7520718  33.0290519  58.3644335  98.2824569  33.8581665
  63.6831816  98.4043414  35.4789549  63.0611825  97.7414119  35.1791777
  64.3536683  98.4304546  34.7963197  56.9158888  96.9703273  34.3680809
  56.0790796  96.5425447  34.1864811  56.8882533  97.1635716  35.3051601
  63.7556343  86.8825202  45.0722056  63.8044499  87.7587325  44.6899825
  64.2978858  86.3402595  44.4993699  74.2411189  97.4266326  44.3523193
  73.4506733  97.4090465  43.8127692  74.0044544  97.9654619  45.1072229
  74.3609064  94.2758792  41.6655921  74.4107069  94.1108799  42.6071444
  74.2522987  93.4086051  41.2753802  63.2445323  96.9547338  28.9548010
  63.3933443  97.6382802  28.3014683  64.0511766  96.9352428  29.4697466
  71.6512826  90.2589720  42.9815228  72.5522689  90.1196185  42.6899226
  71.7260801  90.4244175  43.9213405  65.9855632  87.6356575  41.8268414
  65.1158941  87.9290141  41.5551003  66.2215112  88.2197020  42.5475678
  75.8627261  96.6955734  41.9097943  75.5712069  97.0585714  42.7461404
  75.2499392  95.9822742  41.7311275  77.0622943  94.2608613  34.4300513
  77.8969835  94.6998417  34.5938073  77.1982072  93.7847267  33.6108759
  74.1114449  91.8188348  40.3778001  74.5868571  92.0115994  39.5696852
  73.1880015  91.8747534  40.1321384  60.9997956  92.9812515  29.9609079
  60.7543998  92.0774845  30.1589289  61.1693870  92.9829666  29.0188557
  68.6894666  83.8536192  39.3433835  69.2076610  84.5897219  39.0180323
  68.3349798  84.1600185  40.1780594  60.2693603  88.7140873  27.4595240
  59.5762848  88.7885228  26.8035276  60.0245355  87.9501217  27.9816757
  68.9407260  80.2736474  34.8634731  69.2209014  79.6059663  35.4895158
  69.7257867  80.4665570  34.3509395  66.7440728  99.4495468  26.4259757
  66.1714695 100.0685655  25.9730229  67.3173522  99.9994830  26.9599679
  72.8116118  88.6954108  38.6106306  73.7633541  88.7952206  38.6318530
  72.6419569  87.9032377  39.1204391  70.8330498  85.7809691  38.7965707
  70.2380430  86.0614704  38.1012196  70.5480194  86.2703592  39.5682448
  69.9637988  99.7332618  27.5568340  70.8968661  99.6678180  27.7601215
  69.8761201 100.5688885  27.0982872  72.5926005  99.0498489  24.5172287
  72.5139636  98.7158352  25.4108045  73.4135672  99.5420257  24.5163760
  75.2904196  91.9160228  37.7248606  75.2580516  90.9776229  37.9108290
  75.9004820  91.9944265  36.9914431  67.1287527  90.7856281  23.7675810
  68.0746632  90.6562489  23.8364228  66.7501772  90.0470943  24.2445238
  75.4398684  88.7071271  37.7706889  74.9237733  87.9229728  37.5836818
  76.3238633  88.3789988  37.9353409  73.1009411  82.4512287  33.7302702
  72.9034232  82.1427375  34.6146034  73.7109117  83.1773926  33.8600632
  81.1080746  92.9776235  36.8654643  81.8384134  92.7161523  37.4262346
  80.4987691  92.2404957  36.9056711  79.1896043  91.1184097  37.4629094
  78.4629207  90.9840062  36.8545585  78.7743330  91.4260926  38.2685812
  67.0126219  94.8374027  45.2276467  67.9329229  95.0152626  45.4216513
  66.9775802  93.8930072  45.0756166  65.3130444  88.7106257  23.7030695
  64.4061899  88.4139370  23.7793409  65.5906425  88.4136075  22.8364981
  56.2308384  90.0312621  34.1529742  55.9111169  89.1777929  33.8604116
  55.6841813  90.2461199  34.9087709  60.0088292  92.7475062  37.8699248
  60.2274302  93.6792170  37.8887282  60.4214066  92.3883036  38.6554052
  66.9292510  83.2543147  29.8574936  66.1193238  82.9090232  30.2330183
  67.6176927  82.9450691  30.4462548  68.8583058  82.3321194  31.4799233
  69.4114097  82.7516647  32.1389256  69.0953144  81.4056942  31.5222189
  64.8816157  88.3208267  47.2601997  64.7812884  89.2702624  47.1914088
  64.6637699  87.9926506  46.3878067  64.0829229  85.5693193  23.8442674
  64.9448393  85.8948091  24.1038492  64.2679573  84.7824688  23.3315740
  56.0996644  93.6515532  36.1222863  55.4060116  93.2369485  35.6092818
  56.8469635  93.6936069  35.5256282  72.2361865  84.4421719  30.9877897
  71.6560534  85.1006523  30.6055950  71.9697798  83.6199064  30.5765315
  70.6865431  83.8426777  33.1899218  71.1865210  83.9543311  32.3813537
  71.3301039  83.5387830  33.8300026  64.7447427  91.7505406  46.0767059
  64.2614509  92.5505766  46.2830948  64.8308366  91.7613351  45.1234503
  58.0133387  93.5833786  33.9988878  57.9904075  93.6821473  33.0470761
  58.3234023  94.4298937  34.3206044  60.6720765  95.6409941  38.1135492
  61.6264018  95.6093883  38.0465424  60.4733288  95.1800565  38.9285718
  61.2620147  94.2111057  40.6806290  62.0813036  94.7055136  40.7041127
  61.5356955  93.2943025  40.6523858  71.0186743  86.6021809  30.0434246
  70.1312598  86.8871460  29.8254440  71.4340732  86.4415573  29.1961523
  74.3701279  86.6268330  33.7588585  75.1461669  87.1164783  34.0313202
  73.6449413  87.0526385  34.2160454  76.8073838  87.3395950  34.8162526
  77.4018329  87.0991686  34.1055834  76.8800422  86.6203080  35.4436062
  59.0270994 101.1829561  35.1305690  58.8925461 100.4229961  34.5643688
  58.6103056 101.9070460  34.6634479  70.1629957  96.3666484  24.1382266
  70.8665807  96.5716487  24.7539921  69.4392605  96.9343246  24.4031349
  70.9927767  92.1176345  30.2584536  70.9362968  92.5744897  29.4192168
  71.5456109  91.3567030  30.0807379  74.8032573  87.9066077  31.0834655
  74.5469507  87.5062713  31.9142863  74.1785441  88.6209871  30.9584794
  79.1144911  90.6462150  33.5905947  78.5544469  90.7155340  34.3637509
  78.5088414  90.4703135  32.8705443  62.1840119 102.0798878  35.3424133
  62.0672504 103.0244310  35.2402823  61.3632566 101.7772439  35.7309932
  72.0716654  96.8049013  26.1880726  72.9062258  96.3730212  26.0058200
  71.9100997  96.6331027  27.1157620  71.7262546  93.3081127  27.5537065
  71.6711350  93.1425398  26.6125509  71.1008601  94.0157159  27.7099255
  56.5155061  88.5449191  41.3798487  57.1613925  88.0348145  41.8685712
  56.3072212  89.2817873  41.9541912  69.0408453  95.6130038  46.8790628
  69.9099613  95.7870691  46.5177263  68.5615205  96.4324455  46.7566357
  65.0358672  82.8089236  27.1322383  65.0237341  83.7531075  27.2890654
  65.9282093  82.6259381  26.8381845  63.2094634 102.7327139  38.5580061
  64.1121880 102.7650750  38.8746556  62.9832004 101.8027590  38.5726397
  64.9648236 101.4858126  35.2190140  64.0143867 101.4859988  35.1054512
  65.2680722 100.7390861  34.7026175  68.8510791  79.4032012  31.3868320
  68.0843187  78.8490499  31.5325003  69.2621496  79.4753881  32.2482472
  60.8552552  85.6916808  45.4773501  61.7184014  85.3353613  45.6876826
  60.2817963  85.3530703  46.1648906  80.7000929 107.3218664  36.2835902
  81.3379339 107.2025412  35.5799242  80.5821772 108.2699508  36.3423855
  77.5090635 107.2746092  36.2197427  77.1709147 107.1587157  35.3317962
  78.3780404 106.8737258  36.1998433  73.3677451 109.1281569  32.2094318
  72.8042316 109.0371506  31.4410606  73.2529846 108.3081473  32.6896811
  77.9910418 108.4280944  42.1783633  77.9799059 108.0333742  41.3064136
  78.1531058 107.6947017  42.7717404  70.9141883 110.6232760  35.0478539
  71.7063175 110.2823585  34.6324838  71.1538533 110.7327736  35.9680692
  78.9477010 112.7952537  27.5208783  78.2964990 113.3806617  27.1342797
  79.7421373 113.3258731  27.5803820  72.8732637 109.8841674  27.9195917
  73.6463513 109.3370661  27.7808793  73.2258036 110.7485923  28.1310379
  74.7117679 111.2118056  41.1262817  74.4207545 112.1163687  41.0109483
  75.3474664 111.2534584  41.8406886  75.6373886 108.5894905  37.7164176
  76.2337459 108.3650927  37.0021139  75.6948858 107.8479650  38.3189624
  75.2098915 106.0434340  25.5514367  75.4624435 105.5215861  24.7897830
  74.2723474 105.8800485  25.6541051  80.2542198 105.0470118  33.3589110
  81.0405287 104.6289541  33.0079527  80.5180902 105.9516210  33.5270759
  80.4252275 110.4842969  28.0577767  79.7898108 110.5577595  28.7698672
  80.0949681 111.0736567  27.3796847  85.6550625 104.9845351  34.2622089
  86.3875797 104.4144568  34.4959918  84.8989980 104.5966952  34.7028595
  74.9295203 107.9462446  27.7538742  74.8131462 107.2707349  28.4219826
  75.0397463 107.4594820  26.9370895  77.2726744 107.4072593  31.4585431
  76.9084952 106.8803214  32.1698353  78.1293860 107.0171062  31.2851917
  83.1776045  98.6966926  38.7216698  82.8459370  99.5662336  38.4977913
  82.5821658  98.3803210  39.4010728  76.9132231 102.4362493  26.4546780
  77.0806634 103.3042729  26.8217251  76.7229400 102.5989774  25.5308069
  79.6707565 110.8979472  38.1212610  79.3708288 111.8004510  38.0128418
  79.3258624 110.6311655  38.9733763  73.1220046 107.3493268  34.1549315
  72.1970543 107.2169482  34.3627006  73.3704459 108.1287488  34.6519257
  83.0704708 103.4162012  35.8010048  82.1621586 103.3477420  35.5068809
  83.0192304 103.8933957  36.6291873  76.8921452 104.8920150  27.4393447
  76.7721077 105.3377201  28.2778927  76.1974041 105.2405468  26.8806985
  70.4828857 106.9926542  34.9893104  70.6121238 107.2461021  35.9032516
  69.8026308 107.5854250  34.6697759  74.6528344 117.6623792  31.0883578
  74.5752374 118.6131617  31.1672059  74.0489988 117.3169664  31.7458504
  77.1445574 104.8351657  43.7444945  76.3678908 105.3945577  43.7347810
  77.7836137 105.3208440  44.2659815  84.9366355 101.6178450  37.5787922
  84.2940735 101.9110983  36.9327716  84.4321283 101.5031370  38.3841118
  82.5906518 105.3641623  28.2673781  83.5024375 105.5969010  28.0921478
  82.0816165 105.9478667  27.7048859  75.3991946 107.6437111  43.3062912
  76.1406631 108.1822155  43.0297736  74.6928932 108.2703399  43.4634464
  80.8747286 109.7866251  41.9035073  81.2830642 109.3448662  41.1589706
  80.1524548 109.2118879  42.1569266  77.2278356 104.7238858  39.2768630
  78.0739551 105.1478271  39.4203279  77.1676994 104.0672482  39.9707193
  81.1976101 110.3467442  35.6587362  80.5684963 110.5113156  34.9563430
  80.8101763 110.7609051  36.4298326  85.0765333 111.2821880  33.0131726
  84.3916371 111.6620781  32.4628759  85.1609182 111.8917206  33.7463674
  80.3777801 102.3843226  40.9349804  80.1338733 103.1385287  40.3984080
  80.6537732 102.7628574  41.7697051  82.3316264 108.9281839  39.6127070
  82.5433159 109.5713598  38.9361451  82.2846012 108.0944155  39.1449000
  79.9342493 101.5399659  36.5163642  79.0726972 101.8380913  36.8080379
  79.9604928 101.7570058  35.5844674  76.7504063 110.0841850  32.9237447
  77.2142408 110.3629553  32.1342070  76.4860861 109.1825294  32.7410538
  73.6428144 109.6313331  35.8617211  74.2129501 110.0600600  35.2234695
  74.2336255 109.3495916  36.5601396  75.6872949 106.2065002  29.7327013
  76.3896992 106.6586046  30.2000939  75.3553577 105.5648821  30.3606906
  74.1353310 104.7976759  44.1078222  73.5051971 105.4793040  44.3413619
  74.0289398 104.6859840  43.1631360  69.4298283 104.4648555  35.0344146
  68.6397337 104.7206083  34.5584257  69.9209530 105.2796893  35.1396187
  83.4462092 111.8053794  37.7849427  84.2679536 111.4033981  37.5032109
  83.4424495 111.7022028  38.7365543  71.3813028 104.8293134  31.9927623
  70.5844191 104.9411828  32.5111118  71.1538620 105.1679786  31.1268513
  77.2118696 111.3537837  39.9410137  77.2763128 111.8158245  40.7768309
  76.5029619 110.7235202  40.0692447  67.7135986 104.7179045  37.4659137
  67.9644024 105.6026055  37.7316713  68.2495534 104.5383647  36.6934229
  91.5368085 108.1492543  34.1334398  90.7831794 107.5799941  33.9778403
  91.6715626 108.1155207  35.0805033  76.9266713 113.0205945  29.8089118
  76.7912388 113.8657481  30.2373966  77.4676526 113.2225222  29.0455052
  73.4134053  99.0997525  46.4703473  73.0200998  98.5463723  47.1451117
  74.2300193  99.4108103  46.8609990  70.3796111 110.5381383  30.3817043
  70.8920631 111.3324633  30.5322607  71.0318823 109.8407673  30.3150644
  72.1890995 113.6547139  32.4639796  72.3657624 114.5765104  32.2760780
  72.9847829 113.3405558  32.8934176  76.3302014 100.5155404  44.0623730
  77.0711727 101.1162557  43.9828192  76.5619937  99.7733042  43.5041772
  71.4743352 105.7011771  42.3401959  71.3596867 104.7997028  42.6409058
  70.6187870 105.9475468  41.9886776  78.5535190 113.6429511  43.9389460
  78.1099044 112.8565890  43.6210364  79.2152403 113.8308662  43.2733351
  73.3122311 115.1725313  38.4650138  73.8629736 115.0442376  37.6927132
  72.4733787 115.4720202  38.1145031  80.6516428 113.9232311  41.9670861
  80.6334903 114.7441192  41.4751130  81.5736348 113.7986386  42.1921002
  77.1089482 111.4376441  42.8094369  77.6417819 110.6764729  42.5793677
  76.5803563 111.1450093  43.5518524  80.2759177  96.5436507  38.3388011
  79.9323446  97.4338148  38.2627122  80.6438139  96.3538164  37.4757596
  68.3445027 108.8670037  31.1576613  69.1820249 109.2767046  30.9410321
  68.5223295 107.9269479  31.1276807  80.2409460 106.5345118  26.8460446
  79.7256083 107.3049722  27.0848834  79.9686768 105.8610254  27.4693508
  77.8256571 101.3794819  31.9045685  76.9698167 100.9901669  31.7251323
  78.2383522 101.4586779  31.0445470  79.3555717  98.9141162  36.3037244
  78.8520513  98.8771297  35.4905050  79.6486324  99.8233905  36.3633901
  75.5998603  98.9979892  35.3103426  76.4651600  98.8022700  34.9509316
  75.6676112  98.7690243  36.2372783  85.2143734 109.2877472  28.7813620
  84.4373176 108.9488632  28.3368782  85.8935215 109.2930096  28.1068585
  80.0295763 104.4072210  28.6720227  79.7245898 104.7218359  29.5230371
  80.9826205 104.4853630  28.7147560  78.4742195 110.5662433  30.3213181
  77.9463556 109.8315193  30.0086419  77.9729697 111.3437110  30.0753150
  83.4535041 108.7611454  35.4380228  82.7958715 109.4510715  35.5260356
  84.2575440 109.1507886  35.7814214  73.2060922 101.2282099  32.6819793
  73.7804674 101.0057281  31.9492986  73.7931905 101.2970794  33.4348394
  82.2640499 107.1155826  33.4884170  82.7772381 107.7485818  33.9905879
  82.9141723 106.5157022  33.1227530  73.5330509 103.2586561  26.7015678
  72.6967822 103.5961247  27.0224953  73.3935279 103.1235540  25.7642815
  75.5083590  98.1023348  31.4094862  74.8548002  97.7872366  30.7851477
  75.4664064  97.4799089  32.1354685  76.6194795 108.3842643  23.3248154
  75.7121856 108.1531897  23.5239303  77.1165827 107.5880263  23.5122136
  78.7421330 104.5905282  35.7342510  77.8243892 104.8120229  35.5764198
  79.1581474 104.6651592  34.8754217  79.5256378 105.9896698  30.8645190
  80.2728197 106.5018095  30.5552312  79.7947968 105.6680750  31.7249584
  77.7983028 108.4855238  27.8472145  76.8894247 108.2014271  27.9444614
  77.8278112 108.9054317  26.9875451  83.0302296 112.0961828  31.6163312
  82.5764623 111.2552738  31.6728503  82.3996262 112.7323226  31.9538092
  81.9735215 103.0253814  32.8463980  81.2357972 102.5131200  33.1774222
  82.2261989 102.5854195  32.0347256  81.4735235 113.9338325  32.5513130
  81.7658209 114.4943382  31.8325496  81.9833855 114.2266886  33.3066289
  82.0746842  95.8030066  33.4405749  82.3805719  94.9427429  33.1531664
  82.7999447  96.3947686  33.2404743  68.3671199 106.2060752  31.8287347
  68.1695598 105.6130113  31.1038413  67.8117863 105.9012963  32.5463286
  76.3467922 106.0983859  33.9481940  76.4016532 105.1457695  33.8724417
  75.5359124 106.2543298  34.4323238  77.4959116 110.0263982  25.1860223
  77.0578546 109.3099841  24.7265861  78.2369557 110.2540097  24.6245315
  74.2860282 104.7160919  31.7072319  73.4728148 105.0155089  32.1137511
  74.7819276 104.3216607  32.4246801  76.4368860 114.7118676  33.6406583
  76.3945039 114.9379522  32.7115116  77.3531559 114.4782050  33.7892385
  79.8834494 105.1802743  40.5387213  80.2383882 105.4074216  41.3981678
  80.5306625 105.5121120  39.9164468  85.6132231 108.3021179  31.2436542
  85.4750129 108.4922775  30.3157731  85.2568450 109.0640562  31.7004593
  73.7774357 102.2879274  37.3233554  74.4173736 102.1468033  36.6256517
  72.9451887 102.0013788  36.9472156  85.6401610 110.3697706  36.2547813
  86.0738117 110.2772995  37.1030867  86.3533191 110.3455207  35.6167829
  74.5534661 111.5881705  33.4368546  75.3475259 111.0932025  33.2351121
  73.8426353 111.0599568  33.0736252  79.3729505 113.9699800  37.7880914
  79.4266528 114.5390736  38.5558630  78.5044287 114.1401685  37.4234951
  70.8617424 105.7324786  29.5128299  69.9315012 105.6709242  29.7298261
  70.9574896 105.2100739  28.7164940  70.7802973 102.2579599  32.1006541
  71.0409791 103.1724932  31.9915701  71.6020146 101.7904042  32.2503153
  72.2527899 103.6717356  39.2705365  72.9250952 103.4634719  38.6218014
  71.4257685 103.4739442  38.8310597  86.5017160 110.4121407  38.7880699
  86.6953050 111.3167217  39.0339974  86.4017778 109.9528826  39.6219284
  78.1553471 100.2979297  41.2871026  77.5081386 100.9969247  41.1935502
  78.9254486 100.7315441  41.6547274  81.5632269 110.5628149  44.3621579
  81.4117775 110.3338701  43.4451663  81.5536948 111.5198751  44.3752924
  78.3317605 108.1360062  39.3467846  79.2609665 108.2871222  39.1736813
  77.9108635 108.2244083  38.4916492  77.1305937 112.1610727  37.1166383
  76.9917023 111.7929511  37.9892321  76.3420533 112.6758366  36.9450341
  77.7254089 117.2619823  28.4591920  77.9005844 116.7907866  29.2737543
  77.0386877 117.8885589  28.6873181  78.6811152 111.5392329  34.5055221
  78.3460985 111.4993099  35.4012871  78.1815098 110.8737045  34.0325631
  72.6555396 106.9459959  40.0307802  72.5175194 106.2140198  40.6319341
  73.5660319 106.8568859  39.7491990  81.6170344 108.8848364  24.7792281
  80.9999514 108.1595192  24.6825333  81.1486832 109.6457724  24.4359355
  75.2837697 106.6579919  39.5191482  75.9937315 106.0173111  39.4778100
  75.2407005 106.9092814  40.4417663  83.2724475 113.5947272  42.4398061
  83.2137021 112.9106492  41.7728644  83.6743994 114.3366262  41.9878687
  73.9966631 103.6445137  41.3387121  73.4603988 103.1935875  41.9908718
  73.4083339 103.7791045  40.5957586  72.2915174 120.4109186  35.2331780
  72.5311772 121.0427710  35.9110799  71.4484371 120.0597226  35.5197139
  73.4068890 103.1033788  23.9013585  72.5298356 102.9822589  23.5375832
  73.8826643 102.3119866  23.6492474  83.2741883 111.5586856  40.6712041
  82.3868661 111.2212778  40.7938440  83.8440434 110.8269887  40.9080806
  64.9271030 107.8910948  33.9955092  65.6142069 107.5772678  33.4076107
  64.7719158 108.7952312  33.7222344  69.7305752 102.7801144  38.4240116
  69.6463941 102.1726814  37.6890526  68.9088458 103.2710163  38.4249612
  76.8043036 116.2188308  37.6373284  76.7313207 117.0243280  38.1492589
  76.3620429 116.4180274  36.8121305  76.5932816 115.4560078  31.1476106
  75.8100337 115.9981759  31.2414330  77.2925561 115.9734058  31.5470347
  79.9029466 101.2654708  33.7910311  80.3998165 100.5124670  33.4711381
  79.1316447 101.3019024  33.2253520  87.7559223 106.9695073  35.4328602
  87.7449099 107.8519789  35.0622536  86.8876603 106.6166624  35.2383139
  79.2641719 116.1175142  39.7931443  79.9769692 116.7522607  39.7207344
  78.7731748 116.2139008  38.9771444  80.9859246 110.0226395  31.3648734
  80.0515525 110.1427857  31.1953439  81.1635915 109.1198862  31.1008744
  76.4864434 103.4072091  33.5181996  76.1162222 102.8543131  34.2062901
  76.9823527 102.8030224  32.9656996  84.3731798 105.8643714  31.8998768
  84.8392250 106.6971706  31.8259071  84.8239298 105.3988696  32.6044027
  74.3153633 113.8669586  40.6137013  75.0163092 114.5006069  40.7666408
  73.8448748 114.2084317  39.8532653  82.4408029 112.2087536  28.8984920
  82.7167873 112.0944130  29.8078795  81.5712528 111.8105020  28.8597094
  82.3448460  98.2324301  35.9389670  81.4311540  98.4628528  36.1071877
  82.7741562  98.3162745  36.7903702  82.1154919 106.4214193  38.4389564
  81.4626369 106.6690101  37.7842017  82.4935299 105.6078331  38.1052041
  79.0762093 116.4573886  32.5417734  79.2584487 115.6395542  33.0045486
  79.8995079 116.6741579  32.1042624  79.4104258 115.3842072  29.8032783
  79.9392025 114.8734526  29.1902945  79.6732478 115.0684602  30.6678316
  78.1642492 107.1634004  44.9255601  77.4883129 107.0628134  45.5957976
  78.9870126 107.0073218  45.3891598  69.9121351 113.4005941  37.5468116
  70.4974788 112.6549629  37.6796020  69.7146189 113.7109898  38.4304780
  72.7660006 116.4357188  32.5630559  72.0970382 116.9203316  32.0794599
  72.6272876 116.6826409  33.4773937  64.5039006 105.9711541  36.2672559
  64.5423105 105.4375132  37.0609677  63.9979299 105.4446747  35.6483536
  76.9065275 118.4700932  39.1613217  77.4583583 118.6332553  39.9262302
  77.2471468 119.0605370  38.4893242  71.8829768 100.8176082  39.7635102
  71.9471095 101.6790912  39.3512499  71.8196888 100.2050083  39.0307460
  71.3582041 102.8899214  43.4108136  71.9854079 102.5076291  44.0245660
  70.5009959 102.6713416  43.7763828  81.7576149 113.2962189  45.0161871
  82.3016053 113.9092148  44.5216826  81.1762994 113.8541768  45.5328884
  68.1347583 104.6975643  29.3426491  68.4301024 103.7886322  29.2893544
  67.2335619 104.6763383  29.0207493  80.0433662 116.4182907  36.1476899
  79.9184802 115.6172647  35.6387845  80.7012753 116.9129101  35.6590869
  71.6641830 102.7731640  35.3254039  70.9428416 103.3867607  35.1861513
  72.4535086 103.3089405  35.2470685  82.1068571 114.2191927  37.7756449
  81.1598906 114.0997279  37.7034776  82.4551344 113.3314425  37.8582711
  74.4668144 100.1086066  41.5994691  74.9902546 100.3548363  42.3621000
  74.2480477 100.9406101  41.1797828  69.8635425 102.3789741  29.4665816
  69.5348131 101.4987120  29.2840922  70.2174796 102.3237410  30.3542205
  79.1115004 114.0144644  33.9760801  78.9639966 113.0861351  34.1568371
  79.9368497 114.0364734  33.4917877  72.9777248 102.6662711  29.8341294
  73.3173321 103.1948632  29.1119902  73.4249369 103.0043117  30.6099860
  82.7149126 114.8373202  35.0625674  83.6395673 114.6316064  34.9250125
  82.5464429 114.5889603  35.9715016  75.6720689 101.0499761  39.2844362
  75.3317509 100.2507574  39.6865041  74.9659695 101.3501472  38.7121195
  76.3237161  98.1349074  37.7371685  77.1463230  97.6609552  37.6150575
  76.5675224  98.9139558  38.2370371  74.9645395 101.1637332  28.0334586
  75.6853758 101.5418585  27.5298303  74.3410699 101.8826209  28.1369564
  79.1076518 101.8682481  28.9692919  79.3240133 102.7507119  28.6681747
  78.6270585 101.4768695  28.2398561  73.8475740 104.8268194  35.5463663
  73.7020320 105.1408498  36.4387945  73.3700943 105.4453095  34.9934562
  75.7072122 101.8170742  35.5944553  75.6933691 100.9211836  35.2576851
  76.4244551 101.8241406  36.2282839  77.5598253 102.2508083  37.6397680
  77.3016031 103.1725153  37.6382011  77.0283293 101.8538517  38.3298144
  82.5044442 115.3558870  30.4187766  82.6781319 114.7905292  29.6661618
  82.9973333 116.1559765  30.2367256  68.3221402 107.3673539  38.4851324
  67.7774870 108.1433347  38.6171599  69.2000752 107.7144343  38.3270446
  75.1109018 100.6985123  30.8632123  75.2324930  99.7701769  31.0623010
  74.8211061 100.7123809  29.9510438  77.9800209  98.3840033  33.9998843
  78.0021906  98.4479366  33.0450822  78.3968268  97.5444542  34.1939349
  88.3583833 108.1195293  32.0378065  88.8014979 107.3702618  31.6397189
  87.4810343 108.1105429  31.6551797  83.4919614 114.6725634  27.5184664
  84.1870519 115.2932327  27.7371979  83.8342764 113.8220985  27.7937042
  69.1087424 106.4943435  41.3781481  68.3669160 106.6426070  41.9646112
  68.7880168 106.7551701  40.5148231  85.3911037 112.1225340  29.0471995
  85.9162362 112.4612612  28.3221315  85.3033390 111.1872355  28.8635129
  77.0531086 116.0359413  41.1761871  77.3618213 115.7908560  42.0484571
  77.8506568 116.2406052  40.6880741  77.0751698 118.1897323  33.4067248
  76.6356689 117.6973702  34.1000105  77.8259815 117.6470291  33.1659323
  69.5544037 114.3808864  33.4091876  70.3802057 114.0812636  33.0290519
  69.2038089 113.6116486  33.8581665  74.5225570 113.7335332  35.4789549
  73.9005580 113.0706037  35.1791777  75.1930437 113.7596464  34.7963197
  67.7552642 112.2995190  34.3680809  66.9184551 111.8717365  34.1864811
  67.7276288 112.4927634  35.3051601  74.5950098 102.2117120  45.0722056
  74.6438253 103.0879243  44.6899825  75.1372612 101.6694513  44.4993699
  85.0804944 112.7558243  44.3523193  84.2900487 112.7382382  43.8127692
  84.8438298 113.2946537  45.1072229  85.2002819 109.6050710  41.6655921
  85.2500824 109.4400717  42.6071444  85.0916742 108.7377969  41.2753802
  74.0839077 112.2839255  28.9548010  74.2327198 112.9674720  28.3014683
  74.8905521 112.2644345  29.4697466  82.4906581 105.5881638  42.9815228
  83.3916444 105.4488103  42.6899226  82.5654555 105.7536093  43.9213405
  76.8249386 102.9648492  41.8268414  75.9552696 103.2582059  41.5551003
  77.0608867 103.5488937  42.5475678  86.7021015 112.0247651  41.9097943
  86.4105824 112.3877632  42.7461404  86.0893147 111.3114660  41.7311275
  87.9016698 109.5900531  34.4300513  88.7363589 110.0290335  34.5938073
  88.0375827 109.1139184  33.6108759  84.9508204 107.1480266  40.3778001
  85.4262325 107.3407912  39.5696852  84.0273769 107.2039452  40.1321384
  71.8391710 108.3104433  29.9609079  71.5937752 107.4066763  30.1589289
  72.0087625 108.3121583  29.0188557  79.5288420  99.1828109  39.3433835
  80.0470364  99.9189136  39.0180323  79.1743553  99.4892103  40.1780594
  71.1087358 104.0432791  27.4595240  70.4156603 104.1177146  26.8035276
  70.8639110 103.2793134  27.9816757  79.7801014  95.6028392  34.8634731
  80.0602768  94.9351581  35.4895158  80.5651621  95.7957488  34.3509395
  77.5834483 114.7787386  26.4259757  77.0108450 115.3977573  25.9730229
  78.1567276 115.3286748  26.9599679  83.6509873 104.0246026  38.6106306
  84.6027296 104.1244124  38.6318530  83.4813323 103.2324294  39.1204391
  81.6724252 101.1101609  38.7965707  81.0774184 101.3906622  38.1012196
  81.3873949 101.5995510  39.5682448  80.8031743 115.0624536  27.5568340
  81.7362416 114.9970098  27.7601215  80.7154955 115.8980803  27.0982872
  86.1297950 107.2452146  37.7248606  86.0974271 106.3068146  37.9108290
  86.7398574 107.3236182  36.9914431  77.9681281 106.1148199  23.7675810
  78.9140386 105.9854407  23.8364228  77.5895526 105.3762861  24.2445238
  86.2792439 104.0363189  37.7706889  85.7631488 103.2521646  37.5836818
  87.1632387 103.7081906  37.9353409  83.9403166  97.7804205  33.7302702
  83.7427987  97.4719293  34.6146034  84.5502871  98.5065844  33.8600632
  91.9474500 108.3068152  36.8654643  92.6777889 108.0453441  37.4262346
  91.3381446 107.5696874  36.9056711  90.0289797 106.4476015  37.4629094
  89.3022961 106.3131980  36.8545585  89.6137084 106.7552844  38.2685812
  77.8519974 110.1665945  45.2276467  78.7722983 110.3444544  45.4216513
  77.8169557 109.2221990  45.0756166  76.1524198 104.0398175  23.7030695
  75.2455654 103.7431288  23.7793409  76.4300179 103.7427993  22.8364981
  67.0702139 105.3604538  34.1529742  66.7504923 104.5069847  33.8604116
  66.5235567 105.5753117  34.9087709  70.8482046 108.0766979  37.8699248
  71.0668056 109.0084087  37.8887282  71.2607820 107.7174954  38.6554052
  77.7686264  98.5835065  29.8574936  76.9586993  98.2382150  30.2330183
  78.4570681  98.2742608  30.4462548  79.6976812  97.6613112  31.4799233
  80.2507851  98.0808565  32.1389256  79.9346899  96.7348860  31.5222189
  75.7209912 103.6500185  47.2601997  75.6206639 104.5994542  47.1914088
  75.5031454 103.3218424  46.3878067  74.9222983 100.8985110  23.8442674
  75.7842147 101.2240009  24.1038492  75.1073327 100.1116606  23.3315740
  66.9390399 108.9807450  36.1222863  66.2453870 108.5661403  35.6092818
  67.6863390 109.0227986  35.5256282  83.0755620  99.7713637  30.9877897
  82.4954289 100.4298441  30.6055950  82.8091552  98.9490981  30.5765315
  81.5259186  99.1718694  33.1899218  82.0258964  99.2835229  32.3813537
  82.1694794  98.8679747  33.8300026  75.5841182 107.0797324  46.0767059
  75.1008263 107.8797684  46.2830948  75.6702121 107.0905269  45.1234503
  68.8527141 108.9125704  33.9988878  68.8297829 109.0113391  33.0470761
  69.1627778 109.7590854  34.3206044  71.5114519 110.9701859  38.1135492
  72.4657773 110.9385801  38.0465424  71.3127043 110.5092482  38.9285718
  72.1013901 109.5402975  40.6806290  72.9206790 110.0347053  40.7041127
  72.3750709 108.6234943  40.6523858  81.8580498 101.9313727  30.0434246
  80.9706353 102.2163378  29.8254440  82.2734487 101.7707490  29.1961523
  85.2095034 101.9560248  33.7588585  85.9855424 102.4456700  34.0313202
  84.4843168 102.3818302  34.2160454  87.6467592 102.6687867  34.8162526
  88.2412083 102.4283603  34.1055834  87.7194176 101.9494998  35.4436062
  69.8664748 116.5121478  35.1305690  69.7319216 115.7521879  34.5643688
  69.4496810 117.2362378  34.6634479  81.0023711 111.6958402  24.1382266
  81.7059561 111.9008404  24.7539921  80.2786360 112.2635164  24.4031349
  81.8321521 107.4468263  30.2584536  81.7756723 107.9036814  29.4192168
  82.3849864 106.6858948  30.0807379  85.6426327 103.2357995  31.0834655
  85.3863261 102.8354631  31.9142863  85.0179195 103.9501789  30.9584794
  89.9538665 105.9754068  33.5905947  89.3938223 106.0447257  34.3637509
  89.3482168 105.7995053  32.8705443  73.0233874 117.4090795  35.3424133
  72.9066258 118.3536228  35.2402823  72.2026320 117.1064357  35.7309932
  82.9110408 112.1340931  26.1880726  83.7456012 111.7022129  26.0058200
  82.7494751 111.9622945  27.1157620  82.5656301 108.6373044  27.5537065
  82.5105104 108.4717316  26.6125509  81.9402356 109.3449077  27.7099255
  67.3548816 103.8741109  41.3798487  68.0007679 103.3640063  41.8685712
  67.1465967 104.6109790  41.9541912  79.8802208 110.9421956  46.8790628
  80.7493367 111.1162608  46.5177263  79.4008959 111.7616373  46.7566357
  75.8752426  98.1381153  27.1322383  75.8631096  99.0822993  27.2890654
  76.7675848  97.9551299  26.8381845  74.0488388 118.0619057  38.5580061
  74.9515635 118.0942667  38.8746556  73.8225758 117.1319508  38.5726397
  75.8041990 116.8150044  35.2190140  74.8537621 116.8151905  35.1054512
  76.1074476 116.0682778  34.7026175  79.6904546  94.7323930  31.3868320
  78.9236941  94.1782417  31.5325003  80.1015251  94.8045799  32.2482472
  71.6946307 101.0208726  45.4773501  72.5577768 100.6645531  45.6876826
  71.1211717 100.6822621  46.1648906  91.5394684 122.6510582  36.2835902
  92.1773093 122.5317329  35.5799242  91.4215526 123.5991426  36.3423855
  88.3484390 122.6038010  36.2197427  88.0102901 122.4879075  35.3317962
  89.2174158 122.2029175  36.1998433  88.8304173 123.7572862  42.1783633
  88.8192814 123.3625660  41.3064136  88.9924812 123.0238934  42.7717404
  81.7535637 125.9524678  35.0478539  82.5456929 125.6115503  34.6324838
  81.9932288 126.0619653  35.9680692  85.5511434 126.5409974  41.1262817
  85.2601300 127.4455605  41.0109483  86.1868418 126.5826501  41.8406886
  86.4767641 123.9186822  37.7164176  87.0731213 123.6942845  37.0021139
  86.5342612 123.1771568  38.3189624  91.0935952 120.3762036  33.3589110
  91.8799041 119.9581459  33.0079527  91.3574656 121.2808128  33.5270759
  94.0169799 114.0258843  38.7216698  93.6853124 114.8954254  38.4977913
  93.4215413 113.7095127  39.4010728  90.5101319 126.2271389  38.1212610
  90.2102042 127.1296428  38.0128418  90.1652379 125.9603572  38.9733763
  83.9613801 122.6785186  34.1549315  83.0364297 122.5461400  34.3627006
  84.2098214 123.4579405  34.6519257  93.9098463 118.7453929  35.8010048
  93.0015340 118.6769338  35.5068809  93.8586059 119.2225874  36.6291873
  81.3222612 122.3218460  34.9893104  81.4514993 122.5752939  35.9032516
  80.6420063 122.9146168  34.6697759  87.9839329 120.1643575  43.7444945
  87.2072663 120.7237495  43.7347810  88.6229892 120.6500358  44.2659815
  95.7760109 116.9470368  37.5787922  95.1334489 117.2402901  36.9327716
  95.2715038 116.8323288  38.3841118  86.2385701 122.9729028  43.3062912
  86.9800385 123.5114072  43.0297736  85.5322686 123.5995317  43.4634464
  91.7141041 125.1158169  41.9035073  92.1224397 124.6740579  41.1589706
  90.9918302 124.5410796  42.1569266  88.0672111 120.0530776  39.2768630
  88.9133306 120.4770189  39.4203279  88.0070748 119.3964400  39.9707193
  91.2171556 117.7135144  40.9349804  90.9732488 118.4677204  40.3984080
  91.4931486 118.0920492  41.7697051  93.1710019 124.2573756  39.6127070
  93.3826914 124.9005516  38.9361451  93.1239767 123.4236073  39.1449000
  90.7736248 116.8691577  36.5163642  89.9120727 117.1672830  36.8080379
  90.7998682 117.0861976  35.5844674  84.4821898 124.9605249  35.8617211
  85.0523255 125.3892517  35.2234695  85.0730010 124.6787834  36.5601396
  84.9747065 120.1268676  44.1078222  84.3445725 120.8084957  44.3413619
  84.8683153 120.0151758  43.1631360  80.2692037 119.7940473  35.0344146
  79.4791091 120.0498001  34.5584257  80.7603284 120.6088810  35.1396187
  82.2206782 120.1585052  31.9927623  81.4237946 120.2703746  32.5111118
  81.9932375 120.4971704  31.1268513  88.0512450 126.6829755  39.9410137
  88.1156883 127.1450162  40.7768309  87.3423374 126.0527120  40.0692447
  78.5529740 120.0470963  37.4659137  78.8037778 120.9317973  37.7316713
  79.0889288 119.8675565  36.6934229  84.2527807 114.4289442  46.4703473
  83.8594753 113.8755641  47.1451117  85.0693948 114.7400021  46.8609990
  87.1695768 115.8447321  44.0623730  87.9105482 116.4454475  43.9828192
  87.4013691 115.1024959  43.5041772  82.3137106 121.0303689  42.3401959
  82.1990622 120.1288946  42.6409058  81.4581624 121.2767385  41.9886776
  84.1516065 130.5017231  38.4650138  84.7023490 130.3734294  37.6927132
  83.3127541 130.8012120  38.1145031  87.9483236 126.7668358  42.8094369
  88.4811573 126.0056647  42.5793677  87.4197317 126.4742010  43.5518524
  91.1152931 111.8728424  38.3388011  90.7717201 112.7630066  38.2627122
  91.4831894 111.6830082  37.4757596  79.1838782 124.1961955  31.1576613
  80.0214004 124.6058963  30.9410321  79.3617050 123.2561397  31.1276807
  88.6650325 116.7086736  31.9045685  87.8091921 116.3193587  31.7251323
  89.0777277 116.7878697  31.0445470  90.1949472 114.2433080  36.3037244
  89.6914267 114.2063215  35.4905050  90.4880079 115.1525822  36.3633901
  86.4392358 114.3271809  35.3103426  87.3045354 114.1314618  34.9509316
  86.5069867 114.0982161  36.2372783  84.0454677 116.5574017  32.6819793
  84.6198429 116.3349199  31.9492986  84.6325659 116.6262712  33.4348394
  86.3477344 113.4315266  31.4094862  85.6941757 113.1164283  30.7851477
  86.3057819 112.8091007  32.1354685  89.5815085 119.9197200  35.7342510
  88.6637646 120.1412147  35.5764198  89.9975228 119.9943510  34.8754217
  92.9140597 111.1321984  33.4405749  93.2199474 110.2719347  33.1531664
  93.6393202 111.7239604  33.2404743  79.2064953 121.5352670  31.8287347
  79.0089353 120.9422031  31.1038413  78.6511617 121.2304880  32.5463286
  87.1861677 121.4275777  33.9481940  87.2410287 120.4749613  33.8724417
  86.3752879 121.5835216  34.4323238  85.1254037 120.0452836  31.7072319
  84.3121902 120.3447007  32.1137511  85.6213031 119.6508525  32.4246801
  90.7228248 120.5094661  40.5387213  91.0777636 120.7366134  41.3981678
  91.3700380 120.8413038  39.9164468  84.6168111 117.6171192  37.3233554
  85.2567491 117.4759951  36.6256517  83.7845642 117.3305705  36.9472156
  81.6196728 117.5871517  32.1006541  81.8803545 118.5016850  31.9915701
  82.4413900 117.1195959  32.2503153  83.0921653 119.0009274  39.2705365
  83.7644707 118.7926636  38.6218014  82.2651440 118.8031360  38.8310597
  88.9947225 115.6271215  41.2871026  88.3475140 116.3261165  41.1935502
  89.7648241 116.0607359  41.6547274  89.1711360 123.4651980  39.3467846
  90.1003420 123.6163139  39.1736813  88.7502390 123.5536001  38.4916492
  87.9699691 127.4902644  37.1166383  87.8310777 127.1221429  37.9892321
  87.1814288 128.0050284  36.9450341  83.4949150 122.2751877  40.0307802
  83.3568948 121.5432116  40.6319341  84.4054074 122.1860777  39.7491990
  86.1231451 121.9871836  39.5191482  86.8331070 121.3465029  39.4778100
  86.0800759 122.2384731  40.4417663  84.8360385 118.9737054  41.3387121
  84.2997742 118.5227793  41.9908718  84.2477094 119.1082963  40.5957586
  75.7664784 123.2202865  33.9955092  76.4535824 122.9064595  33.4076107
  75.6112913 124.1244230  33.7222344  80.5699506 118.1093062  38.4240116
  80.4857695 117.5018731  37.6890526  79.7482213 118.6002080  38.4249612
  90.7423220 116.5946625  33.7910311  91.2391920 115.8416588  33.4711381
  89.9710202 116.6310942  33.2253520  87.3258189 118.7364008  33.5181996
  86.9555976 118.1835049  34.2062901  87.8217281 118.1322142  32.9656996
  85.1547387 129.1961503  40.6137013  85.8556847 129.8297986  40.7666408
  84.6842502 129.5376235  39.8532653  93.1842215 113.5616219  35.9389670
  92.2705295 113.7920446  36.1071877  93.6135316 113.6454663  36.7903702
  92.9548673 121.7506111  38.4389564  92.3020124 121.9982018  37.7842017
  93.3329053 120.9370249  38.1052041  89.0036246 122.4925922  44.9255601
  88.3276883 122.3920051  45.5957976  89.8263880 122.3365136  45.3891598
  80.7515106 128.7297859  37.5468116  81.3368542 127.9841546  37.6796020
  80.5539944 129.0401815  38.4304780  75.3432760 121.3003459  36.2672559
  75.3816860 120.7667049  37.0609677  74.8373053 120.7738664  35.6483536
  82.7223523 116.1467999  39.7635102  82.7864849 117.0082830  39.3512499
  82.6590643 115.5342001  39.0307460  82.1975795 118.2191132  43.4108136
  82.8247834 117.8368209  44.0245660  81.3403714 118.0005334  43.7763828
  78.9741338 120.0267561  29.3426491  79.2694779 119.1178239  29.2893544
  78.0729374 120.0055300  29.0207493  82.5035585 118.1023557  35.3254039
  81.7822171 118.7159525  35.1861513  83.2928841 118.6381322  35.2470685
  85.3061898 115.4377984  41.5994691  85.8296300 115.6840280  42.3621000
  85.0874232 116.2698019  41.1797828  80.7029179 117.7081659  29.4665816
  80.3741886 116.8279037  29.2840922  81.0568550 117.6529327  30.3542205
  83.8171003 117.9954628  29.8341294  84.1567075 118.5240550  29.1119902
  84.2643123 118.3335034  30.6099860  86.5114443 116.3791679  39.2844362
  86.1711264 115.5799492  39.6865041  85.8053450 116.6793390  38.7121195
  87.1630915 113.4640991  37.7371685  87.9856985 112.9901470  37.6150575
  87.4068979 114.2431475  38.2370371  84.6869494 120.1560112  35.5463663
  84.5414075 120.4700415  36.4387945  84.2094698 120.7745012  34.9934562
  86.5465877 117.1462660  35.5944553  86.5327446 116.2503753  35.2576851
  87.2638305 117.1533324  36.2282839  88.3992008 117.5800000  37.6397680
  88.1409785 118.5017071  37.6382011  87.8677048 117.1830435  38.3298144
  79.1615156 122.6965457  38.4851324  78.6168624 123.4725264  38.6171599
  80.0394506 123.0436261  38.3270446  85.9502773 116.0277040  30.8632123
  86.0718684 115.0993687  31.0623010  85.6604815 116.0415726  29.9510438
  88.8193963 113.7131951  33.9998843  88.8415660 113.7771284  33.0450822
  89.2362022 112.8736459  34.1939349  79.9481178 121.8235353  41.3781481
  79.2062914 121.9717988  41.9646112  79.6273922 122.0843618  40.5148231
  78.5946397 127.6287108  34.3680809  77.7578305 127.2009282  34.1864811
  78.5670042 127.8219551  35.3051601  85.4343852 117.5409038  45.0722056
  85.4832008 118.4171161  44.6899825  85.9766367 116.9986431  44.4993699
  93.3300335 120.9173555  42.9815228  94.2310198 120.7780020  42.6899226
  93.4048310 121.0828010  43.9213405  87.6643141 118.2940410  41.8268414
  86.7946450 118.5873976  41.5551003  87.9002621 118.8780855  42.5475678
  95.7901958 122.4772184  40.3778001  96.2656080 122.6699830  39.5696852
  94.8667524 122.5331369  40.1321384  90.3682175 114.5120027  39.3433835
  90.8864119 115.2481054  39.0180323  90.0137307 114.8184020  40.1780594
  90.6194769 110.9320310  34.8634731  90.8996523 110.2643499  35.4895158
  91.4045376 111.1249405  34.3509395  94.4903627 119.3537944  38.6106306
  95.4421050 119.4536041  38.6318530  94.3207078 118.5616212  39.1204391
  92.5118007 116.4393527  38.7965707  91.9167939 116.7198540  38.1012196
  92.2267703 116.9287428  39.5682448  97.1186193 119.3655107  37.7706889
  96.6025242 118.5813563  37.5836818  98.0026142 119.0373823  37.9353409
  94.7796920 113.1096122  33.7302702  94.5821741 112.8011210  34.6146034
  95.3896626 113.8357761  33.8600632  88.6913728 125.4957862  45.2276467
  89.6116738 125.6736461  45.4216513  88.6563311 124.5513908  45.0756166
  77.9095893 120.6896456  34.1529742  77.5898678 119.8361764  33.8604116
  77.3629322 120.9045034  34.9087709  81.6875801 123.4058897  37.8699248
  81.9061811 124.3376005  37.8887282  82.1001575 123.0466871  38.6554052
  88.6080019 113.9126982  29.8574936  87.7980747 113.5674067  30.2330183
  89.2964436 113.6034526  30.4462548  90.5370567 112.9905029  31.4799233
  91.0901606 113.4100483  32.1389256  90.7740653 112.0640777  31.5222189
  86.5603666 118.9792103  47.2601997  86.4600393 119.9286460  47.1914088
  86.3425208 118.6510342  46.3878067  77.7784153 124.3099368  36.1222863
  77.0847625 123.8953320  35.6092818  78.5257144 124.3519904  35.5256282
  92.3652940 114.5010612  33.1899218  92.8652719 114.6127147  32.3813537
  93.0088548 114.1971665  33.8300026  86.4234936 122.4089242  46.0767059
  85.9402018 123.2089602  46.2830948  86.5095875 122.4197187  45.1234503
  79.6920896 124.2417621  33.9988878  79.6691584 124.3405309  33.0470761
  80.0021532 125.0882772  34.3206044  82.3508274 126.2993776  38.1135492
  83.3051527 126.2677719  38.0465424  82.1520797 125.8384400  38.9285718
  82.9407656 124.8694892  40.6806290  83.7600545 125.3638971  40.7041127
  83.2144464 123.9526861  40.6523858  96.0488788 117.2852166  33.7588585
  96.8249178 117.7748618  34.0313202  95.3236922 117.7110220  34.2160454
  78.1942570 119.2033026  41.3798487  78.8401434 118.6931980  41.8685712
  77.9859721 119.9401708  41.9541912  90.5298300 110.0615848  31.3868320
  89.7630696 109.5074334  31.5325003  90.9409005 110.1337716  32.2482472
  82.5340061 116.3500643  45.4773501  83.3971523 115.9937448  45.6876826
  81.9605472 116.0114538  46.1648906  24.3566418  14.0032046  30.6634766
  23.9130273  13.2168424  30.3455671  25.0183632  14.1911196  29.9978657
  26.4547657  14.2834845  28.6916168  26.4366132  15.1043727  28.1996437
  27.3767577  14.1588921  28.9166309  27.3663497  10.9230684  31.0866886
  27.2149004  10.6941235  30.1696970  27.3568177  11.8801285  31.0998231
  29.0755704  13.9549806  29.1643368  29.0168250  13.2709026  28.4973951
  29.4775222  14.6968796  28.7123994  27.5607378  13.6564723  31.7407178
  28.1047282  14.2694682  31.2462133  26.9794223  14.2144302  32.2574191
  30.8836172  13.1160778  31.0768499  30.0931716  13.0984916  30.5372999
  30.6469527  13.6549071  31.8317536  32.5052244  12.3850185  28.6343249
  32.2137053  12.7480166  29.4706710  31.8924376  11.6717194  28.4556581
  25.6833437  11.3024490  33.6035934  26.5524596  11.4765143  33.2422569
  25.2040188  12.1218907  33.4811664  37.3425912  23.0113116  23.0081209
  37.9804322  22.8919864  22.3044549  37.2246755  23.9593960  23.0669161
  34.1515619  22.9640544  22.9442734  33.8134130  22.8481609  22.0563269
  35.0205387  22.5631709  22.9243740  34.6335402  24.1175396  28.9028939
  34.6224042  23.7228194  28.0309443  34.7956041  23.3841469  29.4962711
  27.5566866  26.3127212  21.7723845  28.3488158  25.9718037  21.3570144
  27.7963516  26.4222187  22.6925998  31.3542663  26.9012508  27.8508123
  31.0632529  27.8058139  27.7354790  31.9899647  26.9429035  28.5652193
  32.2798870  24.2789356  24.4409483  32.8762442  24.0545379  23.7266446
  32.3373841  23.5374102  25.0434931  42.2975608  20.6739803  20.9867396
  43.0300780  20.1039020  21.2205225  41.5414964  20.2861404  21.4273901
  39.8201028  14.3861377  25.4462004  39.4884353  15.2556788  25.2223219
  39.2246642  14.0697661  26.1256035  36.3132548  26.5873923  24.8457917
  36.0133271  27.4898962  24.7373724  35.9683607  26.3206107  25.6979070
  39.7129692  19.1056464  22.5255354  38.8046569  19.0371872  22.2314115
  39.6617287  19.5828409  23.3537180  31.2953328  33.3518244  17.8128885
  31.2177357  34.3026069  17.8917365  30.6914971  33.0064116  18.4703811
  33.7870557  20.5246109  30.4690252  33.0103891  21.0840029  30.4593116
  34.4261120  21.0102892  30.9905122  41.5791338  17.3072902  24.3033228
  40.9365718  17.6005435  23.6573023  41.0746267  17.1925822  25.1086425
  32.0416930  23.3331563  30.0308219  32.7831614  23.8716606  29.7543042
  31.3353915  23.9597851  30.1879770  37.5172269  25.4760703  28.6280380
  37.9255625  25.0343114  27.8835012  36.7949531  24.9013331  28.8814573
  33.8703339  20.4133310  26.0013937  34.7164535  20.8372723  26.1448586
  33.8101977  19.7566934  26.6952500  37.8401084  26.0361894  22.3832669
  37.2109946  26.2007608  21.6808737  37.4526746  26.4503503  23.1543633
  41.7190316  26.9716331  19.7377033  41.0341354  27.3515233  19.1874066
  41.8034165  27.5811658  20.4708980  37.0202785  18.0737678  27.6595111
  36.7763717  18.8279739  27.1229386  37.2962715  18.4523026  28.4942358
  38.9741248  24.6176290  26.3372376  39.1858143  25.2608050  25.6606757
  38.9270996  23.7838607  25.8694306  33.3929046  25.7736302  19.6482754
  33.8567391  26.0524005  18.8587376  33.1285844  24.8719746  19.4655845
  30.2853127  25.3207783  22.5862517  30.8554484  25.7495052  21.9480002
  30.8761239  25.0390368  23.2846703  30.7778293  20.4871211  30.8323529
  30.1476954  21.1687492  31.0658925  30.6714381  20.3754292  29.8876667
  40.0887075  27.4948246  24.5094734  40.9104519  27.0928433  24.2277415
  40.0849478  27.3916480  25.4610849  33.8543679  27.0432289  26.6655444
  33.9188111  27.5052696  27.5013616  33.1454603  26.4129654  26.7937754
  48.1793069  23.8386994  20.8579705  47.4256777  23.2694392  20.7023709
  48.3140610  23.8049659  21.8050340  30.0559036  14.7891977  33.1948780
  29.6625982  14.2358175  33.8696424  30.8725177  15.1002555  33.5855297
  28.8315979  29.3441591  19.1885103  29.0082607  30.2659556  19.0006087
  29.6272812  29.0300010  19.6179482  32.9726997  16.2049856  30.7869036
  33.7136711  16.8057009  30.7073499  33.2044920  15.4627493  30.2287079
  28.1168335  21.3906223  29.0647266  28.0021850  20.4891480  29.3654365
  27.2612853  21.6369920  28.7132082  35.1960173  29.3323963  30.6634766
  34.7524027  28.5460342  30.3455671  35.8577387  29.5203114  29.9978657
  29.9547294  30.8619765  25.1895445  30.5054719  30.7336828  24.4172439
  29.1158770  31.1614654  24.8390338  37.2941411  29.6126763  28.6916168
  37.2759886  30.4335644  28.1996437  38.2161331  29.4880838  28.9166309
  33.7514465  27.1270893  29.5339676  34.2842802  26.3659181  29.3038984
  33.2228546  26.8344544  30.2763831  40.0960024  24.4505906  22.1625534
  39.4383698  25.1405167  22.2505663  40.9000423  24.8402338  22.5059521
  38.9065483  22.8050278  20.2129476  39.4197364  23.4380270  20.7151186
  39.5566707  22.2051474  19.8472836  35.3846314  20.2799734  22.4587817
  34.4668875  20.5014681  22.3009505  35.8006457  20.3546044  21.5999524
  39.6727279  27.7856280  18.3408619  39.2189606  26.9447190  18.3973809
  39.0421246  28.4217678  18.6783399  38.1160218  29.6232776  19.2758437
  38.4083193  30.1837834  18.5570803  38.6258839  29.9161337  20.0311596
  33.0793843  30.4013128  20.3651890  33.0370022  30.6273974  19.4360422
  33.9956542  30.1676502  20.5137691  36.5259477  20.8697195  27.2632519
  36.8808865  21.0968668  28.1226985  37.1731608  21.2015572  26.6409775
  42.2557214  23.9915631  17.9681848  42.1175113  24.1817227  17.0403038
  41.8993433  24.7535014  18.4249899  42.2826594  26.0592158  22.9793120
  42.7163100  25.9667447  23.8276174  42.9958174  26.0349658  22.3413136
  31.1959644  27.2776157  20.1613853  31.9900243  26.7826477  19.9596428
  30.4851337  26.7494020  19.7981558  36.0154489  29.6594252  24.5126220
  36.0691511  30.2285188  25.2803936  35.1469270  29.8296137  24.1480258
  28.8952882  19.3611808  25.9950672  29.5675935  19.1529170  25.3463321
  28.0682668  19.1633894  25.5555904  43.1442143  26.1015859  25.5126005
  43.3378033  27.0061669  25.7585280  43.0442761  25.6423278  26.3464590
  34.7978454  15.9873749  28.0116333  34.1506369  16.6863699  27.9180809
  35.5679469  16.4209893  28.3792581  38.2057252  26.2522601  31.0866886
  38.0542758  26.0233153  30.1696970  38.1961931  27.2093203  31.0998231
  34.9742588  23.8254514  26.0713152  35.9034648  23.9765674  25.8982120
  34.5533618  23.9138535  25.2161799  33.7730920  27.8505179  23.8411690
  33.6342006  27.4823963  24.7137628  32.9845516  28.3652818  23.6695648
  34.3679072  32.9514275  15.1837226  34.5430828  32.4802318  15.9982849
  33.6811860  33.5780041  15.4118487  35.3236135  27.2286781  21.2300528
  34.9885968  27.1887551  22.1258178  34.8240081  26.5631497  20.7570938
  29.2980379  22.6354411  26.7553109  29.1600177  21.9034650  27.3564648
  30.2085303  22.5463311  26.4737297  31.9262680  22.3474371  26.2436789
  32.6362298  21.7067563  26.2023407  31.8831988  22.5987265  27.1662969
  39.9149459  29.2841724  29.1643368  39.8562005  28.6000944  28.4973951
  40.3168977  30.0260714  28.7123994  30.6391614  19.3339588  28.0632428
  30.1028971  18.8830327  28.7154024  30.0508322  19.4685497  27.3202892
  28.9340157  36.1003638  21.9577087  29.1736756  36.7322162  22.6356105
  28.0909354  35.7491678  22.2442446  39.9166866  27.2481308  27.3957347
  39.0293645  26.9107230  27.5183746  40.4865417  26.5164339  27.6326113
  33.4468019  31.9082760  24.3618591  33.3738191  32.7137732  24.8737895
  33.0045412  32.1074726  23.5366612  33.2357799  31.1454530  17.8721412
  32.4525321  31.6876210  17.9659637  33.9350544  31.6628510  18.2715653
  44.3984206  22.6589525  22.1573909  44.3874083  23.5414241  21.7867842
  43.5301586  22.3061076  21.9628446  35.9066703  31.8069594  26.5176749
  36.6194675  32.4417059  26.4452651  35.4156731  31.9033460  25.7016751
  37.6284230  25.7120847  18.0894041  36.6940508  25.8322309  17.9198745
  37.8060898  24.8093314  17.8254051  41.0156781  21.5538166  18.6244075
  41.4817233  22.3866158  18.5504378  41.4664282  21.0883148  19.3289334
  30.9578616  29.5564038  27.3382320  31.6588076  30.1900521  27.4911714
  30.4873731  29.8978769  26.5777959  38.7579902  22.1108645  25.1634870
  38.1051352  22.3584553  24.5087323  39.1360282  21.2972783  24.8297348
  35.7187076  32.1468338  19.2663041  35.9009471  31.3289994  19.7290793
  36.5420062  32.3636031  18.8287931  36.0529242  31.0736523  16.5278089
  36.5817008  30.5628978  15.9148251  36.3157461  30.7579054  17.3923622
  34.8067475  22.8528456  31.6500908  34.1308112  22.7522586  32.3203283
  35.6295109  22.6967670  32.1136905  26.5546334  29.0900393  24.2713423
  27.1399771  28.3444081  24.4041327  26.3571173  29.4004349  25.1550087
  29.4084990  32.1251640  19.2875865  28.7395365  32.6097768  18.8039905
  29.2697859  32.3720861  20.2019244  33.5490258  34.1595384  25.8858524
  34.1008566  34.3227005  26.6507609  33.8896452  34.7499821  25.2138548
  28.0007024  18.5793666  30.1353443  28.6279063  18.1970743  30.7490967
  27.1434943  18.3607868  30.5009135  38.4001132  28.9856641  31.7407178
  38.9441036  29.5986599  31.2462133  37.8187977  29.5436220  32.2574191
  36.6858645  32.1077359  22.8722206  36.5609785  31.3067099  22.3633151
  37.3437737  32.6023553  22.3836176  38.7493554  29.9086379  24.5001756
  37.8023889  29.7891730  24.4280083  39.0976327  29.0208877  24.5828017
  31.1093127  15.7980518  28.3239998  31.6327529  16.0442815  29.0866307
  30.8905460  16.6300553  27.9043135  35.7539987  29.7039095  20.7006108
  35.6064950  28.7755803  20.8813678  36.5793481  29.7259186  20.2163183
  39.3574109  30.5267654  21.7870981  40.2820656  30.3210516  21.6495432
  39.1889412  30.2784055  22.6960322  32.3145672  16.7394213  26.0089668
  31.9742493  15.9402026  26.4110348  31.6084678  17.0395924  25.4366501
  34.2023236  17.9402535  24.3642987  33.9441014  18.8619605  24.3627317
  33.6708277  17.5432969  25.0543451  39.1469425  31.0453322  17.1433072
  39.3206303  30.4799744  16.3906925  39.6398316  31.8454217  16.9612562
  24.9646385  23.0567991  25.2096631  24.4199853  23.8327799  25.3416905
  25.8425735  23.4038795  25.0515752  45.0008816  23.8089745  18.7623372
  45.4439962  23.0597070  18.3642495  44.1235327  23.7999881  18.3797104
  40.1344598  30.3620086  14.2429970  40.8295502  30.9826779  14.4617285
  40.4767748  29.5115437  14.5182348  25.7512407  22.1837887  28.1026788
  25.0094143  22.3320522  28.6891418  25.4305151  22.4446153  27.2393537
  42.0336021  27.8119792  15.7717301  42.5587345  28.1507064  15.0466621
  41.9458373  26.8766807  15.5880436  33.6956069  31.7253865  27.9007178
  34.0043196  31.4803012  28.7729877  34.4931551  31.9300504  27.4126048
  33.7176682  33.8791775  20.1312554  33.2781672  33.3868154  20.8245411
  34.4684798  33.3364743  19.8904630  26.1969021  30.0703316  20.1337183
  27.0227040  29.7707088  19.7535826  25.8463072  29.3010938  20.5826971
  31.1650554  29.4229784  22.2034856  30.5430563  28.7600489  21.9037084
  31.8355421  29.4490916  21.5208504  31.2375081  17.9011572  31.7967362
  31.2863237  18.7773695  31.4145132  31.7797595  17.3588965  31.2239005
  41.7229927  28.4452695  31.0768499  40.9325471  28.4276834  30.5372999
  41.4863281  28.9840989  31.8317536  41.8427802  25.2945162  28.3901228
  41.8925807  25.1295169  29.3316751  41.7341725  24.4272421  27.9999109
  39.1331564  21.2776090  29.7060534  40.0341427  21.1382554  29.4144532
  39.2079539  21.4430544  30.6458712  33.4674370  18.6542944  28.5513721
  32.5977679  18.9476510  28.2796309  33.7033850  19.2383389  29.2720984
  43.3445999  27.7142103  28.6343249  43.0530807  28.0772084  29.4706710
  42.7318130  27.0009111  28.4556581  44.5441681  25.2794983  21.1545820
  45.3788572  25.7184787  21.3183380  44.6800810  24.8033636  20.3354065
  41.5933187  22.8374718  27.1023307  42.0687309  23.0302364  26.2942159
  40.6698752  22.8933904  26.8566691  36.1713403  14.8722561  26.0679141
  36.6895347  15.6083588  25.7425630  35.8168536  15.1786555  26.9025900
  40.2934856  19.7140478  25.3351613  41.2452279  19.8138575  25.3563837
  40.1238306  18.9218746  25.8449697  38.3149235  16.7996061  25.5211014
  37.7199168  17.0801074  24.8257502  38.0298932  17.2889962  26.2927755
  42.7722934  22.9346598  24.4493913  42.7399254  21.9962598  24.6353596
  43.3823557  23.0130634  23.7159737  42.9217422  19.7257641  24.4952196
  42.4056471  18.9416098  24.3082125  43.8057371  19.3976358  24.6598715
  48.5899484  23.9962604  23.5899949  49.3202872  23.7347892  24.1507653
  47.9806429  23.2591326  23.6302017  46.6714781  22.1370467  24.1874401
  45.9447944  22.0026432  23.5790892  46.2562068  22.4447296  24.9931119
  34.4944957  25.8560397  31.9521774  35.4147967  26.0338996  32.1461820
  34.4594540  24.9116442  31.8001473  27.4907030  23.7661431  24.5944555
  27.7093039  24.6978539  24.6132589  27.9032804  23.4069406  25.3799359
  32.3634895  19.3394637  33.9847304  32.2631622  20.2888994  33.9159395
  32.1456437  19.0112876  33.1123374  32.2266165  22.7691776  32.8012365
  31.7433247  23.5692136  33.0076254  32.3127104  22.7799721  31.8479809
  28.1539503  26.6596311  24.8380799  29.1082756  26.6280253  24.7710731
  27.9552026  26.1986934  25.6531025  28.7438885  25.2297427  27.4051597
  29.5631774  25.7241505  27.4286434  29.0175692  24.3129395  27.3769164
  41.8520017  17.6454700  20.4833892  42.6280407  18.1351152  20.7558508
  41.1268151  18.0712754  20.9405761  44.2892576  18.3582319  21.5407832
  44.8837066  18.1178055  20.8301140  44.3619159  17.6389450  22.1681368
  26.5089731  32.2015930  21.8550997  26.3744199  31.4416331  21.2888995
  26.0921794  32.9256830  21.3879786  46.5963648  21.6648520  20.3151253
  46.0363206  21.7341709  21.0882815  45.9907152  21.4889505  19.5950750
  29.6658857  33.0985247  22.0669440  29.5491241  34.0430680  21.9648130
  28.8451303  32.7958809  22.4555239  23.9973799  19.5635561  28.1043794
  24.6432663  19.0534514  28.5931019  23.7890950  20.3004242  28.6787219
  36.5227191  26.6316408  33.6035934  37.3918351  26.8057060  33.2422569
  36.0433943  27.4510825  33.4811664  30.6913371  33.7513509  25.2825368
  31.5940618  33.7837119  25.5991863  30.4650741  32.8213960  25.2971704
  32.4466973  32.5044496  21.9435447  31.4962604  32.5046357  21.8299819
  32.7499460  31.7577230  21.4271481  28.3371290  16.7103178  32.2018808
  29.2002751  16.3539982  32.4122133  27.7636701  16.3717072  32.8894212
  48.1819667  38.3405034  23.0081209  48.8198077  38.2211781  22.3044549
  48.0640510  39.2885878  23.0669161  44.9909373  38.2932462  22.9442734
  44.6527885  38.1773527  22.0563269  45.8599141  37.8923627  22.9243740
  40.8496189  40.1467938  18.9339625  40.2861054  40.0557875  18.1655912
  40.7348584  39.3267843  19.4142117  45.4729156  39.4467314  28.9028939
  45.4617797  39.0520112  28.0309443  45.6349796  38.7133386  29.4962711
  38.3960621  41.6419130  21.7723845  39.1881913  41.3009955  21.3570144
  38.6357271  41.7514105  22.6925998  46.4295748  43.8138906  14.2454090
  45.7783727  44.3992987  13.8588103  47.2240110  44.3445101  14.3049127
  40.3551375  40.9028043  14.6441224  41.1282251  40.3557030  14.5054100
  40.7076774  41.7672293  14.8555685  42.1936417  42.2304426  27.8508123
  41.9026283  43.1350056  27.7354790  42.8293402  42.2720953  28.5652193
  43.1192624  39.6081274  24.4409483  43.7156196  39.3837296  23.7266446
  43.1767596  38.8666020  25.0434931  42.6917653  37.0620709  12.2759674
  42.9443173  36.5402231  11.5143137  41.7542212  36.8986855  12.3786357
  47.7360935  36.0656488  20.0834417  48.5224025  35.6475911  19.7324834
  47.9999640  36.9702580  20.2516065  47.9071013  41.5029338  14.7823074
  47.2716846  41.5763965  15.4943979  47.5768419  42.0922937  14.1042153
  53.1369362  36.0031721  20.9867396  53.8694534  35.4330938  21.2205225
  52.3808718  35.6153321  21.4273901  42.4113941  38.9648815  14.4784049
  42.2950199  38.2893719  15.1465133  42.5216201  38.4781189  13.6616202
  44.7545482  38.4258962  18.1830738  44.3903689  37.8989583  18.8943660
  45.6112598  38.0357432  18.0097223  50.6594783  29.7153295  25.4462004
  50.3278108  30.5848706  25.2223219  50.0640396  29.3989579  26.1256035
  44.3950969  33.4548862  13.1792087  44.5625372  34.3229099  13.5462558
  44.2048138  33.6176144  12.2553376  47.1526302  41.9165841  24.8457917
  46.8527025  42.8190880  24.7373724  46.8077362  41.6498024  25.6979070
  40.6038784  38.3679638  20.8794621  39.6789280  38.2355852  21.0872313
  40.8523197  39.1473857  21.3764564  50.5523446  34.4348381  22.5255354
  49.6440323  34.3663790  22.2314115  50.5011042  34.9120326  23.3537180
  44.3740190  35.9106520  14.1638753  44.2539815  36.3563570  15.0024234
  43.6792778  36.2591837  13.6052292  37.9647595  38.0112911  21.7138410
  38.0939976  38.2647390  22.6277822  37.2845046  38.6040619  21.3943065
  42.1347082  48.6810161  17.8128885  42.0571112  49.6317987  17.8917365
  41.5308726  48.3356034  18.4703811  44.6264312  35.8538027  30.4690252
  43.8497646  36.4131947  30.4593116  45.2654875  36.3394810  30.9905122
  52.4185093  32.6364820  24.3033228  51.7759473  32.9297353  23.6573023
  51.9140021  32.5217740  25.1086425  50.0725256  36.3827993  14.9919087
  50.9843112  36.6155380  14.8166785  49.5634903  36.9665037  14.4294166
  42.8810684  38.6623480  30.0308219  43.6225369  39.2008524  29.7543042
  42.1747670  39.2889769  30.1879770  48.3566024  40.8052621  28.6280380
  48.7649380  40.3635031  27.8835012  47.6343285  40.2305248  28.8814573
  44.7097094  35.7425227  26.0013937  45.5558289  36.1664641  26.1448586
  44.6495732  35.0858852  26.6952500  48.6794839  41.3653811  22.3832669
  48.0503701  41.5299525  21.6808737  48.2920501  41.7795421  23.1543633
  52.5584070  42.3008249  19.7377033  51.8735109  42.6807151  19.1874066
  52.6427920  42.9103576  20.4708980  47.8596539  33.4029596  27.6595111
  47.6157471  34.1571656  27.1229386  48.1356470  33.7814943  28.4942358
  49.8135002  39.9468208  26.3372376  50.0251897  40.5899968  25.6606757
  49.7664750  39.1130525  25.8694306  47.4161231  32.5586029  23.2408948
  46.5545710  32.8567282  23.5325686  47.4423666  32.7756428  22.3089981
  44.2322800  41.1028219  19.6482754  44.6961146  41.3815922  18.8587376
  43.9679598  40.2011664  19.4655845  41.1246881  40.6499701  22.5862517
  41.6948239  41.0786969  21.9480002  41.7154993  40.3682286  23.2846703
  43.1691686  37.2251372  16.4572319  43.8715730  37.6772415  16.9246246
  42.8372315  36.5835191  17.0852212  41.6172048  35.8163128  30.8323529
  40.9870709  36.4979409  31.0658925  41.5108136  35.7046210  29.8876667
  36.9117020  35.4834924  21.7589453  36.1216074  35.7392453  21.2829563
  37.4028268  36.2983262  21.8641493  50.9280830  42.8240164  24.5094734
  51.7498274  42.4220351  24.2277415  50.9243233  42.7208398  25.4610849
  38.8631766  35.8479504  18.7172929  38.0662929  35.9598198  19.2356425
  38.6357358  36.1866156  17.8513820  44.6937433  42.3724207  26.6655444
  44.7581866  42.8344614  27.5013616  43.9848357  41.7421572  26.7937754
  35.1954723  35.7365415  24.1904443  35.4462762  36.6212425  24.4562019
  35.7314272  35.5570016  23.4179535  59.0186823  39.1678912  20.8579705
  58.2650531  38.5986310  20.7023709  59.1534364  39.1341577  21.8050340
  44.4085451  44.0392314  16.5334424  44.2731126  44.8843850  16.9619272
  44.9495264  44.2411592  15.7700358  40.8952791  30.1183894  33.1948780
  40.5019736  29.5650093  33.8696424  41.7118931  30.4294473  33.5855297
  37.8614848  41.5567752  17.1062349  38.3739369  42.3511003  17.2567914
  38.5137561  40.8594043  17.0395951  39.6709733  44.6733509  19.1885103
  39.8476361  45.5951473  19.0006087  40.4666567  44.3591928  19.6179482
  43.8120752  31.5341773  30.7869036  44.5530465  32.1348926  30.7073499
  44.0438675  30.7919411  30.2287079  38.9562090  36.7198141  29.0647266
  38.8415605  35.8183398  29.3654365  38.1006607  36.9661837  28.7132082
  46.0353927  44.6615881  30.6634766  45.5917782  43.8752259  30.3455671
  46.6971141  44.8495031  29.9978657  40.7941049  46.1911682  25.1895445
  41.3448474  46.0628746  24.4172439  39.9552525  46.4906571  24.8390338
  48.1335165  44.9418681  28.6916168  48.1153641  45.7627562  28.1996437
  49.0555086  44.8172756  28.9166309  44.5908220  42.4562810  29.5339676
  45.1236556  41.6951098  29.3038984  44.0622301  42.1636462  30.2763831
  47.7577915  27.5622876  25.0633318  47.4142184  28.4524518  24.9872428
  48.1256877  27.3724534  24.2002903  35.8263765  39.8856407  17.8821920
  36.6638987  40.2953415  17.6655628  36.0042033  38.9455849  17.8522114
  47.7228197  37.5531487  13.5705753  47.2074821  38.3236092  13.8094140
  47.4505506  36.8796624  14.1938814  45.3075308  32.3981188  18.6290991
  44.4516905  32.0088039  18.4496630  45.7202260  32.4773149  17.7690777
  46.8374455  29.9327531  23.0282551  46.3339251  29.8957667  22.2150356
  47.1305062  30.8420274  23.0879208  43.0817341  30.0166261  22.0348733
  43.9470338  29.8209070  21.6754622  43.1494850  29.7876613  22.9618090
  52.6962471  40.3063842  15.5058926  51.9191914  39.9675002  15.0614088
  53.3753952  40.3116465  14.8313891  47.5114501  35.4258579  15.3965534
  47.2064636  35.7404729  16.2475677  48.4644943  35.5039999  15.4392867
  45.9560932  41.5848803  17.0458488  45.4282294  40.8501562  16.7331726
  45.4548435  42.3623479  16.7998456  50.9353778  39.7797823  22.1625534
  50.2777453  40.4697085  22.2505663  51.7394178  40.1694255  22.5059521
  40.6879660  32.2468469  19.4065100  41.2623412  32.0243651  18.6738293
  41.2750642  32.3157164  20.1593701  49.7459237  38.1342196  20.2129476
  50.2591119  38.7672188  20.7151186  50.3960461  37.5343391  19.8472836
  41.0149247  34.2772930  13.4260985  40.1786559  34.6147617  13.7470260
  40.8754017  34.1421910  12.4888122  42.9902328  29.1209718  18.1340169
  42.3366740  28.8058735  17.5096784  42.9482802  28.4985458  18.8599992
  44.1013533  39.4029013  10.0493461  43.1940594  39.1718266  10.2484610
  44.5984565  38.6066632  10.2367443  47.0081611  48.1126520  12.9690147
  46.3343310  48.4158217  13.5775105  47.3947433  48.9155601  12.6195604
  46.2240068  35.6091652  22.4587817  45.3062629  35.8306599  22.3009505
  46.6400212  35.6837962  21.5999524  47.0075116  37.0083067  17.5890497
  47.7546935  37.5204464  17.2797619  47.2766705  36.6867120  18.4494890
  45.2801766  39.5041608  14.5717451  44.3712985  39.2200641  14.6689921
  45.3096850  39.9240686  13.7120758  50.5121033  43.1148197  18.3408619
  50.0583360  42.2739107  18.3973809  49.8815000  43.7509596  18.6783399
  49.4553953  34.0440183  19.5709286  48.7176710  33.5317570  19.9019529
  49.7080726  33.6040565  18.7592563  48.9553973  44.9524694  19.2758437
  49.2476947  45.5129751  18.5570803  49.4652593  45.2453255  20.0311596
  49.5565580  26.8216435  20.1651056  49.8624457  25.9613799  19.8776971
  50.2818185  27.4134056  19.9650049  35.8489936  37.2247122  18.5532653
  35.6514336  36.6316483  17.8283720  35.2936600  36.9199332  19.2708592
  43.8286660  37.1170229  20.6727247  43.8835270  36.1644065  20.5969723
  43.0177862  37.2729668  21.1568545  44.9777854  41.0450352  11.9105530
  44.5397284  40.3286211  11.4511167  45.7188295  41.2726466  11.3490621
  41.7679020  35.7347288  18.4317625  40.9546885  36.0341459  18.8382818
  42.2638014  35.3402977  19.1492108  43.9187598  45.7305045  20.3651890
  43.8763777  45.9565891  19.4360422  44.8350297  45.4968420  20.5137691
  47.3653232  36.1989113  27.2632519  47.7202619  36.4260586  28.1226985
  48.0125363  36.5307490  26.6409775  53.0950969  39.3207549  17.9681848
  52.9568867  39.5109145  17.0403038  52.7387187  40.0826931  18.4249899
  41.2593095  33.3065644  24.0478860  41.8992474  33.1654403  23.3501824
  40.4270625  33.0200157  23.6717462  53.1220348  41.3884076  22.9793120
  53.5556855  41.2959365  23.8276174  53.8351929  41.3641576  22.3413136
  42.0353399  42.6068074  20.1613853  42.8293997  42.1118394  19.9596428
  41.3245091  42.0785937  19.7981558  46.8548243  44.9886170  24.5126220
  46.9085265  45.5577106  25.2803936  45.9863024  45.1588055  24.1480258
  38.3436162  36.7511156  16.2373606  37.4133750  36.6895611  16.4543568
  38.4393634  36.2287109  15.4410247  38.2621711  33.2765969  18.8251847
  38.5228528  34.1911302  18.7161008  39.0838883  32.8090411  18.9748460
  39.7346636  34.6903726  25.9950672  40.4069690  34.4821088  25.3463321
  38.9076423  34.4925812  25.5555904  53.9835898  41.4307776  25.5126005
  54.1771788  42.3353587  25.7585280  53.8836516  40.9715195  26.3464590
  45.6372208  31.3165667  28.0116333  44.9900124  32.0155617  27.9180809
  46.4073224  31.7501811  28.3792581  49.0451006  41.5814519  31.0866886
  48.8936513  41.3525071  30.1696970  49.0355686  42.5385120  31.0998231
  45.8136343  39.1546432  26.0713152  46.7428403  39.3057591  25.8982120
  45.3927373  39.2430453  25.2161799  44.6124675  43.1797096  23.8411690
  44.4735760  42.8115881  24.7137628  43.8239271  43.6944736  23.6695648
  45.2072827  48.2806193  15.1837226  45.3824582  47.8094236  15.9982849
  44.5205615  48.9071959  15.4118487  46.1629890  42.5578699  21.2300528
  45.8279722  42.5179469  22.1258178  45.6633835  41.8923415  20.7570938
  40.1374134  37.9646329  26.7553109  39.9993932  37.2326568  27.3564648
  41.0479057  37.8755229  26.4737297  49.0989081  39.9034733  11.5037587
  48.4818252  39.1781561  11.4070640  48.6305570  40.6644094  11.1604662
  42.7656434  37.6766288  26.2436789  43.4756053  37.0359480  26.2023407
  42.7225743  37.9279183  27.1662969  50.7543213  44.6133642  29.1643368
  50.6955759  43.9292862  28.4973951  51.1562731  45.3552632  28.7123994
  41.4785368  34.6631506  28.0632428  40.9422725  34.2122245  28.7154024
  40.8902077  34.7977415  27.3202892  39.7733912  51.4295555  21.9577087
  40.0130510  52.0614080  22.6356105  38.9303108  51.0783595  22.2442446
  50.7560620  42.5773226  27.3957347  49.8687399  42.2399147  27.5183746
  51.3259171  41.8456257  27.6326113  32.4089767  38.9097317  20.7200399
  33.0960807  38.5959047  20.1321414  32.2537896  39.8138682  20.4467650
  37.2124490  33.7987514  25.1485423  37.1282678  33.1913183  24.4135832
  36.3907196  34.2896532  25.1494919  44.2861774  47.2374678  24.3618591
  44.2131945  48.0429649  24.8737895  43.8439167  47.4366644  23.5366612
  44.0751553  46.4746448  17.8721412  43.2919075  47.0168128  17.9659637
  44.7744299  46.9920428  18.2715653  47.3848203  32.2841077  20.5155618
  47.8816903  31.5311040  20.1956688  46.6135185  32.3205394  19.9498827
  55.2377961  37.9881443  22.1573909  55.2267837  38.8706158  21.7867842
  54.3695340  37.6352994  21.9628446  46.7460457  47.1361512  26.5176749
  47.4588429  47.7708977  26.4452651  46.2550486  47.2325378  25.7016751
  48.4677984  41.0412765  18.0894041  47.5334263  41.1614227  17.9198745
  48.6454653  40.1385231  17.8254051  43.9683172  34.4258460  20.2427302
  43.5980960  33.8729501  20.9308208  44.4642265  33.8216594  19.6902302
  51.8550535  36.8830084  18.6244075  52.3210988  37.7158075  18.5504378
  52.3058036  36.4175065  19.3289334  41.7972371  44.8855955  27.3382320
  42.4981830  45.5192438  27.4911714  41.3267486  45.2270687  26.5777959
  49.9226767  43.2273905  15.6230227  50.1986611  43.1130500  16.5324101
  49.0531265  42.8291390  15.5842400  49.8267198  29.2510671  22.6634976
  48.9130278  29.4814898  22.8317183  50.2560300  29.3349115  23.5149009
  49.5973657  37.4400563  25.1634870  48.9445107  37.6876470  24.5087323
  49.9754037  36.6264701  24.8297348  46.5580831  47.4760256  19.2663041
  46.7403225  46.6581912  19.7290793  47.3813817  47.6927948  18.8287931
  46.8922996  46.4028441  16.5278089  47.4210763  45.8920896  15.9148251
  47.1551216  46.0870971  17.3923622  45.6461230  38.1820374  31.6500908
  44.9701867  38.0814503  32.3203283  46.4688864  38.0259588  32.1136905
  37.3940089  44.4192310  24.2713423  37.9793526  43.6735998  24.4041327
  37.1964927  44.7296267  25.1550087  40.2478744  47.4543558  19.2875865
  39.5789119  47.9389685  18.8039905  40.1091614  47.7012778  20.2019244
  31.9857744  36.9897911  22.9917866  32.0241843  36.4561501  23.7854984
  31.4798036  36.4633116  22.3728843  44.3884013  49.4887301  25.8858524
  44.9402321  49.6518923  26.6507609  44.7290206  50.0791739  25.2138548
  39.3648506  31.8362451  26.4880408  39.4289832  32.6977282  26.0757806
  39.3015626  31.2236453  25.7552767  38.8400778  33.9085584  30.1353443
  39.4672817  33.5262661  30.7490967  37.9828697  33.6899786  30.5009135
  49.2394887  44.3148559  31.7407178  49.7834791  44.9278517  31.2462133
  48.6581732  44.8728137  32.2574191  35.6166321  35.7162013  16.0671797
  35.9119762  34.8072691  16.0138851  34.7154357  35.6949752  15.7452800
  47.5252400  47.4369277  22.8722206  47.4003539  46.6359017  22.3633151
  48.1831491  47.9315470  22.3836176  39.1460568  33.7918009  22.0499346
  38.4247154  34.4053977  21.9106819  39.9353824  34.3275774  21.9715992
  49.5887308  45.2378297  24.5001756  48.6417644  45.1183648  24.4280083
  49.9370081  44.3500795  24.5828017  41.9486882  31.1272436  28.3239998
  42.4721283  31.3734732  29.0866307  41.7299215  31.9592471  27.9043135
  37.3454163  33.3976110  16.1911122  37.0166869  32.5173489  16.0086228
  37.6993533  33.3423779  17.0787512  46.5933742  45.0331013  20.7006108
  46.4458704  44.1047721  20.8813678  47.4187235  45.0551104  20.2163183
  40.4595986  33.6849080  16.5586600  40.7992058  34.2135001  15.8365209
  40.9068106  34.0229486  17.3345167  50.1967863  45.8559572  21.7870981
  51.1214411  45.6502433  21.6495432  50.0283167  45.6075973  22.6960322
  43.1539427  32.0686131  26.0089668  42.8136247  31.2693944  26.4110348
  42.4478433  32.3687842  25.4366501  43.8055899  29.1535443  24.4616991
  44.6281968  28.6795922  24.3395882  44.0493962  29.9325927  24.9615678
  42.4464133  32.1823702  14.7579893  43.1672496  32.5604955  14.2543610
  41.8229437  32.9012579  14.8614871  46.5895256  32.8868851  15.6938225
  46.8058870  33.7693489  15.3927053  46.1089323  32.4955064  14.9643867
  41.3294477  35.8454564  22.2708970  41.1839058  36.1594867  23.1633251
  40.8519681  36.4639464  21.7179868  43.1890860  32.8357112  22.3189859
  43.1752429  31.9398205  21.9822157  43.9063288  32.8427776  22.9528145
  45.0416991  33.2694452  24.3642987  44.7834769  34.1911523  24.3627317
  44.5102031  32.8724887  25.0543451  49.9863180  46.3745239  17.1433072
  50.1600057  45.8091662  16.3906925  50.4792071  47.1746134  16.9612562
  35.8040139  38.3859908  25.2096631  35.2593608  39.1619716  25.3416905
  36.6819489  38.7330713  25.0515752  42.5927756  31.7171492  17.5877430
  42.7143667  30.7888138  17.7868317  42.3029798  31.7310178  16.6755745
  45.4618947  29.4026403  20.7244149  45.4840643  29.4665736  19.7696129
  45.8787006  28.5630911  20.9184656  55.8402571  39.1381662  18.7623372
  56.2833717  38.3888987  18.3642495  54.9629081  39.1291799  18.3797104
  50.9738352  45.6912004  14.2429970  51.6689257  46.3118696  14.4617285
  51.3161502  44.8407355  14.5182348  36.5906161  37.5129805  28.1026788
  35.8487897  37.6612440  28.6891418  36.2698906  37.7738070  27.2393537
  52.8729775  43.1411709  15.7717301  53.3981099  43.4798982  15.0466621
  52.7852128  42.2058725  15.5880436  44.5349824  47.0545783  27.9007178
  44.8436950  46.8094930  28.7729877  45.3325306  47.2592421  27.4126048
  44.5570436  49.2083693  20.1312554  44.1175426  48.7160071  20.8245411
  45.3078553  48.6656660  19.8904630  37.0362775  45.3995233  20.1337183
  37.8620795  45.0999005  19.7535826  36.6856827  44.6302856  20.5826971
  42.0044308  44.7521702  22.2034856  41.3824317  44.0892407  21.9037084
  42.6749175  44.7782834  21.5208504  35.2371380  43.3181560  21.0926116
  34.4003288  42.8903734  20.9110117  35.2095025  43.5114003  22.0296907
  42.0768836  33.2303490  31.7967362  42.1256991  34.1065612  31.4145132
  42.6191350  32.6880883  31.2239005  52.5623681  43.7744613  31.0768499
  51.7719225  43.7568752  30.5372999  52.3257036  44.3132907  31.8317536
  52.6821556  40.6237079  28.3901228  52.7319561  40.4587087  29.3316751
  52.5735480  39.7564338  27.9999109  41.5657815  43.3025625  15.6793317
  41.7145935  43.9861089  15.0259989  42.3724259  43.2830715  16.1942772
  49.9725319  36.6068007  29.7060534  50.8735182  36.4674472  29.4144532
  50.0473293  36.7722462  30.6458712  44.3068124  33.9834862  28.5513721
  43.4371434  34.2768428  28.2796309  44.5427604  34.5675307  29.2720984
  54.1839753  43.0434021  28.6343249  53.8924562  43.4064001  29.4706710
  53.5711884  42.3301029  28.4556581  55.3835436  40.6086901  21.1545820
  56.2182327  41.0476705  21.3183380  55.5194564  40.1325554  20.3354065
  52.4326941  38.1666635  27.1023307  52.9081063  38.3594282  26.2942159
  51.5092507  38.2225821  26.8566691  39.3210448  39.3290803  16.6854386
  39.0756490  38.4253133  16.8834596  39.4906363  39.3307953  15.7433864
  47.0107158  30.2014479  26.0679141  47.5289102  30.9375506  25.7425630
  46.6562291  30.5078472  26.9025900  38.5906096  35.0619160  14.1840547
  37.8975341  35.1363515  13.5280583  38.3457847  34.2979504  14.7062064
  47.2619752  26.6214762  21.5880038  47.5421506  25.9537951  22.2140464
  48.0470359  26.8143857  21.0754702  45.0653221  45.7973755  13.1505064
  44.4927188  46.4163943  12.6975536  45.6386014  46.3473117  13.6844986
  51.1328610  35.0432396  25.3351613  52.0846033  35.1430493  25.3563837
  50.9632061  34.2510664  25.8449697  49.1542990  32.1287979  25.5211014
  48.5592922  32.4092991  24.8257502  48.8692687  32.6181880  26.2927755
  48.2850480  46.0810906  14.2813646  49.2181154  46.0156467  14.4846522
  48.1973693  46.9167172  13.8228179  50.9138497  45.3976776  11.2417594
  50.8352129  45.0636639  12.1353352  51.7348164  45.8898544  11.2409066
  53.6116688  38.2638515  24.4493913  53.5793008  37.3254516  24.6353596
  54.2217312  38.3422552  23.7159737  45.4500019  37.1334568  10.4921117
  46.3959124  37.0040776  10.5609535  45.0714264  36.3949230  10.9690545
  53.7611177  35.0549559  24.4952196  53.2450225  34.2708015  24.3082125
  54.6451125  34.7268275  24.6598715  51.4221904  28.7990574  20.4548008
  51.2246725  28.4905662  21.3391340  52.0321609  29.5252213  20.5845938
  59.4293238  39.3254522  23.5899949  60.1596627  39.0639810  24.1507653
  58.8200184  38.5883244  23.6302017  57.5108535  37.4662385  24.1874401
  56.7841699  37.3318350  23.5790892  57.0955822  37.7739213  24.9931119
  45.3338712  41.1852314  31.9521774  46.2541721  41.3630913  32.1461820
  45.2988295  40.2408360  31.8001473  43.6342936  35.0584545  10.4276002
  42.7274392  34.7617657  10.5038715  43.9118917  34.7614363   9.5610288
  34.5520877  36.3790908  20.8775048  34.2323661  35.5256216  20.5849422
  34.0054305  36.5939486  21.6333016  38.3300784  39.0953349  24.5944555
  38.5486794  40.0270457  24.6132589  38.7426558  38.7361323  25.3799359
  45.2505002  29.6021434  16.5820243  44.4405730  29.2568519  16.9575489
  45.9389419  29.2928978  17.1707855  47.1795550  28.6799481  18.2044540
  47.7326589  29.0994934  18.8634563  47.4165637  27.7535229  18.2467496
  43.2028649  34.6686555  33.9847304  43.1025376  35.6180912  33.9159395
  42.9850192  34.3404794  33.1123374  34.4209137  39.9993819  22.8468170
  33.7272608  39.5847772  22.3338124  35.1682128  40.0414356  22.2501589
  50.5574357  30.7900006  17.7123204  49.9773026  31.4484810  17.3301256
  50.2910290  29.9677351  17.3010622  49.0077924  30.1905064  19.9144524
  49.5077702  30.3021598  19.1058843  49.6513532  29.8866117  20.5545333
  43.0659920  38.0983694  32.8012365  42.5827001  38.8984054  33.0076254
  43.1520859  38.1091638  31.8479809  36.3345879  39.9312073  20.7234185
  36.3116567  40.0299761  19.7716068  36.6446516  40.7777224  21.0451351
  38.9933257  41.9888228  24.8380799  39.9476511  41.9572171  24.7710731
  38.7945781  41.5278852  25.6531025  39.5832639  40.5589344  27.4051597
  40.4025528  41.0533423  27.4286434  39.8569447  39.6421312  27.3769164
  49.3399235  32.9500097  16.7679552  48.4525090  33.2349747  16.5499747
  49.7553224  32.7893860  15.9206829  52.6913772  32.9746618  20.4833892
  53.4674162  33.4643070  20.7558508  51.9661906  33.4004672  20.9405761
  55.1286330  33.6874237  21.5407832  55.7230821  33.4469973  20.8301140
  55.2012914  32.9681367  22.1681368  37.3483486  47.5307848  21.8550997
  37.2137954  46.7708249  21.2888995  36.9315548  48.2548748  21.3879786
  48.4842449  42.7144771  10.8627572  49.1878299  42.9194774  11.4785228
  47.7605098  43.2821533  11.1276656  49.3140259  38.4654633  16.9829842
  49.2575461  38.9223184  16.1437475  49.8668602  37.7045317  16.8052685
  53.1245065  34.2544364  17.8079962  52.8681999  33.8541000  18.6388170
  52.4997933  34.9688158  17.6830101  57.4357403  36.9940438  20.3151253
  56.8756961  37.0633627  21.0882815  56.8300906  36.8181422  19.5950750
  40.5052612  48.4277165  22.0669440  40.3884996  49.3722597  21.9648130
  39.6845058  48.1250726  22.4555239  50.3929146  43.1527300  12.9126032
  51.2274750  42.7208499  12.7303507  50.2313489  42.9809314  13.8402927
  50.0475038  39.6559414  14.2782372  49.9923842  39.4903685  13.3370816
  49.4221094  40.3635447  14.4344561  34.8367553  34.8927478  28.1043794
  35.4826417  34.3826432  28.5931019  34.6284705  35.6296160  28.6787219
  47.3620946  41.9608326  33.6035934  48.2312105  42.1348978  33.2422569
  46.8827697  42.7802742  33.4811664  43.3571164  29.1567523  13.8567690
  43.3449834  30.1009363  14.0135961  44.2494586  28.9737668  13.5627151
  41.5307126  49.0805427  25.2825368  42.4334373  49.1129037  25.5991863
  41.3044496  48.1505878  25.2971704  43.2860728  47.8336413  21.9435447
  42.3356359  47.8338275  21.8299819  43.5893214  47.0869148  21.4271481
  47.1723283  25.7510299  18.1113627  46.4055679  25.1968786  18.2570309
  47.5833988  25.8232168  18.9727778  39.1765044  32.0395095  32.2018808
  40.0396506  31.6831900  32.4122133  38.6030455  31.7008990  32.8894212
  59.0213421  53.6696952  23.0081209  59.6591831  53.5503699  22.3044549
  58.9034264  54.6177796  23.0669161  55.8303128  53.6224380  22.9442734
  55.4921639  53.5065444  22.0563269  56.6992896  53.2215545  22.9243740
  51.6889943  55.4759856  18.9339625  51.1254808  55.3849793  18.1655912
  51.5742338  54.6559761  19.4142117  56.3122911  54.7759231  28.9028939
  56.3011551  54.3812030  28.0309443  56.4743550  54.0425304  29.4962711
  49.2354375  56.9711048  21.7723845  50.0275667  56.6301872  21.3570144
  49.4751025  57.0806023  22.6925998  57.2689502  59.1430824  14.2454090
  56.6177482  59.7284904  13.8588103  58.0633865  59.6737019  14.3049127
  51.1945129  56.2319961  14.6441224  51.9676005  55.6848948  14.5054100
  51.5470528  57.0964210  14.8555685  53.0330172  57.5596343  27.8508123
  52.7420038  58.4641974  27.7354790  53.6687156  57.6012871  28.5652193
  53.9586379  54.9373192  24.4409483  54.5549951  54.7129214  23.7266446
  54.0161350  54.1957937  25.0434931  53.5311407  52.3912627  12.2759674
  53.7836928  51.8694148  11.5143137  52.5935966  52.2278773  12.3786357
  58.5754690  51.3948405  20.0834417  59.3617779  50.9767829  19.7324834
  58.8393394  52.2994498  20.2516065  58.7464767  56.8321256  14.7823074
  58.1110600  56.9055882  15.4943979  58.4162174  57.4214855  14.1042153
  63.9763117  51.3323639  20.9867396  64.7088289  50.7622855  21.2205225
  63.2202473  50.9445239  21.4273901  53.2507696  54.2940733  14.4784049
  53.1343954  53.6185636  15.1465133  53.3609956  53.8073107  13.6616202
  55.5939237  53.7550880  18.1830738  55.2297444  53.2281501  18.8943660
  56.4506353  53.3649349  18.0097223  61.4988537  45.0445213  25.4462004
  61.1671862  45.9140624  25.2223219  60.9034151  44.7281497  26.1256035
  55.2344724  48.7840780  13.1792087  55.4019126  49.6521016  13.5462558
  55.0441893  48.9468062  12.2553376  57.9920057  57.2457759  24.8457917
  57.6920780  58.1482798  24.7373724  57.6471116  56.9789942  25.6979070
  51.4432538  53.6971556  20.8794621  50.5183035  53.5647770  21.0872313
  51.6916952  54.4765775  21.3764564  61.3917201  49.7640299  22.5255354
  60.4834078  49.6955707  22.2314115  61.3404796  50.2412244  23.3537180
  55.2133945  51.2398437  14.1638753  55.0933570  51.6855488  15.0024234
  54.5186533  51.5883755  13.6052292  48.8041349  53.3404829  21.7138410
  48.9333731  53.5939308  22.6277822  48.1238801  53.9332537  21.3943065
  52.9740837  64.0102079  17.8128885  52.8964866  64.9609904  17.8917365
  52.3702480  63.6647952  18.4703811  55.4658066  51.1829945  30.4690252
  54.6891400  51.7423865  30.4593116  56.1048629  51.6686728  30.9905122
  63.2578847  47.9656737  24.3033228  62.6153227  48.2589270  23.6573023
  62.7533776  47.8509658  25.1086425  60.9119011  51.7119911  14.9919087
  61.8236867  51.9447297  14.8166785  60.4028658  52.2956955  14.4294166
  53.7204439  53.9915398  30.0308219  54.4619123  54.5300442  29.7543042
  53.0141424  54.6181687  30.1879770  59.1959778  56.1344538  28.6280380
  59.6043134  55.6926949  27.8835012  58.4737040  55.5597166  28.8814573
  55.5490848  51.0717145  26.0013937  56.3952044  51.4956559  26.1448586
  55.4889486  50.4150769  26.6952500  59.5188593  56.6945729  22.3832669
  58.8897455  56.8591443  21.6808737  59.1314255  57.1087339  23.1543633
  63.3977825  57.6300167  19.7377033  62.7128863  58.0099068  19.1874066
  63.4821674  58.2395493  20.4708980  58.6990294  48.7321513  27.6595111
  58.4551226  49.4863574  27.1229386  58.9750224  49.1106861  28.4942358
  60.6528756  55.2760126  26.3372376  60.8645652  55.9191886  25.6606757
  60.6058505  54.4422442  25.8694306  58.2554985  47.8877946  23.2408948
  57.3939464  48.1859200  23.5325686  58.2817420  48.1048345  22.3089981
  55.0716555  56.4320137  19.6482754  55.5354900  56.7107840  18.8587376
  54.8073353  55.5303582  19.4655845  51.9640636  55.9791619  22.5862517
  52.5341993  56.4078887  21.9480002  52.5548748  55.6974203  23.2846703
  54.0085441  52.5543289  16.4572319  54.7109484  53.0064333  16.9246246
  53.6766069  51.9127108  17.0852212  52.4565802  51.1455046  30.8323529
  51.8264463  51.8271327  31.0658925  52.3501890  51.0338128  29.8876667
  47.7510775  50.8126842  21.7589453  46.9609829  51.0684371  21.2829563
  48.2422022  51.6275180  21.8641493  61.7674584  58.1532081  24.5094734
  62.5892028  57.7512269  24.2277415  61.7636987  58.0500315  25.4610849
  49.7025520  51.1771421  18.7172929  48.9056684  51.2890116  19.2356425
  49.4751112  51.5158074  17.8513820  55.5331188  57.7016125  26.6655444
  55.5975620  58.1636532  27.5013616  54.8242112  57.0713489  26.7937754
  46.0348478  51.0657333  24.1904443  46.2856516  51.9504342  24.4562019
  46.5708026  50.8861934  23.4179535  69.8580577  54.4970830  20.8579705
  69.1044286  53.9278228  20.7023709  69.9928119  54.4633494  21.8050340
  55.2479206  59.3684232  16.5334424  55.1124880  60.2135768  16.9619272
  55.7889018  59.5703510  15.7700358  51.7346545  45.4475812  33.1948780
  51.3413491  44.8942010  33.8696424  52.5512686  45.7586390  33.5855297
  48.7008603  56.8859670  17.1062349  49.2133124  57.6802920  17.2567914
  49.3531316  56.1885961  17.0395951  50.5103488  60.0025426  19.1885103
  50.6870116  60.9243391  19.0006087  51.3060321  59.6883846  19.6179482
  54.6514506  46.8633691  30.7869036  55.3924220  47.4640844  30.7073499
  54.8832429  46.1211329  30.2287079  49.7955844  52.0490058  29.0647266
  49.6809359  51.1475315  29.3654365  48.9400362  52.2953755  28.7132082
  56.8747682  59.9907799  30.6634766  56.4311536  59.2044177  30.3455671
  57.5364896  60.1786949  29.9978657  51.6334803  61.5203600  25.1895445
  52.1842228  61.3920664  24.4172439  50.7946279  61.8198489  24.8390338
  58.9728920  60.2710598  28.6916168  58.9547395  61.0919480  28.1996437
  59.8948840  60.1464674  28.9166309  55.4301974  57.7854728  29.5339676
  55.9630311  57.0243016  29.3038984  54.9016055  57.4928380  30.2763831
  58.5971669  42.8914794  25.0633318  58.2535939  43.7816436  24.9872428
  58.9650632  42.7016452  24.2002903  46.6657520  55.2148324  17.8821920
  47.5032742  55.6245333  17.6655628  46.8435787  54.2747767  17.8522114
  58.5621952  52.8823405  13.5705753  58.0468575  53.6528010  13.8094140
  58.2899260  52.2088541  14.1938814  56.1469063  47.7273106  18.6290991
  55.2910659  47.3379956  18.4496630  56.5596015  47.8065067  17.7690777
  57.6768209  45.2619449  23.0282551  57.1733005  45.2249584  22.2150356
  57.9698816  46.1712192  23.0879208  53.9211095  45.3458179  22.0348733
  54.7864092  45.1500987  21.6754622  53.9888604  45.1168531  22.9618090
  63.5356226  55.6355760  15.5058926  62.7585669  55.2966919  15.0614088
  64.2147707  55.6408383  14.8313891  58.3508255  50.7550497  15.3965534
  58.0458391  51.0696646  16.2475677  59.3038697  50.8331917  15.4392867
  56.7954687  56.9140720  17.0458488  56.2676048  56.1793480  16.7331726
  56.2942190  57.6915397  16.7998456  61.7747533  55.1089741  22.1625534
  61.1171207  55.7989002  22.2505663  62.5787932  55.4986173  22.5059521
  51.5273414  47.5760387  19.4065100  52.1017166  47.3535568  18.6738293
  52.1144397  47.6449081  20.1593701  60.5852992  53.4634114  20.2129476
  61.0984873  54.0964105  20.7151186  61.2354216  52.8635309  19.8472836
  51.8543002  49.6064848  13.4260985  51.0180314  49.9439534  13.7470260
  51.7147771  49.4713828  12.4888122  53.8296082  44.4501636  18.1340169
  53.1760495  44.1350653  17.5096784  53.7876556  43.8277376  18.8599992
  54.9407287  54.7320931  10.0493461  54.0334349  54.5010184  10.2484610
  55.4378319  53.9358550  10.2367443  57.8475366  63.4418438  12.9690147
  57.1737065  63.7450135  13.5775105  58.2341188  64.2447518  12.6195604
  57.0633823  50.9383569  22.4587817  56.1456384  51.1598516  22.3009505
  57.4793966  51.0129880  21.5999524  57.8468870  52.3374985  17.5890497
  58.5940689  52.8496382  17.2797619  58.1160460  52.0159038  18.4494890
  56.1195520  54.8333526  14.5717451  55.2106740  54.5492558  14.6689921
  56.1490604  55.2532604  13.7120758  61.3514788  58.4440115  18.3408619
  60.8977115  57.6031025  18.3973809  60.7208755  59.0801513  18.6783399
  60.2947707  49.3732101  19.5709286  59.5570464  48.8609487  19.9019529
  60.5474481  48.9332483  18.7592563  59.7947727  60.2816612  19.2758437
  60.0870701  60.8421669  18.5570803  60.3046348  60.5745173  20.0311596
  60.3959335  42.1508353  20.1651056  60.7018212  41.2905717  19.8776971
  61.1211940  42.7425973  19.9650049  46.6883691  52.5539040  18.5532653
  46.4908091  51.9608400  17.8283720  46.1330355  52.2491250  19.2708592
  54.6680415  52.4462146  20.6727247  54.7229024  51.4935983  20.5969723
  53.8571617  52.6021585  21.1568545  55.8171608  56.3742269  11.9105530
  55.3791038  55.6578128  11.4511167  56.5582049  56.6018384  11.3490621
  52.6072774  51.0639206  18.4317625  51.7940640  51.3633376  18.8382818
  53.1031769  50.6694895  19.1492108  54.7581352  61.0596963  20.3651890
  54.7157531  61.2857809  19.4360422  55.6744051  60.8260337  20.5137691
  58.2046986  51.5281030  27.2632519  58.5596374  51.7552504  28.1226985
  58.8519117  51.8599407  26.6409775  63.9344723  54.6499466  17.9681848
  63.7962622  54.8401062  17.0403038  63.5780942  55.4118849  18.4249899
  52.0986849  48.6357561  24.0478860  52.7386229  48.4946321  23.3501824
  51.2664380  48.3492075  23.6717462  63.9614103  56.7175993  22.9793120
  64.3950609  56.6251282  23.8276174  64.6745683  56.6933494  22.3413136
  52.8747153  57.9359992  20.1613853  53.6687752  57.4410312  19.9596428
  52.1638845  57.4077855  19.7981558  57.6941998  60.3178087  24.5126220
  57.7479020  60.8869024  25.2803936  56.8256779  60.4879972  24.1480258
  49.1829917  52.0803074  16.2373606  48.2527505  52.0187529  16.4543568
  49.2787389  51.5579026  15.4410247  49.1015466  48.6057886  18.8251847
  49.3622283  49.5203220  18.7161008  49.9232638  48.1382329  18.9748460
  50.5740391  50.0195644  25.9950672  51.2463444  49.8113006  25.3463321
  49.7470177  49.8217730  25.5555904  64.8229652  56.7599694  25.5126005
  65.0165542  57.6645504  25.7585280  64.7230270  56.3007113  26.3464590
  56.4765963  46.6457585  28.0116333  55.8293878  47.3447534  27.9180809
  57.2466978  47.0793728  28.3792581  59.8844761  56.9106437  31.0866886
  59.7330267  56.6816988  30.1696970  59.8749440  57.8677038  31.0998231
  56.6530097  54.4838349  26.0713152  57.5822157  54.6349509  25.8982120
  56.2321127  54.5722370  25.2161799  55.4518429  58.5089014  23.8411690
  55.3129515  58.1407798  24.7137628  54.6633025  59.0236653  23.6695648
  56.0466581  63.6098110  15.1837226  56.2218337  63.1386154  15.9982849
  55.3599369  64.2363877  15.4118487  57.0023644  57.8870617  21.2300528
  56.6673477  57.8471387  22.1258178  56.5027590  57.2215332  20.7570938
  50.9767888  53.2938247  26.7553109  50.8387686  52.5618485  27.3564648
  51.8872812  53.2047147  26.4737297  59.9382836  55.2326651  11.5037587
  59.3212007  54.5073479  11.4070640  59.4699324  55.9936011  11.1604662
  53.6050189  53.0058206  26.2436789  54.3149807  52.3651398  26.2023407
  53.5619497  53.2571101  27.1662969  61.5936968  59.9425559  29.1643368
  61.5349514  59.2584779  28.4973951  61.9956486  60.6844549  28.7123994
  52.3179123  49.9923424  28.0632428  51.7816480  49.5414162  28.7154024
  51.7295831  50.1269333  27.3202892  50.6127666  66.7587473  21.9577087
  50.8524265  67.3905997  22.6356105  49.7696863  66.4075513  22.2442446
  51.7281382  49.4512075  10.6258892  50.8510848  49.3300876  10.2621138
  52.2039135  48.6598154  10.3737780  61.5954375  57.9065143  27.3957347
  60.7081154  57.5691065  27.5183746  62.1652926  57.1748174  27.6326113
  43.2483522  54.2389235  20.7200399  43.9354562  53.9250965  20.1321414
  43.0931651  55.1430600  20.4467650  48.0518244  49.1279431  25.1485423
  47.9676433  48.5205101  24.4135832  47.2300950  49.6188450  25.1494919
  55.1255528  62.5666596  24.3618591  55.0525700  63.3721567  24.8737895
  54.6832921  62.7658561  23.5366612  54.9145308  61.8038366  17.8721412
  54.1312830  62.3460046  17.9659637  55.6138053  62.3212345  18.2715653
  58.2241958  47.6132995  20.5155618  58.7210657  46.8602957  20.1956688
  57.4528939  47.6497312  19.9498827  66.0771715  53.3173361  22.1573909
  66.0661592  54.1998076  21.7867842  65.2089095  52.9644911  21.9628446
  57.5854212  62.4653430  26.5176749  58.2982184  63.1000894  26.4452651
  57.0944240  62.5617296  25.7016751  59.3071739  56.3704682  18.0894041
  58.3728017  56.4906145  17.9198745  59.4848407  55.4677149  17.8254051
  54.8076927  49.7550378  20.2427302  54.4374714  49.2021418  20.9308208
  55.3036019  49.1508511  19.6902302  62.6944290  52.2122002  18.6244075
  63.1604742  53.0449993  18.5504378  63.1451790  51.7466983  19.3289334
  52.6366125  60.2147873  27.3382320  53.3375585  60.8484356  27.4911714
  52.1661240  60.5562605  26.5777959  60.7620521  58.5565823  15.6230227
  61.0380365  58.4422417  16.5324101  59.8925020  58.1583308  15.5842400
  60.6660953  44.5802589  22.6634976  59.7524033  44.8106815  22.8317183
  61.0954054  44.6641033  23.5149009  60.4367411  52.7692480  25.1634870
  59.7838861  53.0168388  24.5087323  60.8147791  51.9556619  24.8297348
  57.3974585  62.8052174  19.2663041  57.5796980  61.9873830  19.7290793
  58.2207571  63.0219866  18.8287931  57.7316751  61.7320359  16.5278089
  58.2604517  61.2212813  15.9148251  57.9944970  61.4162889  17.3923622
  56.4854984  53.5112292  31.6500908  55.8095621  53.4106421  32.3203283
  57.3082618  53.3551505  32.1136905  48.2333843  59.7484228  24.2713423
  48.8187280  59.0027916  24.4041327  48.0358682  60.0588185  25.1550087
  51.0872499  62.7835475  19.2875865  50.4182874  63.2681603  18.8039905
  50.9485368  63.0304696  20.2019244  42.8251498  52.3189828  22.9917866
  42.8635598  51.7853419  23.7854984  42.3191791  51.7925034  22.3728843
  55.2277767  64.8179219  25.8858524  55.7796075  64.9810840  26.6507609
  55.5683961  65.4083657  25.2138548  50.2042260  47.1654369  26.4880408
  50.2683587  48.0269200  26.0757806  50.1409381  46.5528370  25.7552767
  49.6794533  49.2377501  30.1353443  50.3066572  48.8554579  30.7490967
  48.8222452  49.0191703  30.5009135  60.0788641  59.6440477  31.7407178
  60.6228545  60.2570435  31.2462133  59.4975486  60.2020055  32.2574191
  46.4560076  51.0453930  16.0671797  46.7513517  50.1364609  16.0138851
  45.5548111  51.0241670  15.7452800  58.3646154  62.7661195  22.8722206
  58.2397294  61.9650934  22.3633151  59.0225246  63.2607388  22.3836176
  49.9854323  49.1209927  22.0499346  49.2640908  49.7345895  21.9106819
  50.7747578  49.6567692  21.9715992  60.4281063  60.5670215  24.5001756
  59.4811398  60.4475566  24.4280083  60.7763836  59.6792713  24.5828017
  52.7880636  46.4564354  28.3239998  53.3115038  46.7026650  29.0866307
  52.5692969  47.2884388  27.9043135  48.1847917  48.7268028  16.1911122
  47.8560623  47.8465407  16.0086228  48.5387288  48.6715697  17.0787512
  57.4327496  60.3622931  20.7006108  57.2852459  59.4339638  20.8813678
  58.2580990  60.3843022  20.2163183  51.2989740  49.0140998  16.5586600
  51.6385813  49.5426919  15.8365209  51.7461861  49.3521404  17.3345167
  61.0361618  61.1851490  21.7870981  61.9608165  60.9794351  21.6495432
  60.8676921  60.9367891  22.6960322  53.9933181  47.3978049  26.0089668
  53.6530002  46.5985862  26.4110348  53.2872187  47.6979759  25.4366501
  54.6449653  44.4827361  24.4616991  55.4675722  44.0087839  24.3395882
  54.8887717  45.2617845  24.9615678  53.2857888  47.5115619  14.7579893
  54.0066250  47.8896872  14.2543610  52.6623192  48.2304496  14.8614871
  57.4289010  48.2160768  15.6938225  57.6452625  49.0985406  15.3927053
  56.9483078  47.8246982  14.9643867  52.1688232  51.1746482  22.2708970
  52.0232813  51.4886785  23.1633251  51.6913435  51.7931382  21.7179868
  54.0284615  48.1649030  22.3189859  54.0146183  47.2690123  21.9822157
  54.7457043  48.1719693  22.9528145  55.8810745  48.5986370  24.3642987
  55.6228523  49.5203441  24.3627317  55.3495786  48.2016804  25.0543451
  60.8256934  61.7037157  17.1433072  60.9993812  61.1383579  16.3906925
  61.3185825  62.5038052  16.9612562  46.6433894  53.7151826  25.2096631
  46.0987362  54.4911634  25.3416905  47.5213244  54.0622631  25.0515752
  53.4321511  47.0463410  17.5877430  53.5537422  46.1180056  17.7868317
  53.1423553  47.0602096  16.6755745  56.3012701  44.7318320  20.7244149
  56.3234398  44.7957653  19.7696129  56.7180760  43.8922829  20.9184656
  66.6796325  54.4673580  18.7623372  67.1227471  53.7180905  18.3642495
  65.8022836  54.4583716  18.3797104  61.8132107  61.0203921  14.2429970
  62.5083011  61.6410614  14.4617285  62.1555257  60.1699273  14.5182348
  47.4299916  52.8421722  28.1026788  46.6881652  52.9904358  28.6891418
  47.1092660  53.1029988  27.2393537  63.7123530  58.4703627  15.7717301
  64.2374854  58.8090900  15.0466621  63.6245882  57.5350642  15.5880436
  55.3743578  62.3837701  27.9007178  55.6830705  62.1386847  28.7729877
  56.1719060  62.5884339  27.4126048  55.3964190  64.5375610  20.1312554
  54.9569181  64.0451989  20.8245411  56.1472307  63.9948578  19.8904630
  47.8756529  60.7287151  20.1337183  48.7014549  60.4290923  19.7535826
  47.5250581  59.9594774  20.5826971  52.8438063  60.0813619  22.2034856
  52.2218072  59.4184324  21.9037084  53.5142930  60.1074751  21.5208504
  46.0765135  58.6473478  21.0926116  45.2397043  58.2195652  20.9110117
  46.0488780  58.8405921  22.0296907  52.9162590  48.5595407  31.7967362
  52.9650746  49.4357530  31.4145132  53.4585104  48.0172800  31.2239005
  63.4017436  59.1036531  31.0768499  62.6112980  59.0860669  30.5372999
  63.1650790  59.6424824  31.8317536  63.5215311  55.9528997  28.3901228
  63.5713316  55.7879004  29.3316751  63.4129234  55.0856256  27.9999109
  52.4051570  58.6317543  15.6793317  52.5539690  59.3153007  15.0259989
  53.2118013  58.6122633  16.1942772  60.8119073  51.9359925  29.7060534
  61.7128936  51.7966390  29.4144532  60.8867048  52.1014380  30.6458712
  55.1461879  49.3126780  28.5513721  54.2765188  49.6060346  28.2796309
  55.3821359  49.8967225  29.2720984  65.0233508  58.3725938  28.6343249
  64.7318316  58.7355919  29.4706710  64.4105639  57.6592947  28.4556581
  66.2229190  55.9378818  21.1545820  67.0576081  56.3768622  21.3183380
  66.3588319  55.4617471  20.3354065  63.2720696  53.4958553  27.1023307
  63.7474818  53.6886199  26.2942159  62.3486261  53.5517739  26.8566691
  50.1604203  54.6582720  16.6854386  49.9150244  53.7545050  16.8834596
  50.3300117  54.6599871  15.7433864  57.8500912  45.5306397  26.0679141
  58.3682856  46.2667424  25.7425630  57.4956045  45.8370390  26.9025900
  49.4299850  50.3911078  14.1840547  48.7369095  50.4655433  13.5280583
  49.1851602  49.6271421  14.7062064  58.1013507  41.9506679  21.5880038
  58.3815260  41.2829868  22.2140464  58.8864114  42.1435775  21.0754702
  55.9046975  61.1265673  13.1505064  55.3320942  61.7455860  12.6975536
  56.4779769  61.6765035  13.6844986  61.9722365  50.3724313  25.3351613
  62.9239788  50.4722411  25.3563837  61.8025815  49.5802582  25.8449697
  59.9936744  47.4579896  25.5211014  59.3986677  47.7384909  24.8257502
  59.7086441  47.9473797  26.2927755  59.1244235  61.4102823  14.2813646
  60.0574908  61.3448385  14.4846522  59.0367448  62.2459090  13.8228179
  61.7532252  60.7268694  11.2417594  61.6745883  60.3928557  12.1353352
  62.5741918  61.2190461  11.2409066  64.4510443  53.5930433  24.4493913
  64.4186763  52.6546434  24.6353596  65.0611066  53.6714470  23.7159737
  56.2893774  52.4626486  10.4921117  57.2352878  52.3332694  10.5609535
  55.9108019  51.7241148  10.9690545  64.6004931  50.3841476  24.4952196
  64.0843980  49.5999933  24.3082125  65.4844880  50.0560193  24.6598715
  62.2615658  44.1282492  20.4548008  62.0640479  43.8197580  21.3391340
  62.8715364  44.8544131  20.5845938  70.2686993  54.6546440  23.5899949
  70.9990381  54.3931728  24.1507653  69.6593938  53.9175162  23.6302017
  68.3502290  52.7954302  24.1874401  67.6235453  52.6610267  23.5790892
  67.9349577  53.1031131  24.9931119  56.1732466  56.5144232  31.9521774
  57.0935476  56.6922831  32.1461820  56.1382049  55.5700277  31.8001473
  54.4736691  50.3876462  10.4276002  53.5668146  50.0909575  10.5038715
  54.7512672  50.0906280   9.5610288  45.3914631  51.7082826  20.8775048
  45.0717415  50.8548134  20.5849422  44.8448059  51.9231404  21.6333016
  49.1694539  54.4245267  24.5944555  49.3880548  55.3562374  24.6132589
  49.5820312  54.0653241  25.3799359  56.0898756  44.9313352  16.5820243
  55.2799485  44.5860437  16.9575489  56.7783173  44.6220896  17.1707855
  58.0189305  44.0091399  18.2044540  58.5720343  44.4286852  18.8634563
  58.2559391  43.0827147  18.2467496  54.0422404  49.9978472  33.9847304
  53.9419131  50.9472829  33.9159395  53.8243946  49.6696711  33.1123374
  53.2435475  47.2463397  10.5687981  54.1054639  47.5718296  10.8283798
  53.4285820  46.4594893  10.0561047  45.2602891  55.3285737  22.8468170
  44.5666363  54.9139690  22.3338124  46.0075882  55.3706274  22.2501589
  61.3968112  46.1191924  17.7123204  60.8166781  46.7776728  17.3301256
  61.1304045  45.2969269  17.3010622  59.8471678  45.5196982  19.9144524
  60.3471457  45.6313516  19.1058843  60.4907286  45.2158034  20.5545333
  53.9053674  53.4275611  32.8012365  53.4220756  54.2275971  33.0076254
  53.9914613  53.4383556  31.8479809  47.1739634  55.2603991  20.7234185
  47.1510322  55.3591678  19.7716068  47.4840270  56.1069142  21.0451351
  49.8327012  57.3180146  24.8380799  50.7870265  57.2864088  24.7710731
  49.6339535  56.8570770  25.6531025  50.4226394  55.8881262  27.4051597
  51.2419283  56.3825341  27.4286434  50.6963201  54.9713230  27.3769164
  60.1792990  48.2792014  16.7679552  59.2918845  48.5641665  16.5499747
  60.5946979  48.1185778  15.9206829  63.5307526  48.3038535  20.4833892
  64.3067916  48.7934988  20.7558508  62.8055660  48.7296589  20.9405761
  65.9680085  49.0166154  21.5407832  66.5624575  48.7761890  20.8301140
  66.0406668  48.2973285  22.1681368  48.1877240  62.8599765  21.8550997
  48.0531708  62.1000166  21.2888995  47.7709303  63.5840665  21.3879786
  59.3236203  58.0436689  10.8627572  60.0272053  58.2486691  11.4785228
  58.5998852  58.6113451  11.1276656  60.1534014  53.7946550  16.9829842
  60.0969215  54.2515102  16.1437475  60.7062356  53.0337235  16.8052685
  63.9638820  49.5836282  17.8079962  63.7075754  49.1832918  18.6388170
  63.3391688  50.2980076  17.6830101  68.2751157  52.3232355  20.3151253
  67.7150715  52.3925545  21.0882815  67.6694661  52.1473340  19.5950750
  51.3446366  63.7569082  22.0669440  51.2278750  64.7014515  21.9648130
  50.5238812  63.4542644  22.4555239  61.2322901  58.4819218  12.9126032
  62.0668505  58.0500417  12.7303507  61.0707244  58.3101232  13.8402927
  60.8868793  54.9851331  14.2782372  60.8317597  54.8195603  13.3370816
  60.2614848  55.6927364  14.4344561  45.6761308  50.2219396  28.1043794
  46.3220172  49.7118350  28.5931019  45.4678459  50.9588077  28.6787219
  58.2014700  57.2900243  33.6035934  59.0705860  57.4640896  33.2422569
  57.7221452  58.1094660  33.4811664  54.1964918  44.4859440  13.8567690
  54.1843588  45.4301280  14.0135961  55.0888340  44.3029586  13.5627151
  52.3700880  64.4097344  25.2825368  53.2728127  64.4420955  25.5991863
  52.1438250  63.4797795  25.2971704  54.1254482  63.1628331  21.9435447
  53.1750113  63.1630192  21.8299819  54.4286968  62.4161065  21.4271481
  58.0117038  41.0802217  18.1113627  57.2449434  40.5260704  18.2570309
  58.4227743  41.1524086  18.9727778  50.0158799  47.3687013  32.2018808
  50.8790260  47.0123818  32.4122133  49.4424210  47.0300908  32.8894212
  69.8607176  68.9988869  23.0081209  70.4985586  68.8795617  22.3044549
  69.7428019  69.9469713  23.0669161  66.6696882  68.9516297  22.9442734
  66.3315394  68.8357362  22.0563269  67.5386650  68.5507462  22.9243740
  62.5283698  70.8051774  18.9339625  61.9648563  70.7141711  18.1655912
  62.4136093  69.9851678  19.4142117  67.1516665  70.1051149  28.9028939
  67.1405306  69.7103947  28.0309443  67.3137305  69.3717222  29.4962711
  60.0748130  72.3002965  21.7723845  60.8669422  71.9593790  21.3570144
  60.3144780  72.4097940  22.6925998  68.1083257  74.4722741  14.2454090
  67.4571236  75.0576822  13.8588103  68.9027619  75.0028936  14.3049127
  62.0338884  71.5611879  14.6441224  62.8069760  71.0140866  14.5054100
  62.3864283  72.4256128  14.8555685  63.8723926  72.8888261  27.8508123
  63.5813792  73.7933892  27.7354790  64.5080911  72.9304789  28.5652193
  64.7980133  70.2665109  24.4409483  65.3943705  70.0421132  23.7266446
  64.8555105  69.5249855  25.0434931  64.3705161  67.7204545  12.2759674
  64.6230682  67.1986066  11.5143137  63.4329721  67.5570690  12.3786357
  69.4148444  66.7240323  20.0834417  70.2011534  66.3059746  19.7324834
  69.6787149  67.6286415  20.2516065  69.5858522  72.1613173  14.7823074
  68.9504355  72.2347800  15.4943979  69.2555928  72.7506772  14.1042153
  74.8156871  66.6615556  20.9867396  75.5482043  66.0914773  21.2205225
  74.0596227  66.2737157  21.4273901  64.0901450  69.6232651  14.4784049
  63.9737708  68.9477554  15.1465133  64.2003710  69.1365025  13.6616202
  66.4332991  69.0842798  18.1830738  66.0691198  68.5573419  18.8943660
  67.2900107  68.6941267  18.0097223  72.3382292  60.3737130  25.4462004
  72.0065617  61.2432541  25.2223219  71.7427905  60.0573414  26.1256035
  66.0738478  64.1132698  13.1792087  66.2412880  64.9812934  13.5462558
  65.8835647  64.2759979  12.2553376  68.8313811  72.5749676  24.8457917
  68.5314534  73.4774715  24.7373724  68.4864871  72.3081860  25.6979070
  62.2826293  69.0263473  20.8794621  61.3576789  68.8939687  21.0872313
  62.5310706  69.8057693  21.3764564  72.2310955  65.0932217  22.5255354
  71.3227832  65.0247625  22.2314115  72.1798551  65.5704162  23.3537180
  66.0527699  66.5690355  14.1638753  65.9327324  67.0147406  15.0024234
  65.3580287  66.9175673  13.6052292  59.6435104  68.6696747  21.7138410
  59.7727485  68.9231226  22.6277822  58.9632555  69.2624455  21.3943065
  63.8134591  79.3393997  17.8128885  63.7358621  80.2901822  17.8917365
  63.2096235  78.9939869  18.4703811  66.3051821  66.5121862  30.4690252
  65.5285155  67.0715782  30.4593116  66.9442384  66.9978645  30.9905122
  74.0972602  63.2948655  24.3033228  73.4546982  63.5881188  23.6573023
  73.5927530  63.1801575  25.1086425  71.7512765  67.0411828  14.9919087
  72.6630621  67.2739215  14.8166785  71.2422412  67.6248872  14.4294166
  64.5598193  69.3207316  30.0308219  65.3012878  69.8592360  29.7543042
  63.8535179  69.9473604  30.1879770  70.0353533  71.4636456  28.6280380
  70.4436889  71.0218867  27.8835012  69.3130794  70.8889084  28.8814573
  66.3884603  66.4009063  26.0013937  67.2345798  66.8248476  26.1448586
  66.3283241  65.7442687  26.6952500  70.3582347  72.0237647  22.3832669
  69.7291210  72.1883361  21.6808737  69.9708010  72.4379256  23.1543633
  74.2371579  72.9592085  19.7377033  73.5522618  73.3390986  19.1874066
  74.3215429  73.5687411  20.4708980  69.5384048  64.0613431  27.6595111
  69.2944980  64.8155492  27.1229386  69.8143979  64.4398779  28.4942358
  71.4922511  70.6052044  26.3372376  71.7039406  71.2483803  25.6606757
  71.4452259  69.7714360  25.8694306  69.0948740  63.2169864  23.2408948
  68.2333219  63.5151118  23.5325686  69.1211175  63.4340263  22.3089981
  65.9110309  71.7612055  19.6482754  66.3748655  72.0399758  18.8587376
  65.6467107  70.8595499  19.4655845  62.8034390  71.3083536  22.5862517
  63.3735747  71.7370805  21.9480002  63.3942502  71.0266121  23.2846703
  64.8479195  67.8835207  16.4572319  65.5503239  68.3356251  16.9246246
  64.5159824  67.2419026  17.0852212  63.2959557  66.4746964  30.8323529
  62.6658218  67.1563245  31.0658925  63.1895645  66.3630045  29.8876667
  58.5904529  66.1418760  21.7589453  57.8003583  66.3976288  21.2829563
  59.0815777  66.9567098  21.8641493  72.6068339  73.4823999  24.5094734
  73.4285783  73.0804186  24.2277415  72.6030742  73.3792233  25.4610849
  60.5419275  66.5063339  18.7172929  59.7450438  66.6182033  19.2356425
  60.3144867  66.8449991  17.8513820  66.3724942  73.0308042  26.6655444
  66.4369375  73.4928449  27.5013616  65.6635866  72.4005407  26.7937754
  56.8742232  66.3949250  24.1904443  57.1250271  67.2796260  24.4562019
  57.4101781  66.2153852  23.4179535  80.6974332  69.8262747  20.8579705
  79.9438040  69.2570145  20.7023709  80.8321873  69.7925412  21.8050340
  66.0872960  74.6976150  16.5334424  65.9518635  75.5427685  16.9619272
  66.6282773  74.8995427  15.7700358  62.5740300  60.7767730  33.1948780
  62.1807245  60.2233928  33.8696424  63.3906440  61.0878308  33.5855297
  59.5402357  72.2151588  17.1062349  60.0526878  73.0094838  17.2567914
  60.1925070  71.5177878  17.0395951  61.3497242  75.3317344  19.1885103
  61.5263870  76.2535309  19.0006087  62.1454076  75.0175763  19.6179482
  65.4908261  62.1925609  30.7869036  66.2317974  62.7932762  30.7073499
  65.7226183  61.4503246  30.2287079  60.6349599  67.3781976  29.0647266
  60.5203114  66.4767233  29.3654365  59.7794116  67.6245673  28.7132082
  67.7141436  75.3199716  30.6634766  67.2705291  74.5336095  30.3455671
  68.3758650  75.5078867  29.9978657  62.4728558  76.8495518  25.1895445
  63.0235983  76.7212581  24.4172439  61.6340033  77.1490407  24.8390338
  69.8122674  75.6002516  28.6916168  69.7941150  76.4211397  28.1996437
  70.7342595  75.4756591  28.9166309  66.2695729  73.1146646  29.5339676
  66.8024065  72.3534934  29.3038984  65.7409810  72.8220297  30.2763831
  69.4365424  58.2206712  25.0633318  69.0929693  59.1108353  24.9872428
  69.8044386  58.0308369  24.2002903  57.5051274  70.5440242  17.8821920
  58.3426496  70.9537250  17.6655628  57.6829542  69.6039684  17.8522114
  69.4015706  68.2115323  13.5705753  68.8862330  68.9819927  13.8094140
  69.1293015  67.5380459  14.1938814  66.9862817  63.0565023  18.6290991
  66.1304414  62.6671874  18.4496630  67.3989769  63.1356984  17.7690777
  68.5161964  60.5911367  23.0282551  68.0126760  60.5541502  22.2150356
  68.8092571  61.5004109  23.0879208  64.7604850  60.6750096  22.0348733
  65.6257847  60.4792905  21.6754622  64.8282359  60.4460448  22.9618090
  74.3749980  70.9647677  15.5058926  73.5979423  70.6258837  15.0614088
  75.0541461  70.9700301  14.8313891  69.1902009  66.0842415  15.3965534
  68.8852145  66.3988564  16.2475677  70.1432452  66.1623835  15.4392867
  67.6348441  72.2432638  17.0458488  67.1069803  71.5085398  16.7331726
  67.1335944  73.0207314  16.7998456  72.6141287  70.4381659  22.1625534
  71.9564962  71.1280920  22.2505663  73.4181687  70.8278091  22.5059521
  62.3667169  62.9052304  19.4065100  62.9410921  62.6827486  18.6738293
  62.9538151  62.9740999  20.1593701  71.4246746  68.7926031  20.2129476
  71.9378628  69.4256023  20.7151186  72.0747970  68.1927227  19.8472836
  62.6936756  64.9356765  13.4260985  61.8574068  65.2731452  13.7470260
  62.5541526  64.8005745  12.4888122  64.6689837  59.7793553  18.1340169
  64.0154249  59.4642570  17.5096784  64.6270311  59.1569294  18.8599992
  65.7801042  70.0612848  10.0493461  64.8728103  69.8302102  10.2484610
  66.2772074  69.2650468  10.2367443  68.6869120  78.7710356  12.9690147
  68.0130819  79.0742052  13.5775105  69.0734942  79.5739436  12.6195604
  67.9027577  66.2675487  22.4587817  66.9850138  66.4890434  22.3009505
  68.3187721  66.3421797  21.5999524  68.6862625  67.6666903  17.5890497
  69.4334444  68.1788300  17.2797619  68.9554214  67.3450955  18.4494890
  66.9589275  70.1625443  14.5717451  66.0500494  69.8784476  14.6689921
  66.9884359  70.5824522  13.7120758  72.1908542  73.7732033  18.3408619
  71.7370869  72.9322943  18.3973809  71.5602509  74.4093431  18.6783399
  71.1341462  64.7024019  19.5709286  70.3964219  64.1901405  19.9019529
  71.3868235  64.2624400  18.7592563  70.6341482  75.6108529  19.2758437
  70.9264456  76.1713587  18.5570803  71.1440102  75.9037090  20.0311596
  71.2353089  57.4800271  20.1651056  71.5411966  56.6197634  19.8776971
  71.9605694  58.0717891  19.9650049  57.5277445  67.8830957  18.5532653
  57.3301845  67.2900318  17.8283720  56.9724109  67.5783168  19.2708592
  65.5074169  67.7754064  20.6727247  65.5622779  66.8227900  20.5969723
  64.6965371  67.9313503  21.1568545  66.6565363  71.7034187  11.9105530
  66.2184793  70.9870046  11.4511167  67.3975804  71.9310302  11.3490621
  63.4466529  66.3931124  18.4317625  62.6334394  66.6925294  18.8382818
  63.9425523  65.9986812  19.1492108  65.5975107  76.3888881  20.3651890
  65.5551286  76.6149727  19.4360422  66.5137806  76.1552255  20.5137691
  69.0440741  66.8572948  27.2632519  69.3990128  67.0844421  28.1226985
  69.6912872  67.1891325  26.6409775  74.7738478  69.9791384  17.9681848
  74.6356376  70.1692980  17.0403038  74.4174696  70.7410767  18.4249899
  62.9380604  63.9649479  24.0478860  63.5779983  63.8238238  23.3501824
  62.1058134  63.6783993  23.6717462  74.8007857  72.0467911  22.9793120
  75.2344364  71.9543200  23.8276174  75.5139438  72.0225411  22.3413136
  63.7140908  73.2651910  20.1613853  64.5081506  72.7702230  19.9596428
  63.0032600  72.7369773  19.7981558  68.5335752  75.6470005  24.5126220
  68.5872774  76.2160941  25.2803936  67.6650533  75.8171890  24.1480258
  60.0223671  67.4094991  16.2373606  59.0921259  67.3479447  16.4543568
  60.1181143  66.8870944  15.4410247  59.9409220  63.9349804  18.8251847
  60.2016037  64.8495137  18.7161008  60.7626392  63.4674247  18.9748460
  61.4134145  65.3487561  25.9950672  62.0857199  65.1404923  25.3463321
  60.5863932  65.1509647  25.5555904  75.6623407  72.0891612  25.5126005
  75.8559297  72.9937422  25.7585280  75.5624025  71.6299031  26.3464590
  67.3159717  61.9749502  28.0116333  66.6687632  62.6739452  27.9180809
  68.0860733  62.4085646  28.3792581  70.7238515  72.2398354  31.0866886
  70.5724022  72.0108906  30.1696970  70.7143195  73.1968956  31.0998231
  67.4923852  69.8130267  26.0713152  68.4215912  69.9641427  25.8982120
  67.0714882  69.9014288  25.2161799  66.2912184  73.8380932  23.8411690
  66.1523269  73.4699716  24.7137628  65.5026780  74.3528571  23.6695648
  66.8860336  78.9390028  15.1837226  67.0612091  78.4678071  15.9982849
  66.1993124  79.5655794  15.4118487  67.8417399  73.2162534  21.2300528
  67.5067231  73.1763304  22.1258178  67.3421344  72.5507250  20.7570938
  61.8161643  68.6230164  26.7553109  61.6781441  67.8910403  27.3564648
  62.7266566  68.5339064  26.4737297  70.7776590  70.5618569  11.5037587
  70.1605761  69.8365397  11.4070640  70.3093079  71.3227929  11.1604662
  64.4443943  68.3350124  26.2436789  65.1543562  67.6943316  26.2023407
  64.4013252  68.5863018  27.1662969  72.4330722  75.2717477  29.1643368
  72.3743268  74.5876697  28.4973951  72.8350240  76.0136467  28.7123994
  63.1572877  65.3215341  28.0632428  62.6210234  64.8706080  28.7154024
  62.5689586  65.4561250  27.3202892  61.4521421  82.0879391  21.9577087
  61.6918019  82.7197915  22.6356105  60.6090617  81.7367431  22.2442446
  62.5675136  64.7803993  10.6258892  61.6904603  64.6592794  10.2621138
  63.0432889  63.9890071  10.3737780  72.4348129  73.2357061  27.3957347
  71.5474908  72.8982983  27.5183746  73.0046680  72.5040092  27.6326113
  54.0877276  69.5681153  20.7200399  54.7748316  69.2542883  20.1321414
  53.9325405  70.4722517  20.4467650  58.8911999  64.4571349  25.1485423
  58.8070187  63.8497019  24.4135832  58.0694705  64.9480367  25.1494919
  65.9649283  77.8958513  24.3618591  65.8919454  78.7013485  24.8737895
  65.5226676  78.0950479  23.5366612  65.7539062  77.1330283  17.8721412
  64.9706584  77.6751963  17.9659637  66.4531807  77.6504263  18.2715653
  69.0635712  62.9424913  20.5155618  69.5604412  62.1894875  20.1956688
  68.2922694  62.9789229  19.9498827  76.9165470  68.6465278  22.1573909
  76.9055346  69.5289994  21.7867842  76.0482849  68.2936829  21.9628446
  68.4247966  77.7945347  26.5176749  69.1375938  78.4292812  26.4452651
  67.9337995  77.8909213  25.7016751  70.1465493  71.6996600  18.0894041
  69.2121772  71.8198062  17.9198745  70.3242162  70.7969067  17.8254051
  65.6470681  65.0842296  20.2427302  65.2768469  64.5313336  20.9308208
  66.1429774  64.4800429  19.6902302  73.5338044  67.5413919  18.6244075
  73.9998497  68.3741911  18.5504378  73.9845545  67.0758901  19.3289334
  63.4759880  75.5439791  27.3382320  64.1769339  76.1776274  27.4911714
  63.0054995  75.8854522  26.5777959  71.6014276  73.8857740  15.6230227
  71.8774119  73.7714335  16.5324101  70.7318774  73.4875225  15.5842400
  71.5054707  59.9094506  22.6634976  70.5917787  60.1398733  22.8317183
  71.9347809  59.9932950  23.5149009  71.2761166  68.0984398  25.1634870
  70.6232616  68.3460306  24.5087323  71.6541546  67.2848536  24.8297348
  68.2368340  78.1344091  19.2663041  68.4190734  77.3165747  19.7290793
  69.0601326  78.3511784  18.8287931  68.5710505  77.0612276  16.5278089
  69.0998272  76.5504731  15.9148251  68.8338725  76.7454807  17.3923622
  67.3248739  68.8404209  31.6500908  66.6489376  68.7398339  32.3203283
  68.1476373  68.6843423  32.1136905  59.0727598  75.0776146  24.2713423
  59.6581035  74.3319834  24.4041327  58.8752436  75.3880102  25.1550087
  61.9266253  78.1127393  19.2875865  61.2576628  78.5973521  18.8039905
  61.7879123  78.3596614  20.2019244  53.6645253  67.6481746  22.9917866
  53.7029352  67.1145337  23.7854984  53.1585545  67.1216951  22.3728843
  66.0671522  80.1471137  25.8858524  66.6189830  80.3102758  26.6507609
  66.4077715  80.7375574  25.2138548  61.0436015  62.4946286  26.4880408
  61.1077341  63.3561117  26.0757806  60.9803135  61.8820288  25.7552767
  60.5188287  64.5669419  30.1353443  61.1460326  64.1846496  30.7490967
  59.6616206  64.3483621  30.5009135  70.9182396  74.9732394  31.7407178
  71.4622300  75.5862352  31.2462133  70.3369241  75.5311973  32.2574191
  57.2953830  66.3745848  16.0671797  57.5907271  65.4656527  16.0138851
  56.3941866  66.3533588  15.7452800  69.2039909  78.0953112  22.8722206
  69.0791048  77.2942852  22.3633151  69.8619000  78.5899306  22.3836176
  60.8248077  64.4501845  22.0499346  60.1034663  65.0637812  21.9106819
  61.6141333  64.9859610  21.9715992  71.2674817  75.8962132  24.5001756
  70.3205153  75.7767483  24.4280083  71.6157590  75.0084630  24.5828017
  63.6274391  61.7856271  28.3239998  64.1508792  62.0318568  29.0866307
  63.4086724  62.6176306  27.9043135  59.0241672  64.0559946  16.1911122
  58.6954378  63.1757325  16.0086228  59.3781042  64.0007614  17.0787512
  68.2721251  75.6914848  20.7006108  68.1246213  74.7631556  20.8813678
  69.0974744  75.7134939  20.2163183  62.1383495  64.3432916  16.5586600
  62.4779567  64.8718837  15.8365209  62.5855615  64.6813322  17.3345167
  71.8755372  76.5143407  21.7870981  72.8001920  76.3086269  21.6495432
  71.7070676  76.2659808  22.6960322  64.8326936  62.7269966  26.0089668
  64.4923756  61.9277779  26.4110348  64.1265942  63.0271677  25.4366501
  65.4843408  59.8119279  24.4616991  66.3069477  59.3379757  24.3395882
  65.7281471  60.5909762  24.9615678  64.1251642  62.8407537  14.7579893
  64.8460005  63.2188790  14.2543610  63.5016946  63.5596414  14.8614871
  68.2682765  63.5452686  15.6938225  68.4846379  64.4277324  15.3927053
  67.7876832  63.1538900  14.9643867  63.0081986  66.5038399  22.2708970
  62.8626567  66.8178702  23.1633251  62.5307190  67.1223300  21.7179868
  64.8678369  63.4940947  22.3189859  64.8539938  62.5982041  21.9822157
  65.5850797  63.5011611  22.9528145  66.7204500  63.9278288  24.3642987
  66.4622278  64.8495358  24.3627317  66.1889540  63.5308722  25.0543451
  71.6650689  77.0329075  17.1433072  71.8387566  76.4675497  16.3906925
  72.1579580  77.8329970  16.9612562  57.4827648  69.0443744  25.2096631
  56.9381117  69.8203552  25.3416905  58.3606998  69.3914548  25.0515752
  64.2715265  62.3755328  17.5877430  64.3931176  61.4471974  17.7868317
  63.9817307  62.3894014  16.6755745  67.1406455  60.0610238  20.7244149
  67.1628152  60.1249571  19.7696129  67.5574514  59.2214747  20.9184656
  77.5190080  69.7965498  18.7623372  77.9621226  69.0472823  18.3642495
  76.6416590  69.7875634  18.3797104  72.6525861  76.3495839  14.2429970
  73.3476766  76.9702532  14.4617285  72.9949011  75.4991190  14.5182348
  58.2693670  68.1713640  28.1026788  57.5275406  68.3196275  28.6891418
  57.9486415  68.4321906  27.2393537  74.5517284  73.7995545  15.7717301
  75.0768608  74.1382817  15.0466621  74.4639637  72.8642560  15.5880436
  66.2137333  77.7129618  27.9007178  66.5224459  77.4678765  28.7729877
  67.0112815  77.9176257  27.4126048  66.2357945  79.8667528  20.1312554
  65.7962935  79.3743907  20.8245411  66.9866062  79.3240496  19.8904630
  58.7150284  76.0579069  20.1337183  59.5408304  75.7582841  19.7535826
  58.3644336  75.2886691  20.5826971  63.6831817  75.4105537  22.2034856
  63.0611826  74.7476242  21.9037084  64.3536684  75.4366669  21.5208504
  56.9158889  73.9765395  21.0926116  56.0790797  73.5487570  20.9110117
  56.8882534  74.1697839  22.0296907  63.7556345  63.8887325  31.7967362
  63.8044500  64.7649448  31.4145132  64.2978859  63.3464718  31.2239005
  74.2411190  74.4328448  31.0768499  73.4506734  74.4152587  30.5372999
  74.0044545  74.9716742  31.8317536  63.2445324  73.9609460  15.6793317
  63.3933444  74.6444925  15.0259989  64.0511768  73.9414550  16.1942772
  71.6512828  67.2651843  29.7060534  72.5522691  67.1258308  29.4144532
  71.7260802  67.4306297  30.6458712  65.9855633  64.6418697  28.5513721
  65.1158942  64.9352263  28.2796309  66.2215113  65.2259142  29.2720984
  75.8627262  73.7017856  28.6343249  75.5712070  74.0647837  29.4706710
  75.2499393  72.9884864  28.4556581  77.0622944  71.2670736  21.1545820
  77.8969836  71.7060540  21.3183380  77.1982073  70.7909389  20.3354065
  74.1114450  68.8250471  27.1023307  74.5868572  69.0178117  26.2942159
  73.1880016  68.8809657  26.8566691  60.9997957  69.9874638  16.6854386
  60.7543999  69.0836968  16.8834596  61.1693872  69.9891788  15.7433864
  68.6894667  60.8598314  26.0679141  69.2076611  61.5959341  25.7425630
  68.3349800  61.1662308  26.9025900  60.2693605  65.7202996  14.1840547
  59.5762850  65.7947351  13.5280583  60.0245356  64.9563339  14.7062064
  68.9407261  57.2798597  21.5880038  69.2209015  56.6121786  22.2140464
  69.7257868  57.4727692  21.0754702  66.7440730  76.4557591  13.1505064
  66.1714697  77.0747778  12.6975536  67.3173523  77.0056952  13.6844986
  72.8116119  65.7016231  25.3351613  73.7633542  65.8014329  25.3563837
  72.6419570  64.9094499  25.8449697  70.8330499  62.7871814  25.5211014
  70.2380431  63.0676827  24.8257502  70.5480196  63.2765715  26.2927755
  69.9637989  76.7394741  14.2813646  70.8968663  76.6740303  14.4846522
  69.8761202  77.5751008  13.8228179  72.5926006  76.0560611  11.2417594
  72.5139638  75.7220475  12.1353352  73.4135673  76.5482379  11.2409066
  75.2904197  68.9222351  24.4493913  75.2580517  67.9838351  24.6353596
  75.9004821  69.0006387  23.7159737  67.1287528  67.7918404  10.4921117
  68.0746633  67.6624612  10.5609535  66.7501773  67.0533065  10.9690545
  75.4398686  65.7133394  24.4952196  74.9237734  64.9291851  24.3082125
  76.3238634  65.3852111  24.6598715  73.1009413  59.4574410  20.4548008
  72.9034234  59.1489498  21.3391340  73.7109118  60.1836048  20.5845938
  81.1080747  69.9838357  23.5899949  81.8384136  69.7223646  24.1507653
  80.4987693  69.2467079  23.6302017  79.1896044  68.1246220  24.1874401
  78.4629208  67.9902185  23.5790892  78.7743331  68.4323049  24.9931119
  67.0126221  71.8436150  31.9521774  67.9329230  72.0214749  32.1461820
  66.9775804  70.8992195  31.8001473  65.3130445  65.7168380  10.4276002
  64.4061901  65.4201493  10.5038715  65.5906426  65.4198198   9.5610288
  56.2308386  67.0374743  20.8775048  55.9111170  66.1840052  20.5849422
  55.6841814  67.2523321  21.6333016  60.0088293  69.7537184  24.5944555
  60.2274303  70.6854292  24.6132589  60.4214067  69.3945159  25.3799359
  66.9292511  60.2605270  16.5820243  66.1193239  59.9152355  16.9575489
  67.6176928  59.9512813  17.1707855  68.8583059  59.3383316  18.2044540
  69.4114098  59.7578770  18.8634563  69.0953146  58.4119065  18.2467496
  64.8816158  65.3270390  33.9847304  64.7812885  66.2764747  33.9159395
  64.6637701  64.9988629  33.1123374  64.0829230  62.5755315  10.5687981
  64.9448394  62.9010213  10.8283798  64.2679574  61.7886811  10.0561047
  56.0996646  70.6577655  22.8468170  55.4060117  70.2431608  22.3338124
  56.8469637  70.6998191  22.2501589  72.2361866  61.4483842  17.7123204
  71.6560535  62.1068646  17.3301256  71.9697799  60.6261186  17.3010622
  70.6865433  60.8488899  19.9144524  71.1865211  60.9605434  19.1058843
  71.3301041  60.5449952  20.5545333  64.7447429  68.7567529  32.8012365
  64.2614510  69.5567889  33.0076254  64.8308368  68.7675474  31.8479809
  58.0133388  70.5895909  20.7234185  57.9904076  70.6883596  19.7716068
  58.3234025  71.4361059  21.0451351  60.6720766  72.6472064  24.8380799
  61.6264020  72.6156006  24.7710731  60.4733290  72.1862687  25.6531025
  61.2620148  71.2173180  27.4051597  62.0813037  71.7117258  27.4286434
  61.5356956  70.3005148  27.3769164  71.0186744  63.6083932  16.7679552
  70.1312599  63.8933583  16.5499747  71.4340733  63.4477695  15.9206829
  74.3701280  63.6330453  20.4833892  75.1461671  64.1226905  20.7558508
  73.6449415  64.0588507  20.9405761  76.8073839  64.3458072  21.5407832
  77.4018330  64.1053808  20.8301140  76.8800423  63.6265203  22.1681368
  59.0270995  78.1891683  21.8550997  58.8925463  77.4292084  21.2888995
  58.6103057  78.9132583  21.3879786  70.1629958  73.3728607  10.8627572
  70.8665808  73.5778609  11.4785228  69.4392607  73.9405369  11.1276656
  70.9927768  69.1238468  16.9829842  70.9362969  69.5807019  16.1437475
  71.5456111  68.3629153  16.8052685  74.8032574  64.9128200  17.8079962
  74.5469508  64.5124835  18.6388170  74.1785442  65.6271994  17.6830101
  79.1144912  67.6524273  20.3151253  78.5544470  67.7217462  21.0882815
  78.5088415  67.4765258  19.5950750  62.1840121  79.0861000  22.0669440
  62.0672505  80.0306433  21.9648130  61.3632567  78.7834562  22.4555239
  72.0716655  73.8111136  12.9126032  72.9062259  73.3792334  12.7303507
  71.9100998  73.6393150  13.8402927  71.7262547  70.3143249  14.2782372
  71.6711351  70.1487521  13.3370816  71.1008603  71.0219282  14.4344561
  56.5155062  65.5511314  28.1043794  57.1613926  65.0410268  28.5931019
  56.3072214  66.2879995  28.6787219  69.0408455  72.6192161  33.6035934
  69.9099614  72.7932813  33.2422569  68.5615206  73.4386578  33.4811664
  65.0358673  59.8151358  13.8567690  65.0237343  60.7593198  14.0135961
  65.9282095  59.6321504  13.5627151  63.2094635  79.7389262  25.2825368
  64.1121882  79.7712872  25.5991863  62.9832005  78.8089713  25.2971704
  64.9648237  78.4920249  21.9435447  64.0143868  78.4922110  21.8299819
  65.2680723  77.7452983  21.4271481  68.8510792  56.4094135  18.1113627
  68.0843188  55.8552621  18.2570309  69.2621497  56.4816004  18.9727778
  60.8552553  62.6978931  32.2018808  61.7184015  62.3415735  32.4122133
  60.2817964  62.3592825  32.8894212  80.7000930  84.3280787  23.0081209
  81.3379340  84.2087534  22.3044549  80.5821773  85.2761631  23.0669161
  77.5090637  84.2808215  22.9442734  77.1709148  84.1649280  22.0563269
  78.3780405  83.8799380  22.9243740  73.3677452  86.1343691  18.9339625
  72.8042317  86.0433628  18.1655912  73.2529847  85.3143596  19.4142117
  77.9910420  85.4343067  28.9028939  77.9799060  85.0395865  28.0309443
  78.1531059  84.7009139  29.4962711  70.9141884  87.6294883  21.7723845
  71.7063176  87.2885708  21.3570144  71.1538534  87.7389858  22.6925998
  78.9477011  89.8014659  14.2454090  78.2964991  90.3868740  13.8588103
  79.7421374  90.3320854  14.3049127  72.8732638  86.8903796  14.6441224
  73.6463514  86.3432783  14.5054100  73.2258037  87.7548046  14.8555685
  74.7117681  88.2180179  27.8508123  74.4207547  89.1225809  27.7354790
  75.3474665  88.2596706  28.5652193  75.6373888  85.5957027  24.4409483
  76.2337460  85.3713050  23.7266446  75.6948859  84.8541773  25.0434931
  75.2098916  83.0496462  12.2759674  75.4624437  82.5277984  11.5143137
  74.2723475  82.8862608  12.3786357  80.2542199  82.0532241  20.0834417
  81.0405288  81.6351664  19.7324834  80.5180903  82.9578333  20.2516065
  80.4252276  87.4905091  14.7823074  79.7898109  87.5639718  15.4943979
  80.0949683  88.0798690  14.1042153  85.6550626  81.9907474  20.9867396
  86.3875798  81.4206691  21.2205225  84.8989982  81.6029074  21.4273901
  74.9295205  84.9524568  14.4784049  74.8131463  84.2769472  15.1465133
  75.0397465  84.4656942  13.6616202  77.2726746  84.4134716  18.1830738
  76.9084953  83.8865336  18.8943660  78.1293862  84.0233185  18.0097223
  83.1776046  75.7029048  25.4462004  82.8459371  76.5724459  25.2223219
  82.5821660  75.3865332  26.1256035  76.9132233  79.4424615  13.1792087
  77.0806635  80.3104852  13.5462558  76.7229402  79.6051897  12.2553376
  79.6707566  87.9041594  24.8457917  79.3708289  88.8066633  24.7373724
  79.3258625  87.6373777  25.6979070  73.1220047  84.3555391  20.8794621
  72.1970544  84.2231605  21.0872313  73.3704460  85.1349610  21.3764564
  83.0704710  80.4224134  22.5255354  82.1621587  80.3539543  22.2314115
  83.0192305  80.8996079  23.3537180  76.8921454  81.8982273  14.1638753
  76.7721079  82.3439323  15.0024234  76.1974042  82.2467590  13.6052292
  70.4828858  83.9988664  21.7138410  70.6121239  84.2523143  22.6277822
  69.8026310  84.5916372  21.3943065  74.6528346  94.6685914  17.8128885
  74.5752375  95.6193740  17.8917365  74.0489989  94.3231787  18.4703811
  77.1445575  81.8413780  30.4690252  76.3678909  82.4007700  30.4593116
  77.7836138  82.3270563  30.9905122  84.9366356  78.6240573  24.3033228
  84.2940736  78.9173106  23.6573023  84.4321285  78.5093493  25.1086425
  82.5906520  82.3703746  14.9919087  83.5024376  82.6031133  14.8166785
  82.0816167  82.9540790  14.4294166  75.3991948  84.6499233  30.0308219
  76.1406632  85.1884277  29.7543042  74.6928933  85.2765522  30.1879770
  80.8747287  86.7928374  28.6280380  81.2830643  86.3510784  27.8835012
  80.1524549  86.2181001  28.8814573  77.2278357  81.7300980  26.0013937
  78.0739553  82.1540394  26.1448586  77.1676995  81.0734605  26.6952500
  81.1976102  87.3529564  22.3832669  80.5684964  87.5175278  21.6808737
  80.8101764  87.7671174  23.1543633  85.0765334  88.2884002  19.7377033
  84.3916372  88.6682904  19.1874066  85.1609183  88.8979329  20.4708980
  80.3777803  79.3905349  27.6595111  80.1338735  80.1447409  27.1229386
  80.6537733  79.7690696  28.4942358  82.3316265  85.9343961  26.3372376
  82.5433161  86.5775721  25.6606757  82.2846014  85.1006278  25.8694306
  79.9342494  78.5461782  23.2408948  79.0726973  78.8443035  23.5325686
  79.9604929  78.7632181  22.3089981  76.7504064  87.0903972  19.6482754
  77.2142409  87.3691675  18.8587376  76.4860862  86.1887417  19.4655845
  73.6428145  86.6375454  22.5862517  74.2129502  87.0662722  21.9480002
  74.2336257  86.3558039  23.2846703  75.6872950  83.2127125  16.4572319
  76.3896993  83.6648168  16.9246246  75.3553578  82.5710944  17.0852212
  74.1353311  81.8038881  30.8323529  73.5051972  82.4855162  31.0658925
  74.0289399  81.6921963  29.8876667  69.4298284  81.4710677  21.7589453
  68.6397338  81.7268206  21.2829563  69.9209531  82.2859015  21.8641493
  83.4462093  88.8115917  24.5094734  84.2679537  88.4096104  24.2277415
  83.4424496  88.7084151  25.4610849  71.3813029  81.8355257  18.7172929
  70.5844193  81.9473951  19.2356425  71.1538621  82.1741909  17.8513820
  77.2118697  88.3599960  26.6655444  77.2763129  88.8220367  27.5013616
  76.5029621  87.7297325  26.7937754  67.7135987  81.7241168  24.1904443
  67.9644025  82.6088178  24.4562019  68.2495535  81.5445769  23.4179535
  91.5368086  85.1554665  20.8579705  90.7831795  84.5862063  20.7023709
  91.6715628  85.1217330  21.8050340  76.9266715  90.0268067  16.5334424
  76.7912389  90.8719603  16.9619272  77.4676527  90.2287345  15.7700358
  73.4134054  76.1059647  33.1948780  73.0201000  75.5525846  33.8696424
  74.2300194  76.4170226  33.5855297  70.3796112  87.5443505  17.1062349
  70.8920632  88.3386756  17.2567914  71.0318825  86.8469796  17.0395951
  72.1890997  90.6609262  19.1885103  72.3657625  91.5827226  19.0006087
  72.9847830  90.3467681  19.6179482  76.3302015  77.5217526  30.7869036
  77.0711729  78.1224679  30.7073499  76.5619938  76.7795164  30.2287079
  71.4743353  82.7073894  29.0647266  71.3596868  81.8059151  29.3654365
  70.6187871  82.9537590  28.7132082  78.5535191  90.6491634  30.6634766
  78.1099045  89.8628012  30.3455671  79.2152404  90.8370784  29.9978657
  73.3122312  92.1787436  25.1895445  73.8629737  92.0504499  24.4172439
  72.4733788  92.4782325  24.8390338  80.6516429  90.9294434  28.6916168
  80.6334904  91.7503315  28.1996437  81.5736349  90.8048509  28.9166309
  77.1089483  88.4438563  29.5339676  77.6417820  87.6826852  29.3038984
  76.5803564  88.1512215  30.2763831  80.2759178  73.5498629  25.0633318
  79.9323447  74.4400271  24.9872428  80.6438141  73.3600287  24.2002903
  68.3445029  85.8732160  17.8821920  69.1820251  86.2829168  17.6655628
  68.5223296  84.9331602  17.8522114  80.2409461  83.5407240  13.5705753
  79.7256084  84.3111845  13.8094140  79.9686769  82.8672377  14.1938814
  77.8256572  78.3856941  18.6290991  76.9698168  77.9963792  18.4496630
  78.2383524  78.4648902  17.7690777  79.3555718  75.9203284  23.0282551
  78.8520514  75.8833420  22.2150356  79.6486325  76.8296027  23.0879208
  75.5998604  76.0042014  22.0348733  76.4651601  75.8084823  21.6754622
  75.6676113  75.7752366  22.9618090  85.2143735  86.2939595  15.5058926
  84.4373178  85.9550755  15.0614088  85.8935216  86.2992218  14.8313891
  80.0295764  81.4134332  15.3965534  79.7245900  81.7280482  16.2475677
  80.9826206  81.4915752  15.4392867  78.4742196  87.5724556  17.0458488
  77.9463557  86.8377315  16.7331726  77.9729699  88.3499232  16.7998456
  83.4535042  85.7673576  22.1625534  82.7958716  86.4572838  22.2505663
  84.2575441  86.1570008  22.5059521  73.2060923  78.2344222  19.4065100
  73.7804675  78.0119404  18.6738293  73.7931906  78.3032917  20.1593701
  82.2640501  84.1217949  20.2129476  82.7772382  84.7547941  20.7151186
  82.9141725  83.5219144  19.8472836  73.5330511  80.2648683  13.4260985
  72.6967823  80.6023370  13.7470260  73.3935280  80.1297663  12.4888122
  75.5083591  75.1085471  18.1340169  74.8548003  74.7934488  17.5096784
  75.4664065  74.4861211  18.8599992  76.6194796  85.3904766  10.0493461
  75.7121858  85.1594020  10.2484610  77.1165828  84.5942385  10.2367443
  78.7421332  81.5967405  22.4587817  77.8243893  81.8182352  22.3009505
  79.1581475  81.6713715  21.5999524  79.5256379  82.9958820  17.5890497
  80.2728198  83.5080217  17.2797619  79.7947969  82.6742873  18.4494890
  77.7983029  85.4917361  14.5717451  76.8894249  85.2076394  14.6689921
  77.8278113  85.9116440  13.7120758  83.0302297  89.1023950  18.3408619
  82.5764624  88.2614860  18.3973809  82.3996264  89.7385349  18.6783399
  81.9735216  80.0315936  19.5709286  81.2357973  79.5193323  19.9019529
  82.2261990  79.5916318  18.7592563  81.4735236  90.9400447  19.2758437
  81.7658210  91.5005504  18.5570803  81.9833857  91.2329008  20.0311596
  82.0746844  72.8092188  20.1651056  82.3805721  71.9489552  19.8776971
  82.7999449  73.4009809  19.9650049  68.3671200  83.2122875  18.5532653
  68.1695600  82.6192236  17.8283720  67.8117864  82.9075085  19.2708592
  76.3467923  83.1045982  20.6727247  76.4016533  82.1519818  20.5969723
  75.5359126  83.2605421  21.1568545  77.4959117  87.0326105  11.9105530
  77.0578547  86.3161964  11.4511167  78.2369558  87.2602219  11.3490621
  74.2860283  81.7223041  18.4317625  73.4728149  82.0217212  18.8382818
  74.7819278  81.3278730  19.1492108  76.4368861  91.7180798  20.3651890
  76.3945040  91.9441645  19.4360422  77.3531560  91.4844173  20.5137691
  79.8834495  82.1864866  27.2632519  80.2383883  82.4136339  28.1226985
  80.5306626  82.5183243  26.6409775  85.6132232  85.3083302  17.9681848
  85.4750131  85.4984898  17.0403038  85.2568451  86.0702684  18.4249899
  73.7774358  79.2941397  24.0478860  74.4173737  79.1530156  23.3501824
  72.9451889  79.0075910  23.6717462  85.6401612  87.3759829  22.9793120
  86.0738118  87.2835118  23.8276174  86.3533192  87.3517329  22.3413136
  74.5534662  88.5943827  20.1613853  75.3475261  88.0994147  19.9596428
  73.8426354  88.0661690  19.7981558  79.3729507  90.9761923  24.5126220
  79.4266529  91.5452859  25.2803936  78.5044288  91.1463808  24.1480258
  70.8617426  82.7386909  16.2373606  69.9315014  82.6771364  16.4543568
  70.9574898  82.2162862  15.4410247  70.7802975  79.2641722  18.8251847
  71.0409792  80.1787055  18.7161008  71.6020147  78.7966164  18.9748460
  72.2527900  80.6779479  25.9950672  72.9250953  80.4696841  25.3463321
  71.4257686  80.4801565  25.5555904  86.5017161  87.4183529  25.5126005
  86.6953051  88.3229340  25.7585280  86.4017779  86.9590948  26.3464590
  78.1553472  77.3041420  28.0116333  77.5081387  78.0031370  27.9180809
  78.9254487  77.7377564  28.3792581  81.5632270  87.5690272  31.0866886
  81.4117776  87.3400824  30.1696970  81.5536949  88.5260873  31.0998231
  78.3317606  85.1422185  26.0713152  79.2609666  85.2933344  25.8982120
  77.9108636  85.2306206  25.2161799  77.1305938  89.1672849  23.8411690
  76.9917024  88.7991634  24.7137628  76.3420534  89.6820489  23.6695648
  77.7254090  94.2681946  15.1837226  77.9005846  93.7969989  15.9982849
  77.0386878  94.8947712  15.4118487  78.6811153  88.5454452  21.2300528
  78.3460986  88.5055222  22.1258178  78.1815099  87.8799168  20.7570938
  72.6555397  83.9522082  26.7553109  72.5175195  83.2202321  27.3564648
  73.5660321  83.8630982  26.4737297  81.6170345  85.8910486  11.5037587
  80.9999515  85.1657314  11.4070640  81.1486833  86.6519847  11.1604662
  75.2837698  83.6642041  26.2436789  75.9937316  83.0235233  26.2023407
  75.2407006  83.9154936  27.1662969  83.2724477  90.6009395  29.1643368
  83.2137023  89.9168615  28.4973951  83.6743995  91.3428385  28.7123994
  73.9966632  80.6507259  28.0632428  73.4603989  80.1997998  28.7154024
  73.4083340  80.7853168  27.3202892  72.2915175  97.4171308  21.9577087
  72.5311774  98.0489833  22.6356105  71.4484372  97.0659348  22.2442446
  73.4068891  80.1095911  10.6258892  72.5298357  79.9884711  10.2621138
  73.8826644  79.3181989  10.3737780  83.2741884  88.5648979  27.3957347
  82.3868663  88.2274900  27.5183746  83.8440435  87.8332010  27.6326113
  64.9271031  84.8973070  20.7200399  65.6142071  84.5834800  20.1321414
  64.7719160  85.8014435  20.4467650  69.7305753  79.7863267  25.1485423
  69.6463942  79.1788936  24.4135832  68.9088459  80.2772285  25.1494919
  76.8043037  93.2250431  24.3618591  76.7313209  94.0305402  24.8737895
  76.3620430  93.4242397  23.5366612  76.5932817  92.4622201  17.8721412
  75.8100339  93.0043881  17.9659637  77.2925562  92.9796181  18.2715653
  79.9029467  78.2716830  20.5155618  80.3998166  77.5186793  20.1956688
  79.1316448  78.3081147  19.9498827  87.7559224  83.9757196  22.1573909
  87.7449101  84.8581911  21.7867842  86.8876604  83.6228747  21.9628446
  79.2641721  93.1237265  26.5176749  79.9769693  93.7584730  26.4452651
  78.7731749  93.2201131  25.7016751  80.9859248  87.0288518  18.0894041
  80.0515526  87.1489980  17.9198745  81.1635916  86.1260984  17.8254051
  76.4864436  80.4134213  20.2427302  76.1162223  79.8605254  20.9308208
  76.9823528  79.8092347  19.6902302  84.3731799  82.8705837  18.6244075
  84.8392251  83.7033828  18.5504378  84.8239299  82.4050818  19.3289334
  74.3153634  90.8731708  27.3382320  75.0163094  91.5068191  27.4911714
  73.8448749  91.2146440  26.5777959  82.4408030  89.2149658  15.6230227
  82.7167874  89.1006253  16.5324101  81.5712529  88.8167143  15.5842400
  82.3448462  75.2386424  22.6634976  81.4311542  75.4690651  22.8317183
  82.7741563  75.3224868  23.5149009  82.1154920  83.4276316  25.1634870
  81.4626370  83.6752223  24.5087323  82.4935300  82.6140454  24.8297348
  79.0762094  93.4636009  19.2663041  79.2584489  92.6457665  19.7290793
  79.8995080  93.6803701  18.8287931  79.4104260  92.3904194  16.5278089
  79.9392026  91.8796649  15.9148251  79.6732479  92.0746724  17.3923622
  78.1642493  84.1696127  31.6500908  77.4883130  84.0690256  32.3203283
  78.9870127  84.0135341  32.1136905  69.9121352  90.4068063  24.2713423
  70.4974789  89.6611751  24.4041327  69.7146191  90.7172020  25.1550087
  72.7660008  93.4419311  19.2875865  72.0970383  93.9265438  18.8039905
  72.6272877  93.6888531  20.2019244  64.5039007  82.9773664  22.9917866
  64.5423107  82.4437254  23.7854984  63.9979300  82.4508869  22.3728843
  76.9065276  95.4763054  25.8858524  77.4583584  95.6394676  26.6507609
  77.2471470  96.0667492  25.2138548  71.8829769  77.8238204  26.4880408
  71.9471096  78.6853035  26.0757806  71.8196890  77.2112206  25.7552767
  71.3582042  79.8961337  30.1353443  71.9854081  79.5138414  30.7490967
  70.5009961  79.6775539  30.5009135  81.7576150  90.3024312  31.7407178
  82.3016054  90.9154270  31.2462133  81.1762995  90.8603890  32.2574191
  68.1347585  81.7037766  16.0671797  68.4301026  80.7948444  16.0138851
  67.2335620  81.6825505  15.7452800  80.0433663  93.4245030  22.8722206
  79.9184803  92.6234770  22.3633151  80.7012754  93.9191223  22.3836176
  71.6641832  79.7793762  22.0499346  70.9428417  80.3929730  21.9106819
  72.4535087  80.3151527  21.9715992  82.1068572  91.2254050  24.5001756
  81.1598907  91.1059401  24.4280083  82.4551345  90.3376548  24.5828017
  74.4668145  77.1148189  28.3239998  74.9902547  77.3610485  29.0866307
  74.2480478  77.9468224  27.9043135  69.8635426  79.3851863  16.1911122
  69.5348132  78.5049242  16.0086228  70.2174797  79.3299532  17.0787512
  79.1115005  91.0206766  20.7006108  78.9639967  90.0923474  20.8813678
  79.9368499  91.0426857  20.2163183  72.9777249  79.6724833  16.5586600
  73.3173322  80.2010755  15.8365209  73.4249370  80.0105239  17.3345167
  82.7149127  91.8435325  21.7870981  83.6395674  91.6378186  21.6495432
  82.5464430  91.5951726  22.6960322  75.6720690  78.0561884  26.0089668
  75.3317511  77.2569697  26.4110348  74.9659696  78.3563595  25.4366501
  76.3237162  75.1411196  24.4616991  77.1463231  74.6671675  24.3395882
  76.5675226  75.9201680  24.9615678  74.9645397  78.1699455  14.7579893
  75.6853759  78.5480708  14.2543610  74.3410701  78.8888332  14.8614871
  79.1076519  78.8744604  15.6938225  79.3240134  79.7569242  15.3927053
  78.6270587  78.4830817  14.9643867  73.8475741  81.8330317  22.2708970
  73.7020321  82.1470620  23.1633251  73.3700944  82.4515217  21.7179868
  75.7072124  78.8232865  22.3189859  75.6933692  77.9273958  21.9822157
  76.4244552  78.8303529  22.9528145  77.5598254  79.2570205  24.3642987
  77.3016032  80.1787276  24.3627317  77.0283295  78.8600640  25.0543451
  82.5044443  92.3620992  17.1433072  82.6781321  91.7967415  16.3906925
  82.9973334  93.1621887  16.9612562  68.3221403  84.3735661  25.2096631
  67.7774871  85.1495469  25.3416905  69.2000753  84.7206466  25.0515752
  75.1109020  77.7047245  17.5877430  75.2324931  76.7763891  17.7868317
  74.8211062  77.7185931  16.6755745  77.9800210  75.3902156  20.7244149
  78.0021907  75.4541489  19.7696129  78.3968269  74.5506664  20.9184656
  88.3583834  85.1257415  18.7623372  88.8014980  84.3764740  18.3642495
  87.4810345  85.1167552  18.3797104  83.4919616  91.6787757  14.2429970
  84.1870520  92.2994449  14.4617285  83.8342766  90.8283108  14.5182348
  69.1087425  83.5005558  28.1026788  68.3669161  83.6488193  28.6891418
  68.7880169  83.7613823  27.2393537  85.3911039  89.1287462  15.7717301
  85.9162363  89.4674735  15.0466621  85.3033391  88.1934478  15.5880436
  77.0531087  93.0421536  27.9007178  77.3618214  92.7970683  28.7729877
  77.8506569  93.2468174  27.4126048  77.0751699  95.1959446  20.1312554
  76.6356690  94.7035824  20.8245411  77.8259816  94.6532413  19.8904630
  69.5544038  91.3870986  20.1337183  70.3802058  91.0874758  19.7535826
  69.2038090  90.6178609  20.5826971  74.5225572  90.7397455  22.2034856
  73.9005581  90.0768160  21.9037084  75.1930439  90.7658587  21.5208504
  67.7552644  89.3057313  21.0926116  66.9184552  88.8779487  20.9110117
  67.7276289  89.4989756  22.0296907  74.5950099  79.2179243  31.7967362
  74.6438255  80.0941365  31.4145132  75.1372613  78.6756636  31.2239005
  85.0804945  89.7620366  31.0768499  84.2900489  89.7444505  30.5372999
  84.8438299  90.3008660  31.8317536  85.2002820  86.6112832  28.3901228
  85.2500825  86.4462840  29.3316751  85.0916743  85.7440091  27.9999109
  74.0839079  89.2901378  15.6793317  74.2327199  89.9736842  15.0259989
  74.8905522  89.2706468  16.1942772  82.4906582  82.5943760  29.7060534
  83.3916445  82.4550225  29.4144532  82.5654557  82.7598215  30.6458712
  76.8249388  79.9710615  28.5513721  75.9552697  80.2644181  28.2796309
  77.0608868  80.5551060  29.2720984  86.7021017  89.0309774  28.6343249
  86.4105825  89.3939754  29.4706710  86.0893148  88.3176782  28.4556581
  87.9016699  86.5962654  21.1545820  88.7363590  87.0352458  21.3183380
  88.0375828  86.1201307  20.3354065  84.9508205  84.1542388  27.1023307
  85.4262327  84.3470035  26.2942159  84.0273770  84.2101574  26.8566691
  71.8391712  85.3166556  16.6854386  71.5937753  84.4128886  16.8834596
  72.0087626  85.3183706  15.7433864  79.5288421  76.1890232  26.0679141
  80.0470365  76.9251259  25.7425630  79.1743554  76.4954225  26.9025900
  71.1087359  81.0494913  14.1840547  70.4156604  81.1239268  13.5280583
  70.8639111  80.2855257  14.7062064  79.7801016  72.6090515  21.5880038
  80.0602769  71.9413704  22.2140464  80.5651622  72.8019610  21.0754702
  77.5834484  91.7849508  13.1505064  77.0108451  92.4039696  12.6975536
  78.1567278  92.3348870  13.6844986  83.6509874  81.0308149  25.3351613
  84.6027297  81.1306246  25.3563837  83.4813324  80.2386417  25.8449697
  81.6724253  78.1163732  25.5211014  81.0774185  78.3968744  24.8257502
  81.3873950  78.6057633  26.2927755  80.8031744  92.0686659  14.2813646
  81.7362417  92.0032220  14.4846522  80.7154957  92.9042925  13.8228179
  86.1297952  84.2514268  24.4493913  86.0974272  83.3130269  24.6353596
  86.7398575  84.3298305  23.7159737  77.9681283  83.1210321  10.4921117
  78.9140387  82.9916529  10.5609535  77.5895528  82.3824983  10.9690545
  86.2792440  81.0425312  24.4952196  85.7631489  80.2583768  24.3082125
  87.1632389  80.7144028  24.6598715  83.9403167  74.7866327  20.4548008
  83.7427988  74.4781415  21.3391340  84.5502873  75.5127966  20.5845938
  91.9474502  85.3130275  23.5899949  92.6777890  85.0515563  24.1507653
  91.3381447  84.5758997  23.6302017  90.0289799  83.4538138  24.1874401
  89.3022962  83.3194103  23.5790892  89.6137086  83.7614966  24.9931119
  77.8519975  87.1728067  31.9521774  78.7722985  87.3506666  32.1461820
  77.8169558  86.2284113  31.8001473  76.1524200  81.0460298  10.4276002
  75.2455655  80.7493410  10.5038715  76.4300181  80.7490116   9.5610288
  67.0702140  82.3666661  20.8775048  66.7504924  81.5131969  20.5849422
  66.5235568  82.5815239  21.6333016  70.8482048  85.0829102  24.5944555
  71.0668057  86.0146210  24.6132589  71.2607821  84.7237076  25.3799359
  77.7686265  75.5897187  16.5820243  76.9586994  75.2444272  16.9575489
  78.4570682  75.2804731  17.1707855  79.6976814  74.6675234  18.2044540
  80.2507852  75.0870688  18.8634563  79.9346900  73.7410982  18.2467496
  75.7209913  80.6562308  33.9847304  75.6206640  81.6056665  33.9159395
  75.5031455  80.3280547  33.1123374  74.9222984  77.9047233  10.5687981
  75.7842148  78.2302131  10.8283798  75.1073329  77.1178729  10.0561047
  66.9390400  85.9869572  22.8468170  66.2453872  85.5723525  22.3338124
  67.6863391  86.0290109  22.2501589  83.0755621  76.7775759  17.7123204
  82.4954290  77.4360563  17.3301256  82.8091554  75.9553104  17.3010622
  81.5259187  76.1780817  19.9144524  82.0258966  76.2897352  19.1058843
  82.1694795  75.8741870  20.5545333  75.5841183  84.0859447  32.8012365
  75.1008265  84.8859807  33.0076254  75.6702122  84.0967391  31.8479809
  68.8527143  85.9187826  20.7234185  68.8297831  86.0175514  19.7716068
  69.1627779  86.7652977  21.0451351  71.5114521  87.9763981  24.8380799
  72.4657774  87.9447924  24.7710731  71.3127044  87.5154605  25.6531025
  72.1013903  86.5465097  27.4051597  72.9206792  87.0409176  27.4286434
  72.3750710  85.6297065  27.3769164  81.8580499  78.9375850  16.7679552
  80.9706354  79.2225500  16.5499747  82.2734488  78.7769613  15.9206829
  85.2095035  78.9622371  20.4833892  85.9855425  79.4518823  20.7558508
  84.4843169  79.3880425  20.9405761  87.6467594  79.6749990  21.5407832
  88.2412084  79.4345726  20.8301140  87.7194177  78.9557120  22.1681368
  69.8664749  93.5183601  21.8550997  69.7319217  92.7584002  21.2888995
  69.4496812  94.2424501  21.3879786  81.0023712  88.7020524  10.8627572
  81.7059562  88.9070527  11.4785228  80.2786361  89.2697286  11.1276656
  81.8321523  84.4530386  16.9829842  81.7756724  84.9098937  16.1437475
  82.3849865  83.6921070  16.8052685  85.6426328  80.2420117  17.8079962
  85.3863263  79.8416753  18.6388170  85.0179197  80.9563911  17.6830101
  89.9538666  82.9816191  20.3151253  89.3938224  83.0509380  21.0882815
  89.3482170  82.8057175  19.5950750  73.0233875  94.4152918  22.0669440
  72.9066259  95.3598350  21.9648130  72.2026321  94.1126479  22.4555239
  82.9110410  89.1403054  12.9126032  83.7456014  88.7084252  12.7303507
  82.7494753  88.9685067  13.8402927  82.5656302  85.6435167  14.2782372
  82.5105106  85.4779438  13.3370816  81.9402357  86.3511200  14.4344561
  67.3548817  80.8803231  28.1043794  68.0007680  80.3702185  28.5931019
  67.1465968  81.6171913  28.6787219  79.8802209  87.9484079  33.6035934
  80.7493369  88.1224731  33.2422569  79.4008961  88.7678496  33.4811664
  75.8752427  75.1443276  13.8567690  75.8631097  76.0885116  14.0135961
  76.7675849  74.9613421  13.5627151  74.0488389  95.0681180  25.2825368
  74.9515636  95.1004790  25.5991863  73.8225759  94.1381631  25.2971704
  75.8041991  93.8212166  21.9435447  74.8537622  93.8214028  21.8299819
  76.1074477  93.0744901  21.4271481  79.6904547  71.7386052  18.1113627
  78.9236943  71.1844539  18.2570309  80.1015252  71.8107921  18.9727778
  71.6946308  78.0270848  32.2018808  72.5577769  77.6707653  32.4122133
  71.1211719  77.6884743  32.8894212  91.5394685  99.6572705  23.0081209
  92.1773095  99.5379452  22.3044549  91.4215528 100.6053549  23.0669161
  88.3484391  99.6100133  22.9442734  88.0102903  99.4941197  22.0563269
  89.2174159  99.2091298  22.9243740  88.8304174 100.7634984  28.9028939
  88.8192815 100.3687783  28.0309443  88.9924814 100.0301057  29.4962711
  81.7535639 102.9586801  21.7723845  82.5456931 102.6177625  21.3570144
  81.9932289 103.0681776  22.6925998  85.5511435 103.5472096  27.8508123
  85.2601301 104.4517727  27.7354790  86.1868420 103.5888624  28.5652193
  86.4767642 100.9248945  24.4409483  87.0731214 100.7004967  23.7266446
  86.5342614 100.1833690  25.0434931  91.0935953  97.3824158  20.0834417
  91.8799043  96.9643582  19.7324834  91.3574658  98.2870251  20.2516065
  94.0169801  91.0320966  25.4462004  93.6853126  91.9016377  25.2223219
  93.4215414  90.7157250  26.1256035  90.5101320 103.2333512  24.8457917
  90.2102043 104.1358551  24.7373724  90.1652380 102.9665695  25.6979070
  83.9613802  99.6847309  20.8794621  83.0364298  99.5523523  21.0872313
  84.2098215 100.4641528  21.3764564  93.9098464  95.7516052  22.5255354
  93.0015341  95.6831460  22.2314115  93.8586060  96.2287997  23.3537180
  81.3222613  99.3280582  21.7138410  81.4514994  99.5815061  22.6277822
  80.6420064  99.9208290  21.3943065  87.9839330  97.1705698  30.4690252
  87.2072664  97.7299618  30.4593116  88.6229893  97.6562481  30.9905122
  95.7760110  93.9532490  24.3033228  95.1334491  94.2465024  23.6573023
  95.2715039  93.8385411  25.1086425  86.2385702  99.9791151  30.0308219
  86.9800387 100.5176195  29.7543042  85.5322688 100.6057440  30.1879770
  91.7141042 102.1220291  28.6280380  92.1224398 101.6802702  27.8835012
  90.9918303 101.5472919  28.8814573  88.0672112  97.0592898  26.0013937
  88.9133307  97.4832312  26.1448586  88.0070750  96.4026522  26.6952500
  91.2171557  94.7197267  27.6595111  90.9732489  95.4739327  27.1229386
  91.4931488  95.0982614  28.4942358  93.1710020 101.2635879  26.3372376
  93.3826915 101.9067639  25.6606757  93.1239768 100.4298195  25.8694306
  90.7736249  93.8753700  23.2408948  89.9120728  94.1734953  23.5325686
  90.7998684  94.0924098  22.3089981  84.4821899 101.9667372  22.5862517
  85.0523256 102.3954640  21.9480002  85.0730011 101.6849956  23.2846703
  84.9747066  97.1330799  30.8323529  84.3445726  97.8147080  31.0658925
  84.8683154  97.0213881  29.8876667  80.2692038  96.8002595  21.7589453
  79.4791092  97.0560124  21.2829563  80.7603286  97.6150933  21.8641493
  82.2206784  97.1647174  18.7172929  81.4237947  97.2765869  19.2356425
  81.9932376  97.5033827  17.8513820  88.0512451 103.6891878  26.6655444
  88.1156884 104.1512285  27.5013616  87.3423375 103.0589243  26.7937754
  78.5529741  97.0533086  24.1904443  78.8037780  97.9380095  24.4562019
  79.0889290  96.8737687  23.4179535  84.2527809  91.4351565  33.1948780
  83.8594754  90.8817763  33.8696424  85.0693949  91.7462143  33.5855297
  87.1695770  92.8509444  30.7869036  87.9105483  93.4516597  30.7073499
  87.4013692  92.1087082  30.2287079  82.3137108  98.0365811  29.0647266
  82.1990623  97.1351069  29.3654365  81.4581625  98.2829508  28.7132082
  89.3928945 105.9783552  30.6634766  88.9492800 105.1919930  30.3455671
  90.0546159 106.1662702  29.9978657  84.1516067 107.5079353  25.1895445
  84.7023492 107.3796417  24.4172439  83.3127542 107.8074242  24.8390338
  91.4910183 106.2586352  28.6916168  91.4728659 107.0795233  28.1996437
  92.4130104 106.1340427  28.9166309  87.9483238 103.7730481  29.5339676
  88.4811574 103.0118769  29.3038984  87.4197319 103.4804133  30.2763831
  91.1152933  88.8790547  25.0633318  90.7717202  89.7692189  24.9872428
  91.4831895  88.6892205  24.2002903  79.1838783 101.2024077  17.8821920
  80.0214005 101.6121086  17.6655628  79.3617051 100.2623520  17.8522114
  88.6650326  93.7148859  18.6290991  87.8091923  93.3255709  18.4496630
  89.0777278  93.7940820  17.7690777  90.1949473  91.2495202  23.0282551
  89.6914269  91.2125337  22.2150356  90.4880080  92.1587945  23.0879208
  86.4392359  91.3333932  22.0348733  87.3045356  91.1376741  21.6754622
  86.5069868  91.1044284  22.9618090  84.0454678  93.5636140  19.4065100
  84.6198430  93.3411321  18.6738293  84.6325660  93.6324834  20.1593701
  86.3477346  90.4377389  18.1340169  85.6941758  90.1226406  17.5096784
  86.3057820  89.8153129  18.8599992  89.5815086  96.9259322  22.4587817
  88.6637647  97.1474269  22.3009505  89.9975230  97.0005633  21.5999524
  92.9140598  88.1384106  20.1651056  93.2199475  87.2781470  19.8776971
  93.6393203  88.7301726  19.9650049  79.2064954  98.5414793  18.5532653
  79.0089354  97.9484153  17.8283720  78.6511618  98.2367003  19.2708592
  87.1861678  98.4337899  20.6727247  87.2410288  97.4811736  20.5969723
  86.3752880  98.5897338  21.1568545  85.1254038  97.0514959  18.4317625
  84.3121903  97.3509130  18.8382818  85.6213032  96.6570648  19.1492108
  90.7228250  97.5156783  27.2632519  91.0777637  97.7428257  28.1226985
  91.3700381  97.8475160  26.6409775  84.6168113  94.6233314  24.0478860
  85.2567492  94.4822074  23.3501824  83.7845643  94.3367828  23.6717462
  90.2123261 106.3053840  24.5126220  90.2660283 106.8744777  25.2803936
  89.3438042 106.4755725  24.1480258  81.6196729  94.5933639  18.8251847
  81.8803546  95.5078973  18.7161008  82.4413901  94.1258082  18.9748460
  83.0921654  96.0071397  25.9950672  83.7644708  95.7988759  25.3463321
  82.2651441  95.8093483  25.5555904  88.9947226  92.6333338  28.0116333
  88.3475141  93.3323287  27.9180809  89.7648242  93.0669481  28.3792581
  92.4026024 102.8982190  31.0866886  92.2511531 102.6692741  30.1696970
  92.3930704 103.8552791  31.0998231  89.1711361 100.4714102  26.0713152
  90.1003421 100.6225262  25.8982120  88.7502391 100.5598123  25.2161799
  87.9699693 104.4964767  23.8411690  87.8310778 104.1283551  24.7137628
  87.1814289 105.0112406  23.6695648  83.4949152  99.2814000  26.7553109
  83.3568950  98.5494238  27.3564648  84.4054075  99.1922900  26.4737297
  86.1231452  98.9933959  26.2436789  86.8331071  98.3527151  26.2023407
  86.0800760  99.2446854  27.1662969  94.1118231 105.9301312  29.1643368
  94.0530777 105.2460532  28.4973951  94.5137749 106.6720302  28.7123994
  84.8360386  95.9799177  28.0632428  84.2997743  95.5289915  28.7154024
  84.2477095  96.1145086  27.3202892  94.1135638 103.8940896  27.3957347
  93.2262417 103.5566818  27.5183746  94.6834189 103.1623927  27.6326113
  75.7664785 100.2264988  20.7200399  76.4535825  99.9126718  20.1321414
  75.6112914 101.1306353  20.4467650  80.5699508  95.1155185  25.1485423
  80.4857696  94.5080854  24.4135832  79.7482214  95.6064203  25.1494919
  90.7423221  93.6008748  20.5155618  91.2391921  92.8478710  20.1956688
  89.9710203  93.6373065  19.9498827  90.1035475 108.4529183  26.5176749
  90.8163447 109.0876647  26.4452651  89.6125504 108.5493049  25.7016751
  87.3258190  95.7426131  20.2427302  86.9555978  95.1897171  20.9308208
  87.8217283  95.1384265  19.6902302  85.1547389 106.2023626  27.3382320
  85.8556848 106.8360109  27.4911714  84.6842504 106.5438358  26.5777959
  93.1842216  90.5678342  22.6634976  92.2705296  90.7982568  22.8317183
  93.6135318  90.6516786  23.5149009  92.9548675  98.7568234  25.1634870
  92.3020125  99.0044141  24.5087323  93.3329055  97.9432372  24.8297348
  89.0036248  99.4988045  31.6500908  88.3276885  99.3982174  32.3203283
  89.8263882  99.3427258  32.1136905  80.7515107 105.7359981  24.2713423
  81.3368544 104.9903669  24.4041327  80.5539945 106.0463938  25.1550087
  75.3432762  98.3065581  22.9917866  75.3816861  97.7729172  23.7854984
  74.8373054  97.7800787  22.3728843  82.7223524  93.1530122  26.4880408
  82.7864850  94.0144953  26.0757806  82.6590644  92.5404123  25.7552767
  82.1975796  95.2253254  30.1353443  82.8247835  94.8430332  30.7490967
  81.3403715  95.0067456  30.5009135  92.5969905 105.6316230  31.7407178
  93.1409809 106.2446188  31.2462133  92.0156750 106.1895808  32.2574191
  78.9741339  97.0329683  16.0671797  79.2694780  96.1240362  16.0138851
  78.0729375  97.0117423  15.7452800  82.5035586  95.1085680  22.0499346
  81.7822172  95.7221648  21.9106819  83.2928842  95.6443445  21.9715992
  85.3061900  92.4440107  28.3239998  85.8296301  92.6902403  29.0866307
  85.0874233  93.2760141  27.9043135  80.7029181  94.7143781  16.1911122
  80.3741887  93.8341160  16.0086228  81.0568551  94.6591450  17.0787512
  83.8171004  95.0016751  16.5586600  84.1567076  95.5302672  15.8365209
  84.2643124  95.3397157  17.3345167  86.5114445  93.3853802  26.0089668
  86.1711265  92.5861615  26.4110348  85.8053451  93.6855512  25.4366501
  87.1630916  90.4703114  24.4616991  87.9856986  89.9963592  24.3395882
  87.4068980  91.2493598  24.9615678  84.6869495  97.1622235  22.2708970
  84.5414076  97.4762538  23.1633251  84.2094699  97.7807135  21.7179868
  86.5465878  94.1524783  22.3189859  86.5327447  93.2565876  21.9822157
  87.2638306  94.1595446  22.9528145  88.3992009  94.5862123  24.3642987
  88.1409787  95.5079194  24.3627317  87.8677049  94.1892557  25.0543451
  79.1615157  99.7027579  25.2096631  78.6168625 100.4787387  25.3416905
  80.0394507 100.0498384  25.0515752  85.9502774  93.0339163  17.5877430
  86.0718685  92.1055809  17.7868317  85.6604816  93.0477849  16.6755745
  88.8193964  90.7194073  20.7244149  88.8415661  90.7833407  19.7696129
  89.2362023  89.8798582  20.9184656  79.9481179  98.8297475  28.1026788
  79.2062915  98.9780111  28.6891418  79.6273924  99.0905741  27.2393537
  87.8924842 108.3713454  27.9007178  88.2011968 108.1262600  28.7729877
  88.6900324 108.5760092  27.4126048  78.5946398 104.6349231  21.0926116
  77.7578306 104.2071405  20.9110117  78.5670043 104.8281674  22.0296907
  85.4343854  94.5471160  31.7967362  85.4832009  95.4233283  31.4145132
  85.9766368  94.0048553  31.2239005  95.9198699 105.0912284  31.0768499
  95.1294243 105.0736422  30.5372999  95.6832054 105.6300577  31.8317536
  96.0396574 101.9404750  28.3901228  96.0894579 101.7754757  29.3316751
  95.9310498 101.0732009  27.9999109  93.3300337  97.9235678  29.7060534
  94.2310199  97.7842143  29.4144532  93.4048311  98.0890133  30.6458712
  87.6643142  95.3002533  28.5513721  86.7946451  95.5936099  28.2796309
  87.9002622  95.8842978  29.2720984  97.5414771 104.3601691  28.6343249
  97.2499579 104.7231672  29.4706710  96.9286902 103.6468700  28.4556581
  95.7901959  99.4834306  27.1023307  96.2656081  99.6761952  26.2942159
  94.8667525  99.5393492  26.8566691  90.3682176  91.5182150  26.0679141
  90.8864120  92.2543177  25.7425630  90.0137309  91.8246143  26.9025900
  90.6194770  87.9382432  21.5880038  90.8996524  87.2705621  22.2140464
  91.4045377  88.1311528  21.0754702  94.4903628  96.3600066  25.3351613
  95.4421051  96.4598164  25.3563837  94.3207079  95.5678335  25.8449697
  92.5118008  93.4455649  25.5211014  91.9167940  93.7260662  24.8257502
  92.2267705  93.9349550  26.2927755  96.9691706  99.5806186  24.4493913
  96.9368026  98.6422187  24.6353596  97.5792330  99.6590223  23.7159737
  97.1186195  96.3717229  24.4952196  96.6025243  95.5875686  24.3082125
  98.0026143  96.0435946  24.6598715  94.7796922  90.1158245  20.4548008
  94.5821743  89.8073333  21.3391340  95.3896627  90.8419884  20.5845938
  88.6913730 102.5019985  31.9521774  89.6116739 102.6798584  32.1461820
  88.6563313 101.5576030  31.8001473  77.9095895  97.6958579  20.8775048
  77.5898679  96.8423887  20.5849422  77.3629323  97.9107157  21.6333016
  81.6875802 100.4121020  24.5944555  81.9061812 101.3438127  24.6132589
  82.1001576 100.0528994  25.3799359  88.6080020  90.9189105  16.5820243
  87.7980748  90.5736190  16.9575489  89.2964437  90.6096649  17.1707855
  90.5370568  89.9967152  18.2044540  91.0901607  90.4162605  18.8634563
  90.7740655  89.0702900  18.2467496  86.5603667  95.9854225  33.9847304
  86.4600394  96.9348582  33.9159395  86.3425209  95.6572464  33.1123374
  77.7784155 101.3161490  22.8468170  77.0847626 100.9015443  22.3338124
  78.5257146 101.3582027  22.2501589  92.3652942  91.5072735  19.9144524
  92.8652720  91.6189269  19.1058843  93.0088550  91.2033787  20.5545333
  86.4234938  99.4151364  32.8012365  85.9402019 100.2151724  33.0076254
  86.5095877  99.4259309  31.8479809  79.6920897 101.2479744  20.7234185
  79.6691585 101.3467431  19.7716068  80.0021534 102.0944895  21.0451351
  82.3508275 103.3055899  24.8380799  83.3051529 103.2739841  24.7710731
  82.1520799 102.8446523  25.6531025  82.9407657 101.8757015  27.4051597
  83.7600546 102.3701094  27.4286434  83.2144465 100.9588983  27.3769164
  96.0488789  94.2914288  20.4833892  96.8249180  94.7810741  20.7558508
  95.3236924  94.7172342  20.9405761  78.1942571  96.2095149  28.1043794
  78.8401435  95.6994103  28.5931019  77.9859722  96.9463831  28.6787219
  90.7195964 103.2775996  33.6035934  91.5887123 103.4516649  33.2422569
  90.2402715 104.0970413  33.4811664  84.8882144 110.3973097  25.2825368
  85.7909390 110.4296708  25.5991863  84.6619514 109.4673548  25.2971704
  90.5298301  87.0677970  18.1113627  89.7630697  86.5136457  18.2570309
  90.9409006  87.1399839  18.9727778  82.5340062  93.3562766  32.2018808
  83.3971524  92.9999571  32.4122133  81.9605473  93.0176661  32.8894212
  95.0921563 106.7643483  33.1948780  94.6988509 106.2109681  33.8696424
  95.9087703 107.0754061  33.5855297  98.0089524 108.1801362  30.7869036
  98.7499237 108.7808515  30.7073499  98.2407447 107.4378999  30.2287079
  93.0369551 110.5545172  30.1353443  93.6641590 110.1722249  30.7490967
  92.1797470 110.3359374  30.5009135  96.2737608 109.8763078  31.7967362
  96.3225764 110.7525201  31.4145132  96.8160122 109.3340471  31.2239005
  97.3997422 111.3146143  33.9847304  97.2994149 112.2640500  33.9159395
  97.1818964 110.9864382  33.1123374  89.0336326 111.5387067  28.1043794
  89.6795189 111.0286021  28.5931019  88.8253477 112.2755748  28.6787219
  93.3733817 108.6854684  32.2018808  94.2365278 108.3291488  32.4122133
  92.7999228 108.3468578  32.8894212  46.0353929  21.6678003  17.3880073
  45.5917783  20.8814382  17.0700978  46.6971142  21.8557154  16.7223964
  48.1335167  21.9480803  15.4161474  48.1153642  22.7689684  14.9241744
  49.0555087  21.8234879  15.6411616  49.0451008  18.5876642  17.8112193
  48.8936514  18.3587193  16.8942276  49.0355687  19.5447243  17.8243538
  50.7543214  21.6195764  15.8888674  50.6955760  20.9354984  15.2219257
  51.1562733  22.3614754  15.4369300  49.2394888  21.3210681  18.4652485
  49.7834792  21.9340640  17.9707439  48.6581733  21.8790260  18.9819498
  52.5623683  20.7806735  17.8013806  51.7719226  20.7630874  17.2618305
  52.3257037  21.3195029  18.5562842  54.1839754  20.0496143  15.3588556
  53.8924563  20.4126124  16.1952017  53.5711886  19.3363152  15.1801888
  47.3620947  18.9670448  20.3281241  48.2312106  19.1411101  19.9667876
  46.8827698  19.7864865  20.2056970  59.0213423  30.6759074   9.7326516
  59.6591833  30.5565822   9.0289856  58.9034265  31.6239918   9.7914468
  55.8303129  30.6286502   9.6688040  55.4921640  30.5127567   8.7808575
  56.6992897  30.2277667   9.6489047  56.3122912  31.7821354  15.6274246
  56.3011553  31.3874152  14.7554750  56.4743551  31.0487427  16.2208017
  49.2354377  33.9773170   8.4969152  50.0275668  33.6363995   8.0815451
  49.4751027  34.0868145   9.4171305  53.0330173  34.5658466  14.5753430
  52.7420039  35.4704097  14.4600096  53.6687157  34.6074993  15.2897499
  53.9586380  31.9435314  11.1654790  54.5549952  31.7191337  10.4511752
  54.0161351  31.2020060  11.7680237  63.9763118  28.3385761   7.7112702
  64.7088290  27.7684978   7.9450532  63.2202474  27.9507362   8.1519208
  61.4988539  22.0507335  12.1707311  61.1671863  22.9202746  11.9468526
  60.9034152  21.7343619  12.8501341  57.9920058  34.2519881  11.5703224
  57.6920781  35.1544920  11.4619031  57.6471118  33.9852065  12.4224376
  61.3917202  26.7702422   9.2500661  60.4834079  26.7017830   8.9559422
  61.3404798  27.2474366  10.0782486  52.9740838  41.0164202   4.5374191
  52.8964868  41.9672027   4.6162672  52.3702481  40.6710074   5.1949118
  55.4658068  28.1892067  17.1935558  54.6891402  28.7485987  17.1838423
  56.1048631  28.6748850  17.7150428  63.2578848  24.9718860  11.0278535
  62.6153229  25.2651393  10.3818329  62.7533777  24.8571780  11.8331731
  53.7204440  30.9977520  16.7553525  54.4619124  31.5362564  16.4788349
  53.0141425  31.6243809  16.9125077  59.1959780  33.1406661  15.3525687
  59.6043136  32.6989071  14.6080319  58.4737041  32.5659288  15.6059880
  55.5490850  28.0779268  12.7259244  56.3952045  28.5018681  12.8693893
  55.4889487  27.4212892  13.4197807  59.5188594  33.7007852   9.1077976
  58.8897457  33.8653566   8.4054043  59.1314256  34.1149461   9.8788940
  63.3977826  34.6362289   6.4622339  62.7128864  35.0161191   5.9119373
  63.4821675  35.2457616   7.1954287  58.6990295  25.7383636  14.3840417
  58.4551227  26.4925697  13.8474693  58.9750225  26.1168984  15.2187664
  60.6528758  32.2822248  13.0617683  60.8645653  32.9254008  12.3852064
  60.6058506  31.4484565  12.5939613  55.0716556  33.4382260   6.3728061
  55.5354902  33.7169963   5.5832683  54.8073354  32.5365704   6.1901151
  51.9640637  32.9853741   9.3107824  52.5341994  33.4141010   8.6725308
  52.5548749  32.7036326  10.0092010  52.4565804  28.1517169  17.5568835
  51.8264464  28.8333450  17.7904232  52.3501892  28.0400250  16.6121973
  61.7674586  35.1594204  11.2340040  62.5892029  34.7574391  10.9522722
  61.7636989  35.0562438  12.1856156  55.5331189  34.7078247  13.3900751
  55.5975622  35.1698654  14.2258923  54.8242113  34.0775612  13.5183061
  69.8580579  31.5032952   7.5825012  69.1044287  30.9340350   7.4269016
  69.9928120  31.4695617   8.5295646  51.7346546  22.4537935  19.9194086
  51.3413492  21.9004133  20.5941730  52.5512687  22.7648513  20.3100604
  50.5103489  37.0087549   5.9130409  50.6870117  37.9305514   5.7251393
  51.3060322  36.6945968   6.3424789  54.6514507  23.8695814  17.5114343
  55.3924221  24.4702967  17.4318805  54.8832430  23.1273451  16.9532385
  49.7955845  29.0552181  15.7892572  49.6809361  28.1537438  16.0899671
  48.9400363  29.3015878  15.4377389  56.8747683  36.9969921  17.3880073
  56.4311537  36.2106300  17.0700978  57.5364897  37.1849072  16.7223964
  51.6334804  38.5265723  11.9140752  52.1842229  38.3982786  11.1417746
  50.7946280  38.8260612  11.5635644  58.9728921  37.2772721  15.4161474
  58.9547397  38.0981602  14.9241744  59.8948841  37.1526796  15.6411616
  55.4301975  34.7916851  16.2584983  55.9630312  34.0305139  16.0284291
  54.9016057  34.4990502  17.0009137  61.7747534  32.1151864   8.8870841
  61.1171209  32.8051125   8.9750970  62.5787933  32.5048295   9.2304827
  60.5852993  30.4696236   6.9374783  61.0984875  31.1026228   7.4396493
  61.2354217  29.8697432   6.5718143  57.0633824  27.9445692   9.1833123
  56.1456385  28.1660639   9.0254811  57.4793967  28.0192002   8.3244831
  61.3514789  35.4502238   5.0653925  60.8977116  34.6093148   5.1219116
  60.7208756  36.0863636   5.4028706  59.7947728  37.2878734   6.0003744
  60.0870703  37.8483791   5.2816109  60.3046349  37.5807295   6.7556903
  54.7581354  38.0659085   7.0897197  54.7157532  38.2919932   6.1605729
  55.6744052  37.8322460   7.2382998  58.2046987  28.5343153  13.9877826
  58.5596375  28.7614626  14.8472292  58.8519119  28.8661530  13.3655081
  63.9344724  31.6561589   4.6927155  63.7962623  31.8463185   3.7648344
  63.5780943  32.4180972   5.1495206  63.9614104  33.7238116   9.7038427
  64.3950611  33.6313405  10.5521481  64.6745685  33.6995616   9.0658443
  52.8747154  34.9422114   6.8859159  53.6687753  34.4472435   6.6841734
  52.1638847  34.4139978   6.5226865  57.6941999  37.3240210  11.2371527
  57.7479021  37.8931146  12.0049243  56.8256780  37.4942095  10.8725564
  50.5740392  27.0257766  12.7195978  51.2463446  26.8175128  12.0708627
  49.7470179  26.8279852  12.2801211  64.8229653  33.7661817  12.2371312
  65.0165544  34.6707627  12.4830587  64.7230272  33.3069236  13.0709897
  56.4765964  23.6519707  14.7361639  55.8293879  24.3509657  14.6426116
  57.2466980  24.0855851  15.1037887  59.8844762  33.9168559  17.8112193
  59.7330269  33.6879111  16.8942276  59.8749442  34.8739161  17.8243538
  56.6530099  31.4900472  12.7958459  57.5822159  31.6411632  12.6227426
  56.2321129  31.5784493  11.9407105  55.4518430  35.5151136  10.5656997
  55.3129516  35.1469921  11.4382935  54.6633027  36.0298776  10.3940954
  56.0466582  40.6160233   1.9082533  56.2218338  40.1448276   2.7228156
  55.3599370  41.2425999   2.1363794  57.0023645  34.8932739   7.9545834
  56.6673478  34.8533509   8.8503484  56.5027591  34.2277455   7.4816245
  50.9767889  30.3000369  13.4798416  50.8387687  29.5680608  14.0809955
  51.8872813  30.2109269  13.1982603  53.6050190  30.0120329  12.9682095
  54.3149809  29.3713521  12.9268714  53.5619498  30.2633223  13.8908276
  61.5936969  36.9487682  15.8888674  61.5349515  36.2646902  15.2219257
  61.9956487  37.6906672  15.4369300  52.3179124  26.9985546  14.7877735
  51.7816481  26.5476285  15.4399331  51.7295833  27.1331455  14.0448199
  50.6127668  43.7649596   8.6822393  50.8524266  44.3968120   9.3601412
  49.7696864  43.4137636   8.9687753  61.5954376  34.9127266  14.1202654
  60.7081155  34.5753188  14.2429053  62.1652927  34.1810297  14.3571419
  55.1255529  39.5728718  11.0863897  55.0525701  40.3783690  11.5983202
  54.6832923  39.7720684  10.2611919  54.9145309  38.8100488   4.5966719
  54.1312831  39.3522168   4.6904943  55.6138054  39.3274468   4.9960960
  66.0771717  30.3235483   8.8819216  66.0661593  31.2060199   8.5113149
  65.2089096  29.9707034   8.6873753  57.5854213  39.4715552  13.2422056
  58.2982185  40.1063017  13.1697957  57.0944242  39.5679418  12.4262058
  59.3071740  33.3766805   4.8139348  58.3728019  33.4968267   4.6444052
  59.4848408  32.4739272   4.5499357  62.6944291  29.2184124   5.3489382
  63.1604743  30.0512116   5.2749684  63.1451792  28.7529106   6.0534640
  52.6366127  37.2209996  14.0627627  53.3375586  37.8546479  14.2157021
  52.1661242  37.5624727  13.3023266  60.4367412  29.7754603  11.8880177
  59.7838863  30.0230511  11.2332630  60.8147792  28.9618741  11.5542654
  57.3974586  39.8114296   5.9908347  57.5796981  38.9935952   6.4536100
  58.2207572  40.0281989   5.5533237  57.7316752  38.7382481   3.2523396
  58.2604518  38.2274936   2.6393558  57.9944971  38.4225012   4.1168929
  56.4854986  30.5174414  18.3746214  55.8095623  30.4168543  19.0448589
  57.3082619  30.3613628  18.8382211  48.2333845  36.7546351  10.9958729
  48.8187281  36.0090039  11.1286634  48.0358683  37.0650307  11.8795393
  51.0872500  39.7897598   6.0121172  50.4182875  40.2743726   5.5285212
  50.9485369  40.0366819   6.9264550  55.2277768  41.8241342  12.6103830
  55.7796076  41.9872963  13.3752915  55.5683962  42.4145779  11.9383855
  49.6794534  26.2439624  16.8598749  50.3066573  25.8616701  17.4736273
  48.8222453  26.0253826  17.2254442  60.0788643  36.6502599  18.4652485
  60.6228547  37.2632557  17.9707439  59.4975488  37.2082178  18.9819498
  58.3646156  39.7723317   9.5967512  58.2397295  38.9713057   9.0878458
  59.0225247  40.2669510   9.1081482  60.4281064  37.5732337  11.2247062
  59.4811400  37.4537688  11.1525389  60.7763837  36.6854835  11.3073324
  52.7880637  23.4626476  15.0485304  53.3115039  23.7088773  15.8111614
  52.5692971  24.2946511  14.6288442  57.4327497  37.3685053   7.4251415
  57.2852460  36.4401761   7.6058985  58.2580991  37.3905144   6.9408490
  61.0361619  38.1913612   8.5116287  61.9608167  37.9856473   8.3740739
  60.8676923  37.9430013   9.4205629  53.9933182  24.4040171  12.7334975
  53.6530003  23.6047984  13.1355655  53.2872189  24.7041882  12.1611808
  55.8810747  25.6048492  11.0888293  55.6228524  26.5265563  11.0872624
  55.3495787  25.2078927  11.7788758  60.8256935  38.7099280   3.8678379
  60.9993813  38.1445702   3.1152231  61.3185827  39.5100174   3.6857869
  46.6433895  30.7213949  11.9341938  46.0987363  31.4973757  12.0662212
  47.5213245  31.0684753  11.7761059  66.6796327  31.4735703   5.4868679
  67.1227473  30.7243028   5.0887802  65.8022837  31.4645839   5.1042411
  61.8132108  38.0266044   0.9675277  62.5083013  38.6472737   1.1862592
  62.1555258  37.1761395   1.2427655  47.4299917  29.8483845  14.8272095
  46.6881653  29.9966480  15.4136725  47.1092661  30.1092111  13.9638844
  63.7123531  35.4765750   2.4962608  64.2374855  35.8153022   1.7711928
  63.6245884  34.5412765   2.3125743  55.3743580  39.3899823  14.6252485
  55.6830706  39.1448970  15.4975184  56.1719062  39.5946462  14.1371355
  55.3964192  41.5437733   6.8557861  54.9569182  41.0514112   7.5490718
  56.1472309  41.0010700   6.6149936  47.8756531  37.7349274   6.8582489
  48.7014551  37.4353046   6.4781133  47.5250583  36.9656896   7.3072278
  52.8438064  37.0875742   8.9280163  52.2218073  36.4246447   8.6282391
  53.5142931  37.1136874   8.2453811  52.9162591  25.5657530  18.5212669
  52.9650747  26.4419653  18.1390438  53.4585106  25.0234923  17.9484312
  63.4017437  36.1098653  17.8013806  62.6112981  36.0922792  17.2618305
  63.1650792  36.6486947  18.5562842  63.5215312  32.9591120  15.1146534
  63.5713317  32.7941127  16.0562057  63.4129235  32.0918379  14.7244415
  60.8119075  28.9422048  16.4305841  61.7128937  28.8028512  16.1389839
  60.8867049  29.1076502  17.3704019  55.1461880  26.3188902  15.2759027
  54.2765189  26.6122468  15.0041616  55.3821360  26.9029347  15.9966291
  65.0233509  35.3788061  15.3588556  64.7318317  35.7418042  16.1952017
  64.4105640  34.6655069  15.1801888  66.2229191  32.9440941   7.8791126
  67.0576083  33.3830745   8.0428687  66.3588320  32.4679594   7.0599372
  63.2720697  30.5020676  13.8268614  63.7474819  30.6948322  13.0187465
  62.3486263  30.5579862  13.5811998  57.8500914  22.5368519  12.7924448
  58.3682858  23.2729546  12.4670936  57.4956046  22.8432513  13.6271207
  61.9722366  27.3786436  12.0596920  62.9239789  27.4784533  12.0809144
  61.8025817  26.5864704  12.5695004  59.9936746  24.4642019  12.2456320
  59.3986678  24.7447032  11.5502809  59.7086442  24.9535920  13.0173062
  64.4510444  30.5992555  11.1739219  64.4186764  29.6608556  11.3598903
  65.0611068  30.6776592  10.4405044  64.6004932  27.3903599  11.2197502
  64.0843981  26.6062056  11.0327431  65.4844881  27.0622316  11.3844022
  70.2686994  31.6608562  10.3145256  70.9990382  31.3993850  10.8752959
  69.6593939  30.9237284  10.3547324  68.3502291  29.8016425  10.9119707
  67.6235455  29.6672390  10.3036199  67.9349578  30.1093254  11.7176425
  56.1732467  33.5206355  18.6767080  57.0935477  33.6984954  18.8707127
  56.1382050  32.5762400  18.5246779  49.1694540  31.4307389  11.3189861
  49.3880550  32.3624497  11.3377895  49.5820314  31.0715364  12.1044665
  54.0422405  27.0040595  20.7092610  53.9419132  27.9534952  20.6404701
  53.8243947  26.6758834  19.8368680  53.9053675  30.4337734  19.5257672
  53.4220757  31.2338094  19.7321561  53.9914614  30.4445679  18.5725116
  49.8327013  34.3242269  11.5626106  50.7870266  34.2926211  11.4956037
  49.6339536  33.8632892  12.3776332  50.4226395  32.8943385  14.1296903
  51.2419284  33.3887463  14.1531741  50.6963203  31.9775353  14.1014471
  63.5307527  25.3100658   7.2079198  64.3067917  25.7997110   7.4803815
  62.8055661  25.7358712   7.6651068  65.9680086  26.0228277   8.2653139
  66.5624577  25.7824013   7.5546447  66.0406670  25.3035408   8.8926675
  48.1877242  39.8661888   8.5796304  48.0531710  39.1062289   8.0134302
  47.7709304  40.5902788   8.1125092  68.2751159  29.3294478   7.0396560
  67.7150717  29.3987667   7.8128122  67.6694662  29.1535463   6.3196056
  51.3446367  40.7631205   8.7914746  51.2278752  41.7076638   8.6893436
  50.5238814  40.4604767   9.1800545  45.6761309  27.2281518  14.8289100
  46.3220173  26.7180472  15.3176326  45.4678460  27.9650200  15.4032526
  58.2014701  34.2962366  20.3281241  59.0705861  34.4703018  19.9667876
  57.7221453  35.1156783  20.2056970  52.3700882  41.4159467  12.0070675
  53.2728128  41.4483077  12.3237170  52.1438252  40.4859918  12.0217010
  54.1254484  40.1690453   8.6680753  53.1750115  40.1692315   8.5545126
  54.4286970  39.4223188   8.1516788  50.0158800  24.3749136  18.9264115
  50.8790262  24.0185940  19.1367439  49.4424211  24.0363030  19.6139519
  69.8607177  46.0050992   9.7326516  70.4985587  45.8857739   9.0289856
  69.7428020  46.9531836   9.7914468  66.6696883  45.9578420   9.6688040
  66.3315395  45.8419485   8.7808575  67.5386652  45.5569585   9.6489047
  62.5283699  47.8113896   5.6584931  61.9648564  47.7203833   4.8901219
  62.4136094  46.9913801   6.1387424  67.1516666  47.1113272  15.6274246
  67.1405307  46.7166070  14.7554750  67.3137306  46.3779344  16.2208017
  60.0748131  49.3065088   8.4969152  60.8669423  48.9655913   8.0815451
  60.3144781  49.4160063   9.4171305  68.1083258  51.4784864   0.9699396
  67.4571238  52.0638945   0.5833410  68.9027621  52.0091059   1.0294434
  62.0338885  48.5674001   1.3686531  62.8069761  48.0202988   1.2299406
  62.3864284  49.4318251   1.5800992  63.8723927  49.8950384  14.5753430
  63.5813793  50.7996014  14.4600096  64.5080912  49.9366911  15.2897499
  64.7980134  47.2727232  11.1654790  65.3943707  47.0483254  10.4511752
  64.8555106  46.5311978  11.7680237  64.3705163  44.7266667  -0.9995020
  64.6230683  44.2048189  -1.7611557  63.4329722  44.5632813  -0.8968336
  69.4148446  43.7302446   6.8079724  70.2011535  43.3121869   6.4570141
  69.6787150  44.6348538   6.9761372  69.5858523  49.1675296   1.5068381
  68.9504356  49.2409923   2.2189285  69.2555929  49.7568895   0.8287460
  74.8156873  43.6677679   7.7112702  75.5482045  43.0976896   7.9450532
  74.0596228  43.2799279   8.1519208  64.0901451  46.6294773   1.2029355
  63.9737710  45.9539677   1.8710440  64.2003711  46.1427147   0.3861509
  66.4332992  46.0904920   4.9076045  66.0691200  45.5635541   5.6188966
  67.2900108  45.7003389   4.7342530  72.3382293  37.3799253  12.1707311
  72.0065618  38.2494664  11.9468526  71.7427906  37.0635537  12.8501341
  66.0738479  41.1194820  -0.0962607  66.2412882  41.9875057   0.2707864
  65.8835648  41.2822102  -1.0201318  68.8313813  49.5811799  11.5703224
  68.5314536  50.4836838  11.4619031  68.4864872  49.3143982  12.4224376
  62.2826294  46.0325596   7.6039928  61.3576791  45.9001810   7.8117620
  62.5310707  46.8119815   8.1009870  72.2310956  42.0994339   9.2500661
  71.3227834  42.0309748   8.9559422  72.1798552  42.5766284  10.0782486
  66.0527700  43.5752478   0.8884060  65.9327325  44.0209528   1.7269540
  65.3580289  43.9237795   0.3297598  59.6435105  45.6758869   8.4383717
  59.7727486  45.9293348   9.3523129  58.9632556  46.2686577   8.1188372
  63.8134592  56.3456119   4.5374191  63.7358622  57.2963944   4.6162672
  63.2096236  56.0001992   5.1949118  66.3051822  43.5183985  17.1935558
  65.5285156  44.0777905  17.1838423  66.9442385  44.0040768  17.7150428
  74.0972603  40.3010778  11.0278535  73.4546983  40.5943311  10.3818329
  73.5927531  40.1863698  11.8331731  71.7512766  44.0473951   1.7164394
  72.6630623  44.2801338   1.5412092  71.2422414  44.6310995   1.1539473
  64.5598194  46.3269438  16.7553525  65.3012879  46.8654482  16.4788349
  63.8535180  46.9535727  16.9125077  70.0353534  48.4698579  15.3525687
  70.4436890  48.0280989  14.6080319  69.3130796  47.8951206  15.6059880
  66.3884604  43.4071185  12.7259244  67.2345799  43.8310599  12.8693893
  66.3283242  42.7504810  13.4197807  70.3582349  49.0299769   9.1077976
  69.7291211  49.1945483   8.4054043  69.9708011  49.4441379   9.8788940
  74.2371581  49.9654207   6.4622339  73.5522619  50.3453108   5.9119373
  74.3215430  50.5749534   7.1954287  69.5384049  41.0675554  14.3840417
  69.2944981  41.8217614  13.8474693  69.8143980  41.4460901  15.2187664
  71.4922512  47.6114166  13.0617683  71.7039407  48.2545926  12.3852064
  71.4452260  46.7776483  12.5939613  69.0948741  40.2231987   9.9654255
  68.2333220  40.5213240  10.2570993  69.1211176  40.4402386   9.0335288
  65.9110311  48.7674177   6.3728061  66.3748656  49.0461880   5.5832683
  65.6467109  47.8657622   6.1901151  62.8034392  48.3145659   9.3107824
  63.3735749  48.7432927   8.6725308  63.3942504  48.0328244  10.0092010
  64.8479197  44.8897330   3.1817626  65.5503240  45.3418373   3.6491552
  64.5159825  44.2481149   3.8097519  63.2959558  43.4809086  17.5568835
  62.6658219  44.1625367  17.7904232  63.1895646  43.3692168  16.6121973
  58.5904531  43.1480882   8.4834759  57.8003585  43.4038411   8.0074870
  59.0815778  43.9629220   8.5886800  72.6068340  50.4886122  11.2340040
  73.4285784  50.0866309  10.9522722  72.6030743  50.3854356  12.1856156
  60.5419276  43.5125462   5.4418236  59.7450439  43.6244156   5.9601732
  60.3144868  43.8512114   4.5759127  66.3724944  50.0370165  13.3900751
  66.4369376  50.4990572  14.2258923  65.6635868  49.4067530  13.5183061
  56.8742234  43.4011373  10.9149750  57.1250272  44.2858383  11.1807326
  57.4101782  43.2215974  10.1424842  80.6974333  46.8324870   7.5825012
  79.9438042  46.2632268   7.4269016  80.8321874  46.7987535   8.5295646
  66.0872961  51.7038272   3.2579731  65.9518636  52.5489808   3.6864579
  66.6282774  51.9057550   2.4945665  62.5740301  37.7829852  19.9194086
  62.1807246  37.2296051  20.5941730  63.3906441  38.0940431  20.3100604
  59.5402359  49.2213710   3.8307656  60.0526879  50.0156961   3.9813221
  60.1925072  48.5240001   3.7641258  61.3497243  52.3379467   5.9130409
  61.5263872  53.2597431   5.7251393  62.1454077  52.0237886   6.3424789
  65.4908262  39.1987731  17.5114343  66.2317975  39.7994884  17.4318805
  65.7226185  38.4565369  16.9532385  60.6349600  44.3844099  15.7892572
  60.5203115  43.4829356  16.0899671  59.7794118  44.6307795  15.4377389
  67.7141438  52.3261839  17.3880073  67.2705292  51.5398217  17.0700978
  68.3758651  52.5140989  16.7223964  62.4728559  53.8557640  11.9140752
  63.0235984  53.7274704  11.1417746  61.6340035  54.1552529  11.5635644
  69.8122676  52.6064639  15.4161474  69.7941151  53.4273520  14.9241744
  70.7342596  52.4818714  15.6411616  66.2695730  50.1208768  16.2584983
  66.8024067  49.3597056  16.0284291  65.7409811  49.8282420  17.0009137
  69.4365425  35.2268834  11.7878624  69.0929694  36.1170476  11.7117735
  69.8044387  35.0370492  10.9248209  57.5051275  47.5502365   4.6067227
  58.3426497  47.9599373   4.3900934  57.6829543  46.6101807   4.5767420
  69.4015708  45.2177445   0.2951060  68.8862331  45.9882050   0.5339447
  69.1293016  44.5442581   0.9184121  66.9862819  40.0627146   5.3536298
  66.1304415  39.6733996   5.1741937  67.3989770  40.1419107   4.4936083
  68.5161965  37.5973489   9.7527858  68.0126761  37.5603625   8.9395663
  68.8092572  38.5066232   9.8124514  64.7604851  37.6812219   8.7594039
  65.6257848  37.4855028   8.3999929  64.8282360  37.4522571   9.6863396
  74.3749982  47.9709800   2.2304233  73.5979424  47.6320959   1.7859395
  75.0541463  47.9762423   1.5559198  69.1902011  43.0904537   2.1210841
  68.8852146  43.4050687   2.9720984  70.1432453  43.1685957   2.1638174
  67.6348443  49.2494761   3.7703795  67.1069804  48.5147520   3.4577032
  67.1335945  50.0269437   3.5243763  72.6141289  47.4443781   8.8870841
  71.9564963  48.1343043   8.9750970  73.4181688  47.8340213   9.2304827
  62.3667170  39.9114427   6.1310406  62.9410922  39.6889609   5.3983599
  62.9538153  39.9803122   6.8839008  71.4246747  45.7988154   6.9374783
  71.9378629  46.4318146   7.4396493  72.0747971  45.1989349   6.5718143
  62.6936757  41.9418888   0.1506292  61.8574070  42.2793575   0.4715566
  62.5541527  41.8067868  -0.7866572  64.6689838  36.7855676   4.8585476
  64.0154250  36.4704693   4.2342090  64.6270312  36.1631416   5.5845299
  65.7801043  47.0674971  -3.2261232  64.8728105  46.8364224  -3.0270083
  66.2772075  46.2712590  -3.0387251  68.6869122  55.7772478  -0.3064546
  68.0130820  56.0804175   0.3020412  69.0734944  56.5801559  -0.6559089
  67.9027578  43.2737609   9.1833123  66.9850140  43.4952556   9.0254811
  68.3187722  43.3483920   8.3244831  68.6862626  44.6729025   4.3135804
  69.4334445  45.1850422   4.0042926  68.9554216  44.3513078   5.1740197
  66.9589276  47.1687566   1.2962758  66.0500495  46.8846599   1.3935228
  66.9884360  47.5886644   0.4366065  72.1908544  50.7794155   5.0653925
  71.7370871  49.9385065   5.1219116  71.5602510  51.4155554   5.4028706
  71.1341463  41.7086141   6.2954593  70.3964220  41.1963528   6.6264835
  71.3868237  41.2686523   5.4837870  70.6341483  52.6170652   6.0003744
  70.9264457  53.1775709   5.2816109  71.1440103  52.9099213   6.7556903
  71.2353091  34.4862393   6.8896362  71.5411967  33.6259757   6.6022277
  71.9605695  35.0780014   6.6895356  57.5277447  44.8893080   5.2777960
  57.3301846  44.2962441   4.5529027  56.9724111  44.5845290   5.9953899
  65.5074170  44.7816186   7.3972553  65.5622780  43.8290023   7.3215030
  64.6965372  44.9375626   7.8813852  66.6565364  48.7096310  -1.3649164
  66.2184794  47.9932168  -1.8243526  67.3975805  48.9372424  -1.9264072
  63.4466530  43.3993246   5.1562932  62.6334396  43.6987417   5.5628124
  63.9425524  43.0048935   5.8737414  65.5975108  53.3951003   7.0897197
  65.5551287  53.6211849   6.1605729  66.5137807  53.1614378   7.2382998
  69.0440742  43.8635071  13.9877826  69.3990130  44.0906544  14.8472292
  69.6912873  44.1953447  13.3655081  74.7738479  46.9853507   4.6927155
  74.6356377  47.1755103   3.7648344  74.4174698  47.7472889   5.1495206
  62.9380605  40.9711602  10.7724167  63.5779984  40.8300361  10.0747130
  62.1058135  40.6846115  10.3962769  74.8007858  49.0530034   9.7038427
  75.2344365  48.9605323  10.5521481  75.5139439  49.0287534   9.0658443
  63.7140909  50.2714032   6.8859159  64.5081507  49.7764352   6.6841734
  63.0032601  49.7431895   6.5226865  68.5335753  52.6532128  11.2371527
  68.5872776  53.2223064  12.0049243  67.6650535  52.8234013  10.8725564
  60.0223672  44.4157114   2.9618912  59.0921260  44.3541569   3.1788874
  60.1181144  43.8933067   2.1655553  59.9409221  40.9411927   5.5497154
  60.2016039  41.8557260   5.4406314  60.7626394  40.4736369   5.6993767
  61.4134147  42.3549684  12.7195978  62.0857200  42.1467046  12.0708627
  60.5863933  42.1571770  12.2801211  75.6623408  49.0953734  12.2371312
  75.8559298  49.9999545  12.4830587  75.5624026  48.6361153  13.0709897
  67.3159719  38.9811625  14.7361639  66.6687634  39.6801574  14.6426116
  68.0860734  39.4147769  15.1037887  70.7238517  49.2460477  17.8112193
  70.5724023  49.0171029  16.8942276  70.7143196  50.2031078  17.8243538
  67.4923853  46.8192390  12.7958459  68.4215913  46.9703549  12.6227426
  67.0714883  46.9076411  11.9407105  66.2912185  50.8443054  10.5656997
  66.1523271  50.4761839  11.4382935  65.5026781  51.3590694  10.3940954
  66.8860337  55.9452151   1.9082533  67.0612092  55.4740194   2.7228156
  66.1993125  56.5717917   2.1363794  67.8417400  50.2224657   7.9545834
  67.5067233  50.1825427   8.8503484  67.3421346  49.5569373   7.4816245
  61.8161644  45.6292287  13.4798416  61.6781442  44.8972526  14.0809955
  62.7266567  45.5401187  13.1982603  70.7776592  47.5680691  -1.7717106
  70.1605762  46.8427519  -1.8684053  70.3093080  48.3290051  -2.1150032
  64.4443945  45.3412246  12.9682095  65.1543563  44.7005438  12.9268714
  64.4013253  45.5925141  13.8908276  72.4330723  52.2779600  15.8888674
  72.3743269  51.5938820  15.2219257  72.8350242  53.0198590  15.4369300
  63.1572879  42.3277464  14.7877735  62.6210236  41.8768203  15.4399331
  62.5689587  42.4623373  14.0448199  61.4521422  59.0941513   8.6822393
  61.6918020  59.7260038   9.3601412  60.6090619  58.7429553   8.9687753
  72.4348131  50.2419183  14.1202654  71.5474909  49.9045105  14.2429053
  73.0046682  49.5102215  14.3571419  54.0877278  46.5743275   7.4445705
  54.7748318  46.2605005   6.8566721  53.9325406  47.4784640   7.1712957
  58.8912000  41.4633472  11.8730729  58.8070189  40.8559141  11.1381139
  58.0694706  41.9542490  11.8740225  65.9649284  54.9020636  11.0863897
  65.8919455  55.7075607  11.5983202  65.5226677  55.1012602  10.2611919
  65.7539064  54.1392406   4.5966719  64.9706585  54.6814086   4.6904943
  66.4531809  54.6566385   4.9960960  69.0635714  39.9487035   7.2400924
  69.5604413  39.1956998   6.9201994  68.2922695  39.9851352   6.6744134
  76.9165471  45.6527401   8.8819216  76.9055347  46.5352116   8.5113149
  76.0482851  45.2998952   8.6873753  68.4247967  54.8007470  13.2422056
  69.1375940  55.4354935  13.1697957  67.9337996  54.8971336  12.4262058
  70.1465494  48.7058723   4.8139348  69.2121773  48.8260185   4.6444052
  70.3242163  47.8031189   4.5499357  65.6470682  42.0904418   6.9672609
  65.2768470  41.5375459   7.6553514  66.1429775  41.4862552   6.4147609
  73.5338046  44.5476042   5.3489382  73.9998498  45.3804033   5.2749684
  73.9845546  44.0821023   6.0534640  63.4759881  52.5501913  14.0627627
  64.1769341  53.1838396  14.2157021  63.0054996  52.8916645  13.3023266
  71.6014277  50.8919863   2.3475534  71.8774121  50.7776458   3.2569408
  70.7318776  50.4937348   2.3087707  71.5054708  36.9156629   9.3880283
  70.5917788  37.1460856   9.5562490  71.9347810  36.9995073  10.2394315
  71.2761167  45.1046521  11.8880177  70.6232617  45.3522428  11.2332630
  71.6541547  44.2910659  11.5542654  68.2368341  55.1406214   5.9908347
  68.4190735  54.3227870   6.4536100  69.0601327  55.3573906   5.5533237
  68.5710506  54.0674399   3.2523396  69.0998273  53.5566854   2.6393558
  68.8338726  53.7516929   4.1168929  67.3248740  45.8466332  18.3746214
  66.6489377  45.7460461  19.0448589  68.1476374  45.6905546  18.8382211
  59.0727599  52.0838268  10.9958729  59.6581036  51.3381956  11.1286634
  58.8752438  52.3942225  11.8795393  61.9266254  55.1189516   6.0121172
  61.2576630  55.6035643   5.5285212  61.7879124  55.3658736   6.9264550
  53.6645254  44.6543869   9.7163173  53.7029353  44.1207459  10.5100291
  53.1585547  44.1279074   9.0974150  66.0671523  57.1533259  12.6103830
  66.6189831  57.3164881  13.3752915  66.4077716  57.7437697  11.9383855
  61.0436016  39.5008409  13.2125715  61.1077343  40.3623240  12.8003113
  60.9803136  38.8882411  12.4798073  60.5188289  41.5731542  16.8598749
  61.1460327  41.1908619  17.4736273  59.6616207  41.3545744  17.2254442
  70.9182397  51.9794517  18.4652485  71.4622301  52.5924475  17.9707439
  70.3369242  52.5374095  18.9819498  57.2953831  43.3807971   2.7917104
  57.5907272  42.4718649   2.7384158  56.3941867  43.3595710   2.4698106
  69.2039910  55.1015235   9.5967512  69.0791050  54.3004975   9.0878458
  69.8619001  55.5961428   9.1081482  60.8248078  41.4563967   8.7744653
  60.1034664  42.0699935   8.6352126  61.6141334  41.9921732   8.6961299
  71.2674819  52.9024255  11.2247062  70.3205154  52.7829606  11.1525389
  71.6157592  52.0146753  11.3073324  63.6274392  38.7918394  15.0485304
  64.1508794  39.0380690  15.8111614  63.4086725  39.6238429  14.6288442
  59.0241673  41.0622068   2.9156429  58.6954379  40.1819447   2.7331535
  59.3781044  41.0069737   3.8032818  68.2721252  52.6976971   7.4251415
  68.1246214  51.7693679   7.6058985  69.0974745  52.7197062   6.9408490
  62.1383496  41.3495038   3.2831907  62.4779569  41.8780959   2.5610515
  62.5855617  41.6875444   4.0590473  71.8755374  53.5205530   8.5116287
  72.8001921  53.3148391   8.3740739  71.7070677  53.2721931   9.4205629
  64.8326937  39.7332089  12.7334975  64.4923757  38.9339902  13.1355655
  64.1265943  40.0333800  12.1611808  65.4843409  36.8181401  11.1862298
  66.3069478  36.3441880  11.0641188  65.7281472  37.5971885  11.6860984
  64.1251643  39.8469660   1.4825200  64.8460006  40.2250913   0.9788916
  63.5016947  40.5658537   1.5860178  68.2682766  40.5514809   2.4183532
  68.4846381  41.4339447   2.1172360  67.7876833  40.1601022   1.6889174
  63.0081988  43.5100522   8.9954276  62.8626568  43.8240825   9.8878558
  62.5307191  44.1285422   8.4425175  64.8678370  40.5003070   9.0435166
  64.8539939  39.6044163   8.7067464  65.5850799  40.5073734   9.6773452
  66.7204501  40.9340410  11.0888293  66.4622279  41.8557481  11.0872624
  66.1889542  40.5370845  11.7788758  71.6650690  54.0391197   3.8678379
  71.8387567  53.4737620   3.1152231  72.1579581  54.8392092   3.6857869
  57.4827650  46.0505866  11.9341938  56.9381118  46.8265674  12.0662212
  58.3607000  46.3976671  11.7761059  64.2715266  39.3817450   4.3122736
  64.3931178  38.4534096   4.5113624  63.9817309  39.3956136   3.4001052
  67.1406457  37.0672361   7.4489456  67.1628154  37.1311694   6.4941436
  67.5574516  36.2276869   7.6429962  77.5190081  46.8027620   5.4868679
  77.9621227  46.0534945   5.0887802  76.6416591  46.7937757   5.1042411
  72.6525862  53.3557962   0.9675277  73.3476767  53.9764654   1.1862592
  72.9949013  52.5053313   1.2427655  58.2693672  45.1775763  14.8272095
  57.5275408  45.3258398  15.4136725  57.9486416  45.4384028  13.9638844
  74.5517286  50.8057667   2.4962608  75.0768610  51.1444940   1.7711928
  74.4639638  49.8704683   2.3125743  66.2137334  54.7191741  14.6252485
  66.5224461  54.4740888  15.4975184  67.0112816  54.9238379  14.1371355
  66.2357946  56.8729650   6.8557861  65.7962937  56.3806029   7.5490718
  66.9866063  56.3302618   6.6149936  58.7150285  53.0641191   6.8582489
  59.5408305  52.7644963   6.4781133  58.3644337  52.2948814   7.3072278
  63.6831818  52.4167660   8.9280163  63.0611828  51.7538365   8.6282391
  64.3536685  52.4428791   8.2453811  56.9158890  50.9827518   7.8171423
  56.0790799  50.5549692   7.6355424  56.8882536  51.1759961   8.7542214
  63.7556346  40.8949448  18.5212669  63.8044501  41.7711570  18.1390438
  64.2978860  40.3526841  17.9484312  74.2411192  51.4390571  17.8013806
  73.4506735  51.4214710  17.2618305  74.0044546  51.9778865  18.5562842
  74.3609067  48.2883037  15.1146534  74.4107072  48.1233045  16.0562057
  74.2522990  47.4210296  14.7244415  63.2445325  50.9671583   2.4038623
  63.3933446  51.6507047   1.7505296  64.0511769  50.9476673   2.9188079
  71.6512829  44.2713965  16.4305841  72.5522692  44.1320430  16.1389839
  71.7260804  44.4368420  17.3704019  65.9855634  41.6480820  15.2759027
  65.1158944  41.9414386  15.0041616  66.2215115  42.2321265  15.9966291
  75.8627263  50.7079979  15.3588556  75.5712072  51.0709959  16.1952017
  75.2499395  49.9946987  15.1801888  77.0622946  48.2732859   7.8791126
  77.8969837  48.7122663   8.0428687  77.1982075  47.7971512   7.0599372
  74.1114452  45.8312593  13.8268614  74.5868573  46.0240240  13.0187465
  73.1880017  45.8871779  13.5811998  60.9997958  46.9936761   3.4099692
  60.7544000  46.0899091   3.6079902  61.1693873  46.9953911   2.4679170
  68.6894668  37.8660437  12.7924448  69.2076612  38.6021464  12.4670936
  68.3349801  38.1724430  13.6271207  60.2693606  42.7265118   0.9085854
  59.5762851  42.8009473   0.2525890  60.0245358  41.9625462   1.4307371
  68.9407262  34.2860719   8.3125344  69.2209016  33.6183909   8.9385771
  69.7257869  34.4789815   7.8000008  66.7440731  53.4619713  -0.1249629
  66.1714698  54.0809900  -0.5779157  67.3173525  54.0119075   0.4090293
  72.8116121  42.7078353  12.0596920  73.7633544  42.8076451  12.0809144
  72.6419571  41.9156622  12.5695004  70.8330500  39.7933937  12.2456320
  70.2380432  40.0738949  11.5502809  70.5480197  40.2827838  13.0173062
  69.9637991  53.7456863   1.0058953  70.8968664  53.6802425   1.2091829
  69.8761203  54.5813130   0.5473486  72.5926007  53.0622734  -2.0337099
  72.5139639  52.7282597  -1.1401342  73.4135674  53.5544502  -2.0345627
  75.2904198  45.9284473  11.1739219  75.2580519  44.9900474  11.3598903
  75.9004822  46.0068510  10.4405044  67.1287529  44.7980526  -2.7833577
  68.0746634  44.6686734  -2.7145159  66.7501774  44.0595188  -2.3064149
  75.4398687  42.7195517  11.2197502  74.9237736  41.9353973  11.0327431
  76.3238635  42.3914233  11.3844022  73.1009414  36.4636532   7.1793315
  72.9034235  36.1551620   8.0636647  73.7109119  37.1898171   7.3091245
  81.1080748  46.9900480  10.3145256  81.8384137  46.7285768  10.8752959
  80.4987694  46.2529202  10.3547324  79.1896045  45.1308343  10.9119707
  78.4629209  44.9964308  10.3036199  78.7743332  45.4385171  11.7176425
  67.0126222  48.8498272  18.6767080  67.9329231  49.0276871  18.8707127
  66.9775805  47.9054318  18.5246779  65.3130446  42.7230503  -2.8478692
  64.4061902  42.4263615  -2.7715978  65.5906427  42.4260321  -3.7144405
  56.2308387  44.0436866   7.6020355  55.9111171  43.1902174   7.3094729
  55.6841815  44.2585444   8.3578322  60.0088294  46.7599307  11.3189861
  60.2274304  47.6916415  11.3377895  60.4214068  46.4007281  12.1044665
  66.9292512  37.2667392   3.3065550  66.1193241  36.9214477   3.6820796
  67.6176929  36.9574936   3.8953161  68.8583060  36.3445439   4.9289846
  69.4114099  36.7640892   5.5879869  69.0953147  35.4181187   4.9712802
  64.8816160  42.3332513  20.7092610  64.7812887  43.2826870  20.6404701
  64.6637702  42.0050752  19.8368680  56.0996647  47.6639777   9.5713476
  55.4060118  47.2493730   9.0583431  56.8469638  47.7060314   8.9746895
  72.2361868  38.4545964   4.4368511  71.6560537  39.1130768   4.0546563
  71.9697800  37.6323309   4.0255928  70.6865434  37.8551022   6.6389831
  71.1865212  37.9667556   5.8304150  71.3301042  37.5512075   7.2790639
  64.7447430  45.7629652  19.5257672  64.2614511  46.5630012  19.7321561
  64.8308369  45.7737596  18.5725116  58.0133389  47.5958031   7.4479491
  57.9904078  47.6945718   6.4961374  58.3234026  48.4423182   7.7696657
  60.6720767  49.6534186  11.5626106  61.6264021  49.6218129  11.4956037
  60.4733291  49.1924810  12.3776332  61.2620149  48.2235302  14.1296903
  62.0813038  48.7179381  14.1531741  61.5356957  47.3067270  14.1014471
  71.0186746  40.6146055   3.4924859  70.1312601  40.8995705   3.2745054
  71.4340735  40.4539818   2.6452136  74.3701282  40.6392576   7.2079198
  75.1461672  41.1289028   7.4803815  73.6449416  41.0650630   7.6651068
  76.8073840  41.3520195   8.2653139  77.4018331  41.1115931   7.5546447
  76.8800424  40.6327325   8.8926675  59.0270996  55.1953806   8.5796304
  58.8925464  54.4354207   8.0134302  58.6103058  55.9194706   8.1125092
  70.1629959  50.3790729  -2.4127121  70.8665809  50.5840732  -1.7969466
  69.4392608  50.9467491  -2.1478038  70.9927769  46.1300591   3.7075149
  70.9362971  46.5869142   2.8682781  71.5456112  45.3691275   3.5297992
  74.8032575  41.9190322   4.5325269  74.5469509  41.5186958   5.3633476
  74.1785443  42.6334116   4.4075408  79.1144913  44.6586396   7.0396560
  78.5544471  44.7279585   7.8128122  78.5088416  44.4827380   6.3196056
  62.1840122  56.0923123   8.7914746  62.0672506  57.0368555   8.6893436
  61.3632568  55.7896684   9.1800545  72.0716656  50.8173258  -0.3628661
  72.9062260  50.3854457  -0.5451186  71.9100999  50.6455272   0.5648233
  71.7262549  47.3205372   1.0027678  71.6711352  47.1549643   0.0616122
  71.1008604  48.0281405   1.1589868  56.5155064  42.5573436  14.8289100
  57.1613927  42.0472390  15.3176326  56.3072215  43.2942118  15.4032526
  69.0408456  49.6254284  20.3281241  69.9099615  49.7994936  19.9667876
  68.5615207  50.4448700  20.2056970  65.0358674  36.8213481   0.5812997
  65.0237344  37.7655321   0.7381267  65.9282096  36.6383626   0.2872458
  63.2094636  56.7451385  12.0070675  64.1121883  56.7774995  12.3237170
  62.9832006  55.8151836  12.0217010  64.9648238  55.4982371   8.6680753
  64.0143869  55.4984233   8.5545126  65.2680724  54.7515106   8.1516788
  68.8510794  33.4156257   4.8358933  68.0843189  32.8614744   4.9815616
  69.2621499  33.4878126   5.6973085  60.8552555  39.7041053  18.9264115
  61.7184016  39.3477858  19.1367439  60.2817965  39.3654948  19.6139519
  80.7000932  61.3342910   9.7326516  81.3379342  61.2149657   9.0289856
  80.5821774  62.2823754   9.7914468  77.5090638  61.2870338   9.6688040
  77.1709149  61.1711402   8.7808575  78.3780406  60.8861503   9.6489047
  73.3677454  63.1405814   5.6584931  72.8042319  63.0495751   4.8901219
  73.2529849  62.3205719   6.1387424  77.9910421  62.4405189  15.6274246
  77.9799062  62.0457988  14.7554750  78.1531060  61.7071262  16.2208017
  70.9141885  64.6357006   8.4969152  71.7063177  64.2947830   8.0815451
  71.1538536  64.7451981   9.4171305  78.9477012  66.8076782   0.9699396
  78.2964992  67.3930862   0.5833410  79.7421375  67.3382977   1.0294434
  72.8732639  63.8965919   1.3686531  73.6463515  63.3494906   1.2299406
  73.2258038  64.7610168   1.5800992  74.7117682  65.2242301  14.5753430
  74.4207548  66.1287932  14.4600096  75.3474666  65.2658829  15.2897499
  75.6373889  62.6019150  11.1654790  76.2337461  62.3775172  10.4511752
  75.6948860  61.8603895  11.7680237  75.2098917  60.0558585  -0.9995020
  75.4624438  59.5340106  -1.7611557  74.2723476  59.8924730  -0.8968336
  80.2542200  59.0594363   6.8079724  81.0405289  58.6413787   6.4570141
  80.5180904  59.9640456   6.9761372  80.4252277  64.4967214   1.5068381
  79.7898110  64.5701840   2.2189285  80.0949684  65.0860813   0.8287460
  85.6550627  58.9969597   7.7112702  86.3875799  58.4268813   7.9450532
  84.8989983  58.6091197   8.1519208  74.9295206  61.9586691   1.2029355
  74.8131464  61.2831594   1.8710440  75.0397466  61.4719065   0.3861509
  77.2726747  61.4196838   4.9076045  76.9084954  60.8927459   5.6188966
  78.1293863  61.0295307   4.7342530  83.1776048  52.7091171  12.1707311
  82.8459372  53.5786582  11.9468526  82.5821661  52.3927455  12.8501341
  76.9132234  56.4486738  -0.0962607  77.0806636  57.3166974   0.2707864
  76.7229403  56.6114019  -1.0201318  79.6707567  64.9103717  11.5703224
  79.3708290  65.8128756  11.4619031  79.3258627  64.6435900  12.4224376
  73.1220049  61.3617514   7.6039928  72.1970545  61.2293728   7.8117620
  73.3704462  62.1411733   8.1009870  83.0704711  57.4286257   9.2500661
  82.1621588  57.3601665   8.9559422  83.0192307  57.9058202  10.0782486
  76.8921455  58.9044395   0.8884060  76.7721080  59.3501446   1.7269540
  76.1974043  59.2529713   0.3297598  70.4828860  61.0050787   8.4383717
  70.6121241  61.2585266   9.3523129  69.8026311  61.5978495   8.1188372
  74.6528347  71.6748037   4.5374191  74.5752377  72.6255862   4.6162672
  74.0489990  71.3293910   5.1949118  77.1445577  58.8475902  17.1935558
  76.3678911  59.4069823  17.1838423  77.7836140  59.3332685  17.7150428
  84.9366357  55.6302695  11.0278535  84.2940737  55.9235228  10.3818329
  84.4321286  55.5155616  11.8331731  82.5906521  59.3765868   1.7164394
  83.5024377  59.6093255   1.5412092  82.0816168  59.9602913   1.1539473
  75.3991949  61.6561356  16.7553525  76.1406633  62.1946400  16.4788349
  74.6928934  62.2827645  16.9125077  80.8747289  63.7990496  15.3525687
  81.2830645  63.3572907  14.6080319  80.1524550  63.2243124  15.6059880
  77.2278359  58.7363103  12.7259244  78.0739554  59.1602517  12.8693893
  77.1676996  58.0796727  13.4197807  81.1976103  64.3591687   9.1077976
  80.5684966  64.5237401   8.4054043  80.8101765  64.7733296   9.8788940
  85.0765335  65.2946125   6.4622339  84.3916373  65.6745026   5.9119373
  85.1609184  65.9041451   7.1954287  80.3777804  56.3967471  14.3840417
  80.1338736  57.1509532  13.8474693  80.6537734  56.7752819  15.2187664
  82.3316267  62.9406084  13.0617683  82.5433162  63.5837844  12.3852064
  82.2846015  62.1068400  12.5939613  79.9342496  55.5523904   9.9654255
  79.0726975  55.8505158  10.2570993  79.9604930  55.7694303   9.0335288
  76.7504065  64.0966095   6.3728061  77.2142411  64.3753798   5.5832683
  76.4860863  63.1949540   6.1901151  73.6428146  63.6437577   9.3107824
  74.2129503  64.0724845   8.6725308  74.2336258  63.3620161  10.0092010
  75.6872951  60.2189247   3.1817626  76.3896995  60.6710291   3.6491552
  75.3553580  59.5773066   3.8097519  74.1353313  58.8101004  17.5568835
  73.5051973  59.4917285  17.7904232  74.0289401  58.6984086  16.6121973
  69.4298285  58.4772800   8.4834759  68.6397339  58.7330329   8.0074870
  69.9209532  59.2921138   8.5886800  83.4462095  65.8178039  11.2340040
  84.2679538  65.4158226  10.9522722  83.4424498  65.7146273  12.1856156
  71.3813030  58.8417379   5.4418236  70.5844194  58.9536074   5.9601732
  71.1538623  59.1804032   4.5759127  77.2118698  65.3662083  13.3900751
  77.2763131  65.8282490  14.2258923  76.5029622  64.7359447  13.5183061
  67.7135988  58.7303290  10.9149750  67.9644027  59.6150300  11.1807326
  68.2495537  58.5507892  10.1424842  91.5368088  62.1616788   7.5825012
  90.7831796  61.5924186   7.4269016  91.6715629  62.1279452   8.5295646
  76.9266716  67.0330190   3.2579731  76.7912391  67.8781726   3.6864579
  77.4676528  67.2349468   2.4945665  73.4134055  53.1121770  19.9194086
  73.0201001  52.5587968  20.5941730  74.2300196  53.4232348  20.3100604
  70.3796113  64.5505628   3.8307656  70.8920634  65.3448878   3.9813221
  71.0318826  63.8531918   3.7641258  72.1890998  67.6671384   5.9130409
  72.3657626  68.5889349   5.7251393  72.9847831  67.3529804   6.3424789
  76.3302016  54.5279649  17.5114343  77.0711730  55.1286802  17.4318805
  76.5619939  53.7857287  16.9532385  71.4743354  59.7136016  15.7892572
  71.3596870  58.8121273  16.0899671  70.6187872  59.9599713  15.4377389
  78.5535192  67.6553757  17.3880073  78.1099046  66.8690135  17.0700978
  79.2152406  67.8432907  16.7223964  73.3122313  69.1849558  11.9140752
  73.8629738  69.0566621  11.1417746  72.4733789  69.4844447  11.5635644
  80.6516430  67.9356556  15.4161474  80.6334906  68.7565437  14.9241744
  81.5736350  67.8110632  15.6411616  77.1089484  65.4500686  16.2584983
  77.6417821  64.6888974  16.0284291  76.5803565  65.1574338  17.0009137
  80.2759179  50.5560752  11.7878624  79.9323449  51.4462394  11.7117735
  80.6438142  50.3662410  10.9248209  68.3445030  62.8794282   4.6067227
  69.1820252  63.2891291   4.3900934  68.5223298  61.9393725   4.5767420
  80.2409462  60.5469363   0.2951060  79.7256086  61.3173968   0.5339447
  79.9686771  59.8734499   0.9184121  77.8256573  55.3919064   5.3536298
  76.9698169  55.0025914   5.1741937  78.2383525  55.4711025   4.4936083
  79.3555720  52.9265407   9.7527858  78.8520515  52.8895542   8.9395663
  79.6486327  53.8358150   9.8124514  75.5998606  53.0104137   8.7594039
  76.4651602  52.8146945   8.3999929  75.6676115  52.7814489   9.6863396
  85.2143736  63.3001718   2.2304233  84.4373179  62.9612877   1.7859395
  85.8935217  63.3054341   1.5559198  80.0295765  58.4196455   2.1210841
  79.7245901  58.7342604   2.9720984  80.9826207  58.4977875   2.1638174
  78.4742197  64.5786678   3.7703795  77.9463559  63.8439438   3.4577032
  77.9729700  65.3561355   3.5243763  83.4535043  62.7735699   8.8870841
  82.7958718  63.4634960   8.9750970  84.2575442  63.1632131   9.2304827
  73.2060925  55.2406345   6.1310406  73.7804677  55.0181526   5.3983599
  73.7931907  55.3095039   6.8839008  82.2640502  61.1280072   6.9374783
  82.7772384  61.7610063   7.4396493  82.9141726  60.5281267   6.5718143
  73.5330512  57.2710806   0.1506292  72.6967824  57.6085492   0.4715566
  73.3935281  57.1359786  -0.7866572  75.5083592  52.1147594   4.8585476
  74.8548005  51.7996611   4.2342090  75.4664067  51.4923334   5.5845299
  76.6194797  62.3966889  -3.2261232  75.7121859  62.1656142  -3.0270083
  77.1165829  61.6004508  -3.0387251  78.7421333  58.6029527   9.1833123
  77.8243894  58.8244474   9.0254811  79.1581476  58.6775838   8.3244831
  79.5256381  60.0020943   4.3135804  80.2728199  60.5142340   4.0042926
  79.7947970  59.6804996   5.1740197  77.7983031  62.4979484   1.2962758
  76.8894250  62.2138516   1.3935228  77.8278115  62.9178562   0.4366065
  83.0302298  66.1086073   5.0653925  82.5764625  65.2676983   5.1219116
  82.3996265  66.7447471   5.4028706  81.9735218  57.0378059   6.2954593
  81.2357974  56.5255445   6.6264835  82.2261991  56.5978441   5.4837870
  81.4735237  67.9462570   6.0003744  81.7658212  68.5067627   5.2816109
  81.9833858  68.2391131   6.7556903  82.0746845  49.8154311   6.8896362
  82.3805722  48.9551674   6.6022277  82.7999450  50.4071931   6.6895356
  68.3671201  60.2184998   5.2777960  68.1695601  59.6254358   4.5529027
  67.8117865  59.9137208   5.9953899  76.3467925  60.1108104   7.3972553
  76.4016535  59.1581941   7.3215030  75.5359127  60.2667543   7.8813852
  77.4959119  64.0388227  -1.3649164  77.0578548  63.3224086  -1.8243526
  78.2369559  64.2664342  -1.9264072  74.2860285  58.7285164   5.1562932
  73.4728150  59.0279334   5.5628124  74.7819279  58.3340853   5.8737414
  76.4368863  68.7242921   7.0897197  76.3945041  68.9503767   6.1605729
  77.3531561  68.4906295   7.2382998  79.8834496  59.1926988  13.9877826
  80.2383884  59.4198461  14.8472292  80.5306628  59.5245365  13.3655081
  85.6132233  62.3145424   4.6927155  85.4750132  62.5047020   3.7648344
  85.2568452  63.0764807   5.1495206  73.7774359  56.3003519  10.7724167
  74.4173739  56.1592279  10.0747130  72.9451890  56.0138033  10.3962769
  85.6401613  64.3821951   9.7038427  86.0738120  64.2897240  10.5521481
  86.3533194  64.3579452   9.0658443  74.5534663  65.6005950   6.8859159
  75.3475262  65.1056270   6.6841734  73.8426356  65.0723813   6.5226865
  79.3729508  67.9824045  11.2371527  79.4266530  68.5514982  12.0049243
  78.5044289  68.1525930  10.8725564  70.8617427  59.7449032   2.9618912
  69.9315015  59.6833487   3.1788874  70.9574899  59.2224984   2.1655553
  70.7802976  56.2703844   5.5497154  71.0409793  57.1849178   5.4406314
  71.6020148  55.8028287   5.6993767  72.2527901  57.6841602  12.7195978
  72.9250955  57.4758964  12.0708627  71.4257688  57.4863688  12.2801211
  86.5017162  64.4245652  12.2371312  86.6953053  65.3291462  12.4830587
  86.4017781  63.9653071  13.0709897  78.1553473  54.3103542  14.7361639
  77.5081388  55.0093492  14.6426116  78.9254489  54.7439686  15.1037887
  81.5632271  64.5752395  17.8112193  81.4117778  64.3462946  16.8942276
  81.5536951  65.5322996  17.8243538  78.3317608  62.1484307  12.7958459
  79.2609668  62.2995467  12.6227426  77.9108638  62.2368328  11.9407105
  77.1305939  66.1734972  10.5656997  76.9917025  65.8053756  11.4382935
  76.3420536  66.6882611  10.3940954  77.7254091  71.2744068   1.9082533
  77.9005847  70.8032111   2.7228156  77.0386879  71.9009834   2.1363794
  78.6811154  65.5516575   7.9545834  78.3460987  65.5117344   8.8503484
  78.1815100  64.8861290   7.4816245  72.6555398  60.9584205  13.4798416
  72.5175196  60.2264443  14.0809955  73.5660322  60.8693105  13.1982603
  81.6170346  62.8972609  -1.7717106  80.9999517  62.1719437  -1.8684053
  81.1486835  63.6581969  -2.1150032  75.2837699  60.6704164  12.9682095
  75.9937318  60.0297356  12.9268714  75.2407007  60.9217059  13.8908276
  83.2724478  67.6071517  15.8888674  83.2137024  66.9230737  15.2219257
  83.6743996  68.3490507  15.4369300  73.9966633  57.6569382  14.7877735
  73.4603990  57.2060120  15.4399331  73.4083342  57.7915291  14.0448199
  72.2915177  74.4233431   8.6822393  72.5311775  75.0551955   9.3601412
  71.4484373  74.0721471   8.9687753  73.4068892  57.1158033  -2.6495802
  72.5298358  56.9946834  -3.0133555  73.8826645  56.3244111  -2.9016913
  83.2741885  65.5711101  14.1202654  82.3868664  65.2337023  14.2429053
  83.8440436  64.8394132  14.3571419  64.9271032  61.9035193   7.4445705
  65.6142072  61.5896923   6.8566721  64.7719161  62.8076558   7.1712957
  69.7305754  56.7925389  11.8730729  69.6463943  56.1851059  11.1381139
  68.9088461  57.2834408  11.8740225  76.8043038  70.2312553  11.0863897
  76.7313210  71.0367525  11.5983202  76.3620432  70.4304519  10.2611919
  76.5932818  69.4684324   4.5966719  75.8100340  70.0106004   4.6904943
  77.2925563  69.9858303   4.9960960  79.9029468  55.2778953   7.2400924
  80.3998168  54.5248915   6.9201994  79.1316450  55.3143270   6.6744134
  87.7559226  60.9819319   8.8819216  87.7449102  61.8644034   8.5113149
  86.8876605  60.6290869   8.6873753  79.2641722  70.1299388  13.2422056
  79.9769694  70.7646852  13.1697957  78.7731751  70.2263254  12.4262058
  80.9859249  64.0350640   4.8139348  80.0515528  64.1552103   4.6444052
  81.1635917  63.1323107   4.5499357  76.4864437  57.4196336   6.9672609
  76.1162224  56.8667376   7.6553514  76.9823529  56.8154469   6.4147609
  84.3731800  59.8767959   5.3489382  84.8392252  60.7095951   5.2749684
  84.8239301  59.4112941   6.0534640  74.3153635  67.8793831  14.0627627
  75.0163095  68.5130314  14.2157021  73.8448750  68.2208563  13.3023266
  82.4408031  66.2211781   2.3475534  82.7167875  66.1068375   3.2569408
  81.5712530  65.8229266   2.3087707  82.3448463  52.2448546   9.3880283
  81.4311543  52.4752773   9.5562490  82.7741564  52.3286991  10.2394315
  82.1154921  60.4338438  11.8880177  81.4626372  60.6814346  11.2332630
  82.4935301  59.6202577  11.5542654  79.0762095  70.4698132   5.9908347
  79.2584490  69.6519788   6.4536100  79.8995081  70.6865824   5.5533237
  79.4104261  69.3966317   3.2523396  79.9392027  68.8858771   2.6393558
  79.6732480  69.0808847   4.1168929  78.1642494  61.1758249  18.3746214
  77.4883132  61.0752379  19.0448589  78.9870128  61.0197463  18.8382211
  69.9121354  67.4130186  10.9958729  70.4974790  66.6673874  11.1286634
  69.7146192  67.7234143  11.8795393  72.7660009  70.4481433   6.0121172
  72.0970384  70.9327561   5.5285212  72.6272878  70.6950654   6.9264550
  64.5039008  59.9835786   9.7163173  64.5423108  59.4499377  10.5100291
  63.9979301  59.4570992   9.0974150  76.9065277  72.4825177  12.6103830
  77.4583585  72.6456798  13.3752915  77.2471471  73.0729615  11.9383855
  71.8829771  54.8300327  13.2125715  71.9471097  55.6915158  12.8003113
  71.8196891  54.2174328  12.4798073  71.3582043  56.9023459  16.8598749
  71.9854082  56.5200537  17.4736273  70.5009962  56.6837661  17.2254442
  81.7576152  67.3086434  18.4652485  82.3016056  67.9216393  17.9707439
  81.1762997  67.8666013  18.9819498  68.1347586  58.7099888   2.7917104
  68.4301027  57.8010567   2.7384158  67.2335622  58.6887628   2.4698106
  80.0433665  70.4307152   9.5967512  79.9184804  69.6296892   9.0878458
  80.7012756  70.9253346   9.1081482  71.6641833  56.7855885   8.7744653
  70.9428419  57.3991853   8.6352126  72.4535089  57.3213650   8.6961299
  82.1068573  68.2316173  11.2247062  81.1598909  68.1121524  11.1525389
  82.4551346  67.3438671  11.3073324  74.4668146  54.1210311  15.0485304
  74.9902548  54.3672608  15.8111614  74.2480480  54.9530346  14.6288442
  69.8635427  56.3913986   2.9156429  69.5348134  55.5111365   2.7331535
  70.2174798  56.3361655   3.8032818  79.1115006  68.0268889   7.4251415
  78.9639969  67.0985596   7.6058985  79.9368500  68.0488979   6.9408490
  72.9777251  56.6786956   3.2831907  73.3173323  57.2072877   2.5610515
  73.4249371  57.0167362   4.0590473  82.7149128  68.8497447   8.5116287
  83.6395676  68.6440309   8.3740739  82.5464432  68.6013849   9.4205629
  75.6720691  55.0624007  12.7334975  75.3317512  54.2631820  13.1355655
  74.9659698  55.3625717  12.1611808  76.3237163  52.1473319  11.1862298
  77.1463233  51.6733797  11.0641188  76.5675227  52.9263803  11.6860984
  74.9645398  55.1761577   1.4825200  75.6853760  55.5542830   0.9788916
  74.3410702  55.8950454   1.5860178  79.1076521  55.8806726   2.4183532
  79.3240135  56.7631364   2.1172360  78.6270588  55.4892940   1.6889174
  73.8475742  58.8392440   8.9954276  73.7020323  59.1532743   9.8878558
  73.3700946  59.4577340   8.4425175  75.7072125  55.8294988   9.0435166
  75.6933694  54.9336081   8.7067464  76.4244553  55.8365651   9.6773452
  77.5598256  56.2632328  11.0888293  77.3016033  57.1849398  11.0872624
  77.0283296  55.8662762  11.7788758  82.5044444  69.3683115   3.8678379
  82.6781322  68.8029537   3.1152231  82.9973336  70.1684010   3.6857869
  68.3221404  61.3797784  11.9341938  67.7774872  62.1557592  12.0662212
  69.2000754  61.7268589  11.7761059  75.1109021  54.7109368   4.3122736
  75.2324932  53.7826014   4.5113624  74.8211063  54.7248054   3.4001052
  77.9800211  52.3964278   7.4489456  78.0021908  52.4603611   6.4941436
  78.3968270  51.5568787   7.6429962  88.3583836  62.1319538   5.4868679
  88.8014982  61.3826863   5.0887802  87.4810346  62.1229674   5.1042411
  83.4919617  68.6849879   0.9675277  84.1870521  69.3056572   1.1862592
  83.8342767  67.8345231   1.2427655  69.1087426  60.5067680  14.8272095
  68.3669162  60.6550316  15.4136725  68.7880170  60.7675946  13.9638844
  85.3911040  66.1349585   2.4962608  85.9162364  66.4736858   1.7711928
  85.3033393  65.1996600   2.3125743  77.0531089  70.0483659  14.6252485
  77.3618215  69.8032805  15.4975184  77.8506571  70.2530297  14.1371355
  77.0751701  72.2021568   6.8557861  76.6356691  71.7097947   7.5490718
  77.8259818  71.6594536   6.6149936  69.5544040  68.3933109   6.8582489
  70.3802060  68.0936881   6.4781133  69.2038092  67.6240731   7.3072278
  74.5225573  67.7459577   8.9280163  73.9005582  67.0830282   8.6282391
  75.1930440  67.7720709   8.2453811  67.7552645  66.3119435   7.8171423
  66.9184553  65.8841610   7.6355424  67.7276290  66.5051879   8.7542214
  74.5950100  56.2241365  18.5212669  74.6438256  57.1003488  18.1390438
  75.1372615  55.6818758  17.9484312  85.0804946  66.7682489  17.8013806
  84.2900490  66.7506627  17.2618305  84.8438301  67.3070782  18.5562842
  85.2002821  63.6174955  15.1146534  85.2500826  63.4524962  16.0562057
  85.0916744  62.7502214  14.7244415  74.0839080  66.2963501   2.4038623
  74.2327200  66.9798965   1.7505296  74.8905523  66.2768591   2.9188079
  82.4906584  59.6005883  16.4305841  83.3916446  59.4612348  16.1389839
  82.5654558  59.7660338  17.3704019  76.8249389  56.9772738  15.2759027
  75.9552698  57.2706304  15.0041616  77.0608869  57.5613183  15.9966291
  86.7021018  66.0371896  15.3588556  86.4105826  66.4001877  16.1952017
  86.0893149  65.3238905  15.1801888  87.9016700  63.6024776   7.8791126
  88.7363592  64.0414580   8.0428687  88.0375829  63.1263429   7.0599372
  84.9508206  61.1604511  13.8268614  85.4262328  61.3532157  13.0187465
  84.0273772  61.2163697  13.5811998  71.8391713  62.3228678   3.4099692
  71.5937755  61.4191008   3.6079902  72.0087627  62.3245829   2.4679170
  79.5288423  53.1952355  12.7924448  80.0470367  53.9313382  12.4670936
  79.1743555  53.5016348  13.6271207  71.1087360  58.0557036   0.9085854
  70.4156605  58.1301391   0.2525890  70.8639112  57.2917379   1.4307371
  79.7801017  49.6152637   8.3125344  80.0602771  48.9475826   8.9385771
  80.5651624  49.8081733   7.8000008  77.5834485  68.7911631  -0.1249629
  77.0108452  69.4101818  -0.5779157  78.1567279  69.3410993   0.4090293
  83.6509875  58.0370271  12.0596920  84.6027298  58.1368369  12.0809144
  83.4813326  57.2448540  12.5695004  81.6724255  55.1225854  12.2456320
  81.0774187  55.4030867  11.5502809  81.3873951  55.6119755  13.0173062
  80.8031745  69.0748781   1.0058953  81.7362418  69.0094343   1.2091829
  80.7154958  69.9105048   0.5473486  86.1297953  61.2576391  11.1739219
  86.0974273  60.3192392  11.3598903  86.7398577  61.3360428  10.4405044
  77.9681284  60.1272444  -2.7833577  78.9140389  59.9978652  -2.7145159
  77.5895529  59.3887106  -2.3064149  86.2792441  58.0487434  11.2197502
  85.7631490  57.2645891  11.0327431  87.1632390  57.7206151  11.3844022
  83.9403168  51.7928450   7.1793315  83.7427990  51.4843538   8.0636647
  84.5502874  52.5190089   7.3091245  91.9474503  62.3192398  10.3145256
  92.6777891  62.0577686  10.8752959  91.3381448  61.5821120  10.3547324
  90.0289800  60.4600260  10.9119707  89.3022964  60.3256225  10.3036199
  89.6137087  60.7677089  11.7176425  77.8519976  64.1790190  18.6767080
  78.7722986  64.3568789  18.8707127  77.8169559  63.2346235  18.5246779
  76.1524201  58.0522420  -2.8478692  75.2455656  57.7555533  -2.7715978
  76.4300182  57.7552238  -3.7144405  67.0702141  59.3728784   7.6020355
  66.7504926  58.5194092   7.3094729  66.5235570  59.5877362   8.3578322
  70.8482049  62.0891225  11.3189861  71.0668059  63.0208332  11.3377895
  71.2607823  61.7299199  12.1044665  77.7686267  52.5959310   3.3065550
  76.9586995  52.2506395   3.6820796  78.4570684  52.2866854   3.8953161
  79.6976815  51.6737357   4.9289846  80.2507854  52.0932810   5.5879869
  79.9346901  50.7473105   4.9712802  75.7209914  57.6624430  20.7092610
  75.6206641  58.6118787  20.6404701  75.5031456  57.3342669  19.8368680
  74.9222986  54.9109355  -2.7066712  75.7842150  55.2364254  -2.4470895
  75.1073330  54.1240851  -3.2193647  66.9390401  62.9931695   9.5713476
  66.2453873  62.5785648   9.0583431  67.6863392  63.0352232   8.9746895
  83.0755622  53.7837882   4.4368511  82.4954291  54.4422686   4.0546563
  82.8091555  52.9615226   4.0255928  81.5259188  53.1842940   6.6389831
  82.0258967  53.2959474   5.8304150  82.1694796  52.8803992   7.2790639
  75.5841184  61.0921569  19.5257672  75.1008266  61.8921929  19.7321561
  75.6702123  61.1029514  18.5725116  68.8527144  62.9249949   7.4479491
  68.8297832  63.0237636   6.4961374  69.1627780  63.7715100   7.7696657
  71.5114522  64.9826104  11.5626106  72.4657775  64.9510046  11.4956037
  71.3127045  64.5216728  12.3776332  72.1013904  63.5527220  14.1296903
  72.9206793  64.0471299  14.1531741  72.3750712  62.6359188  14.1014471
  81.8580500  55.9437972   3.4924859  80.9706355  56.2287623   3.2745054
  82.2734489  55.7831736   2.6452136  85.2095036  55.9684493   7.2079198
  85.9855426  56.4580946   7.4803815  84.4843170  56.3942547   7.6651068
  87.6467595  56.6812112   8.2653139  88.2412086  56.4407848   7.5546447
  87.7194179  55.9619243   8.8926675  69.8664751  70.5245723   8.5796304
  69.7319218  69.7646124   8.0134302  69.4496813  71.2486623   8.1125092
  81.0023714  65.7082647  -2.4127121  81.7059564  65.9132649  -1.7969466
  80.2786362  66.2759409  -2.1478038  81.8321524  61.4592508   3.7075149
  81.7756725  61.9161060   2.8682781  82.3849866  60.6983193   3.5297992
  85.6426330  57.2482240   4.5325269  85.3863264  56.8478876   5.3633476
  85.0179198  57.9626034   4.4075408  89.9538668  59.9878313   7.0396560
  89.3938226  60.0571503   7.8128122  89.3482171  59.8119298   6.3196056
  73.0233876  71.4215040   8.7914746  72.9066261  72.3660473   8.6893436
  72.2026323  71.1188602   9.1800545  82.9110411  66.1465176  -0.3628661
  83.7456015  65.7146375  -0.5451186  82.7494754  65.9747190   0.5648233
  82.5656303  62.6497289   1.0027678  82.5105107  62.4841561   0.0616122
  81.9402358  63.3573322   1.1589868  67.3548818  57.8865354  14.8289100
  68.0007682  57.3764308  15.3176326  67.1465969  58.6234035  15.4032526
  79.8802210  64.9546201  20.3281241  80.7493370  65.1286854  19.9667876
  79.4008962  65.7740618  20.2056970  75.8752429  52.1505398   0.5812997
  75.8631098  53.0947238   0.7381267  76.7675850  51.9675544   0.2872458
  74.0488391  72.0743302  12.0070675  74.9515637  72.1066913  12.3237170
  73.8225761  71.1443753  12.0217010  75.8041993  70.8274289   8.6680753
  74.8537624  70.8276150   8.5545126  76.1074479  70.0807023   8.1516788
  79.6904548  48.7448175   4.8358933  78.9236944  48.1906662   4.9815616
  80.1015253  48.8170044   5.6973085  71.6946309  55.0332971  18.9264115
  72.5577771  54.6769776  19.1367439  71.1211720  54.6946866  19.6139519
  91.5394686  76.6634827   9.7326516  92.1773096  76.5441575   9.0289856
  91.4215529  77.6115671   9.7914468  88.3484392  76.6162255   9.6688040
  88.0102904  76.5003320   8.7808575  89.2174161  76.2153420   9.6489047
  88.8304175  77.7697107  15.6274246  88.8192816  77.3749905  14.7554750
  88.9924815  77.0363180  16.2208017  81.7535640  79.9648923   8.4969152
  82.5456932  79.6239748   8.0815451  81.9932290  80.0743898   9.4171305
  85.5511436  80.5534219  14.5753430  85.2601302  81.4579850  14.4600096
  86.1868421  80.5950746  15.2897499  86.4767643  77.9311067  11.1654790
  87.0731216  77.7067090  10.4511752  86.5342615  77.1895813  11.7680237
  91.0935955  74.3886281   6.8079724  91.8799044  73.9705704   6.4570141
  91.3574659  75.2932373   6.9761372  94.0169802  68.0383088  12.1707311
  93.6853127  68.9078499  11.9468526  93.4215415  67.7219372  12.8501341
  90.5101322  80.2395634  11.5703224  90.2102045  81.1420673  11.4619031
  90.1652381  79.9727818  12.4224376  83.9613803  76.6909431   7.6039928
  83.0364300  76.5585645   7.8117620  84.2098216  77.4703650   8.1009870
  93.9098465  72.7578175   9.2500661  93.0015343  72.6893583   8.9559422
  93.8586061  73.2350119  10.0782486  81.3222614  76.3342705   8.4383717
  81.4514995  76.5877184   9.3523129  80.6420065  76.9270413   8.1188372
  87.9839331  74.1767820  17.1935558  87.2072665  74.7361740  17.1838423
  88.6229894  74.6624603  17.7150428  95.7760112  70.9594613  11.0278535
  95.1334492  71.2527146  10.3818329  95.2715040  70.8447533  11.8331731
  86.2385703  76.9853274  16.7553525  86.9800388  77.5238317  16.4788349
  85.5322689  77.6119562  16.9125077  91.7141043  79.1282414  15.3525687
  92.1224399  78.6864824  14.6080319  90.9918305  78.5535041  15.6059880
  88.0672113  74.0655021  12.7259244  88.9133308  74.4894434  12.8693893
  88.0070751  73.4088645  13.4197807  91.2171558  71.7259389  14.3840417
  90.9732490  72.4801450  13.8474693  91.4931489  72.1044737  15.2187664
  93.1710021  78.2698001  13.0617683  93.3826916  78.9129761  12.3852064
  93.1239769  77.4360318  12.5939613  90.7736250  70.8815822   9.9654255
  89.9120729  71.1797076  10.2570993  90.7998685  71.0986221   9.0335288
  84.4821901  78.9729494   9.3107824  85.0523258  79.4016763   8.6725308
  85.0730013  78.6912079  10.0092010  84.9747067  74.1392922  17.5568835
  84.3445728  74.8209203  17.7904232  84.8683155  74.0276003  16.6121973
  80.2692040  73.8064718   8.4834759  79.4791094  74.0622246   8.0074870
  80.7603287  74.6213056   8.5886800  82.2206785  74.1709297   5.4418236
  81.4237948  74.2827991   5.9601732  81.9932377  74.5095949   4.5759127
  88.0512453  80.6954000  13.3900751  88.1156885  81.1574407  14.2258923
  87.3423376  80.0651365  13.5183061  78.5529743  74.0595208  10.9149750
  78.8037781  74.9442218  11.1807326  79.0889291  73.8799810  10.1424842
  84.2527810  68.4413688  19.9194086  83.8594755  67.8879886  20.5941730
  85.0693950  68.7524266  20.3100604  87.1695771  69.8571567  17.5114343
  87.9105484  70.4578720  17.4318805  87.4013694  69.1149204  16.9532385
  82.3137109  75.0427934  15.7892572  82.1990624  74.1413191  16.0899671
  81.4581627  75.2891631  15.4377389  89.3928947  82.9845674  17.3880073
  88.9492801  82.1982053  17.0700978  90.0546160  83.1724825  16.7223964
  84.1516068  84.5141476  11.9140752  84.7023493  84.3858539  11.1417746
  83.3127544  84.8136365  11.5635644  91.4910185  83.2648474  15.4161474
  91.4728660  84.0857355  14.9241744  92.4130105  83.1402549  15.6411616
  87.9483239  80.7792604  16.2584983  88.4811576  80.0180892  16.0284291
  87.4197320  80.4866255  17.0009137  91.1152934  65.8852670  11.7878624
  90.7717203  66.7754311  11.7117735  91.4831896  65.6954327  10.9248209
  79.1838784  78.2086200   4.6067227  80.0214006  78.6183208   4.3900934
  79.3617052  77.2685642   4.5767420  88.6650328  70.7210981   5.3536298
  87.8091924  70.3317832   5.1741937  89.0777279  70.8002942   4.4936083
  90.1949474  68.2557325   9.7527858  89.6914270  68.2187460   8.9395663
  90.4880081  69.1650067   9.8124514  86.4392360  68.3396054   8.7594039
  87.3045357  68.1438863   8.3999929  86.5069869  68.1106406   9.6863396
  84.0454679  70.5698262   6.1310406  84.6198431  70.3473444   5.3983599
  84.6325662  70.6386957   6.8839008  86.3477347  67.4439511   4.8585476
  85.6941759  67.1288528   4.2342090  86.3057821  66.8215252   5.5845299
  89.5815087  73.9321445   9.1833123  88.6637649  74.1536392   9.0254811
  89.9975231  74.0067755   8.3244831  92.9140599  65.1446229   6.8896362
  93.2199476  64.2843592   6.6022277  93.6393204  65.7363849   6.6895356
  79.2064956  75.5476915   5.2777960  79.0089355  74.9546276   4.5529027
  78.6511620  75.2429126   5.9953899  87.1861679  75.4400022   7.3972553
  87.2410289  74.4873858   7.3215030  86.3752881  75.5959461   7.8813852
  85.1254039  74.0577082   5.1562932  84.3121905  74.3571252   5.5628124
  85.6213033  73.6632770   5.8737414  90.7228251  74.5218906  13.9877826
  91.0777639  74.7490379  14.8472292  91.3700382  74.8537283  13.3655081
  84.6168114  71.6295437  10.7724167  85.2567493  71.4884196  10.0747130
  83.7845644  71.3429950  10.3962769  90.2123262  83.3115963  11.2371527
  90.2660285  83.8806899  12.0049243  89.3438044  83.4817848  10.8725564
  81.6196730  71.5995762   5.5497154  81.8803548  72.5141095   5.4406314
  82.4413903  71.1320205   5.6993767  83.0921656  73.0133519  12.7195978
  83.7644709  72.8050881  12.0708627  82.2651442  72.8155605  12.2801211
  88.9947228  69.6395460  14.7361639  88.3475143  70.3385410  14.6426116
  89.7648243  70.0731604  15.1037887  92.4026026  79.9044312  17.8112193
  92.2511532  79.6754864  16.8942276  92.3930705  80.8614914  17.8243538
  89.1711362  77.4776225  12.7958459  90.1003422  77.6287385  12.6227426
  88.7502392  77.5660246  11.9407105  87.9699694  81.5026889  10.5656997
  87.8310780  81.1345674  11.4382935  87.1814290  82.0174529  10.3940954
  83.4949153  76.2876122  13.4798416  83.3568951  75.5556361  14.0809955
  84.4054076  76.1985022  13.1982603  86.1231454  75.9996082  12.9682095
  86.8331072  75.3589274  12.9268714  86.0800762  76.2508976  13.8908276
  94.1118232  82.9363435  15.8888674  94.0530778  82.2522655  15.2219257
  94.5137751  83.6782425  15.4369300  84.8360388  72.9861299  14.7877735
  84.2997745  72.5352038  15.4399331  84.2477096  73.1207208  14.0448199
  94.1135640  80.9003019  14.1202654  93.2262418  80.5628941  14.2429053
  94.6834191  80.1686050  14.3571419  75.7664787  77.2327111   7.4445705
  76.4535826  76.9188841   6.8566721  75.6112915  78.1368475   7.1712957
  80.5699509  72.1217307  11.8730729  80.4857698  71.5142977  11.1381139
  79.7482215  72.6126325  11.8740225  90.7423223  70.6070871   7.2400924
  91.2391922  69.8540833   6.9201994  89.9710204  70.6435187   6.6744134
  90.1035476  85.4591305  13.2422056  90.8163449  86.0938770  13.1697957
  89.6125505  85.5555171  12.4262058  87.3258191  72.7488254   6.9672609
  86.9555979  72.1959294   7.6553514  87.8217284  72.1446387   6.4147609
  85.1547390  83.2085749  14.0627627  85.8556849  83.8422232  14.2157021
  84.6842505  83.5500480  13.3023266  93.1842217  67.5740464   9.3880283
  92.2705297  67.8044691   9.5562490  93.6135319  67.6578908  10.2394315
  92.9548676  75.7630356  11.8880177  92.3020126  76.0106264  11.2332630
  93.3329056  74.9494494  11.5542654  89.0036249  76.5050167  18.3746214
  88.3276886  76.4044296  19.0448589  89.8263883  76.3489381  18.8382211
  80.7515108  82.7422104  10.9958729  81.3368545  81.9965792  11.1286634
  80.5539947  83.0526060  11.8795393  75.3432763  75.3127704   9.7163173
  75.3816862  74.7791295  10.5100291  74.8373056  74.7862909   9.0974150
  82.7223525  70.1592244  13.2125715  82.7864852  71.0207075  12.8003113
  82.6590645  69.5466246  12.4798073  82.1975798  72.2315377  16.8598749
  82.8247836  71.8492454  17.4736273  81.3403716  72.0129579  17.2254442
  92.5969906  82.6378352  18.4652485  93.1409810  83.2508310  17.9707439
  92.0156751  83.1957931  18.9819498  78.9741340  74.0391806   2.7917104
  79.2694781  73.1302484   2.7384158  78.0729376  74.0179546   2.4698106
  82.5035587  72.1147803   8.7744653  81.7822173  72.7283770   8.6352126
  83.2928843  72.6505567   8.6961299  85.3061901  69.4502229  15.0485304
  85.8296303  69.6964526  15.8111614  85.0874234  70.2822264  14.6288442
  80.7029182  71.7205904   2.9156429  80.3741888  70.8403283   2.7331535
  81.0568553  71.6653572   3.8032818  83.8171005  72.0078874   3.2831907
  84.1567078  72.5364795   2.5610515  84.2643126  72.3459280   4.0590473
  86.5114446  70.3915924  12.7334975  86.1711266  69.5923737  13.1355655
  85.8053452  70.6917635  12.1611808  87.1630918  67.4765237  11.1862298
  87.9856987  67.0025715  11.0641188  87.4068981  68.2555720  11.6860984
  84.6869497  74.1684357   8.9954276  84.5414077  74.4824660   9.8878558
  84.2094700  74.7869258   8.4425175  86.5465879  71.1586905   9.0435166
  86.5327448  70.2627999   8.7067464  87.2638308  71.1657569   9.6773452
  88.3992010  71.5924246  11.0888293  88.1409788  72.5141316  11.0872624
  87.8677050  71.1954680  11.7788758  79.1615159  76.7089702  11.9341938
  78.6168627  77.4849510  12.0662212  80.0394509  77.0560506  11.7761059
  85.9502775  70.0401286   4.3122736  86.0718687  69.1117932   4.5113624
  85.6604818  70.0539972   3.4001052  88.8193966  67.7256196   7.4489456
  88.8415663  67.7895529   6.4941436  89.2362025  66.8860705   7.6429962
  79.9481181  75.8359598  14.8272095  79.2062917  75.9842233  15.4136725
  79.6273925  76.0967864  13.9638844  87.8924843  85.3775576  14.6252485
  88.2011970  85.1324723  15.4975184  88.6900325  85.5822215  14.1371355
  78.5946399  81.6411353   7.8171423  77.7578308  81.2133528   7.6355424
  78.5670045  81.8343797   8.7542214  85.4343855  71.5533283  18.5212669
  85.4832010  72.4295406  18.1390438  85.9766369  71.0110676  17.9484312
  95.9198701  82.0974406  17.8013806  95.1294244  82.0798545  17.2618305
  95.6832055  82.6362700  18.5562842  96.0396576  78.9466873  15.1146534
  96.0894581  78.7816880  16.0562057  95.9310499  78.0794132  14.7244415
  93.3300338  74.9297801  16.4305841  94.2310201  74.7904265  16.1389839
  93.4048312  75.0952255  17.3704019  87.6643143  72.3064655  15.2759027
  86.7946453  72.5998221  15.0041616  87.9002624  72.8905100  15.9966291
  97.5414772  81.3663814  15.3588556  97.2499581  81.7293795  16.1952017
  96.9286904  80.6530822  15.1801888  95.7901961  76.4896429  13.8268614
  96.2656082  76.6824075  13.0187465  94.8667526  76.5455615  13.5811998
  90.3682177  68.5244272  12.7924448  90.8864121  69.2605299  12.4670936
  90.0137310  68.8308266  13.6271207  90.6194771  64.9444555   8.3125344
  90.8996525  64.2767744   8.9385771  91.4045378  65.1373650   7.8000008
  94.4903630  73.3662189  12.0596920  95.4421053  73.4660286  12.0809144
  94.3207080  72.5740457  12.5695004  92.5118009  70.4517772  12.2456320
  91.9167941  70.7322785  11.5502809  92.2267706  70.9411673  13.0173062
  96.9691707  76.5868309  11.1739219  96.9368028  75.6484309  11.3598903
  97.5792331  76.6652345  10.4405044  97.1186196  73.3779352  11.2197502
  96.6025245  72.5937809  11.0327431  98.0026144  73.0498069  11.3844022
  94.7796923  67.1220368   7.1793315  94.5821744  66.8135456   8.0636647
  95.3896628  67.8482006   7.3091245  88.6913731  79.5082108  18.6767080
  89.6116740  79.6860707  18.8707127  88.6563314  78.5638153  18.5246779
  77.9095896  74.7020701   7.6020355  77.5898680  73.8486009   7.3094729
  77.3629324  74.9169279   8.3578322  81.6875803  77.4183142  11.3189861
  81.9061813  78.3500250  11.3377895  82.1001577  77.0591117  12.1044665
  88.6080021  67.9251228   3.3065550  87.7980750  67.5798313   3.6820796
  89.2964438  67.6158771   3.8953161  90.5370569  67.0029274   4.9289846
  91.0901608  67.4224728   5.5879869  90.7740656  66.0765022   4.9712802
  86.5603669  72.9916348  20.7092610  86.4600396  73.9410705  20.6404701
  86.3425211  72.6634587  19.8368680  77.7784156  78.3223613   9.5713476
  77.0847627  77.9077566   9.0583431  78.5257147  78.3644149   8.9746895
  92.3652943  68.5134857   6.6389831  92.8652721  68.6251392   5.8304150
  93.0088551  68.2095910   7.2790639  86.4234939  76.4213487  19.5257672
  85.9402020  77.2213847  19.7321561  86.5095878  76.4321432  18.5725116
  79.6920898  78.2541867   7.4479491  79.6691586  78.3529554   6.4961374
  80.0021535  79.1007017   7.7696657  82.3508276  80.3118022  11.5626106
  83.3051530  80.2801964  11.4956037  82.1520800  79.8508645  12.3776332
  82.9407658  78.8819138  14.1296903  83.7600547  79.3763216  14.1531741
  83.2144466  77.9651106  14.1014471  96.0488791  71.2976411   7.2079198
  96.8249181  71.7872863   7.4803815  95.3236925  71.7234465   7.6651068
  78.1942573  73.2157271  14.8289100  78.8401436  72.7056225  15.3176326
  77.9859724  73.9525953  15.4032526  90.7195965  80.2838119  20.3281241
  91.5887124  80.4578771  19.9667876  90.2402716  81.1032536  20.2056970
  84.8882145  87.4035220  12.0070675  85.7909392  87.4358830  12.3237170
  84.6619515  86.4735671  12.0217010  90.5298303  64.0740093   4.8358933
  89.7630698  63.5198579   4.9815616  90.9409008  64.1461962   5.6973085
  82.5340064  70.3624889  18.9264115  83.3971525  70.0061693  19.1367439
  81.9605474  70.0238783  19.6139519  95.0921564  83.7705605  19.9194086
  94.6988510  83.2171804  20.5941730  95.9087705  84.0816184  20.3100604
  98.0089525  85.1863484  17.5114343  98.7499239  85.7870637  17.4318805
  98.2407448  84.4441122  16.9532385  93.0369552  87.5607295  16.8598749
  93.6641591  87.1784372  17.4736273  92.1797471  87.3421497  17.2254442
  96.2737609  86.8825201  18.5212669  96.3225765  87.7587323  18.1390438
  96.8160124  86.3402594  17.9484312  97.3997423  88.3208266  20.7092610
  97.2994150  89.2702623  20.6404701  97.1818965  87.9926505  19.8368680
  89.0336327  88.5449189  14.8289100  89.6795191  88.0348143  15.3176326
  88.8253478  89.2817871  15.4032526  93.3733818  85.6916806  18.9264115
  94.2365280  85.3353611  19.1367439  92.7999229  85.3530701  19.6139519
  67.7141439  29.3323961   4.1125380  67.2705293  28.5460340   3.7946284
  68.3758653  29.5203112   3.4469271  69.8122677  29.6126761   2.1406781
  69.7941152  30.4335642   1.6487050  70.7342597  29.4880837   2.3656922
  70.7238518  26.2522600   4.5357499  70.5724024  26.0233151   3.6187583
  70.7143197  27.2093201   4.5488844  72.4330725  29.2841722   2.6133981
  72.3743271  28.6000942   1.9464564  72.8350243  30.0260712   2.1614607
  70.9182398  28.9856639   5.1897791  71.4622302  29.5986598   4.6952746
  70.3369243  29.5436218   5.7064804  74.2411193  28.4452693   4.5259112
  73.4506737  28.4276832   3.9863612  74.0044547  28.9840987   5.2808149
  75.8627265  27.7142101   2.0833863  75.5712073  28.0772082   2.9197324
  75.2499396  27.0009110   1.9047195  69.0408457  26.6316406   7.0526548
  69.9099617  26.8057058   6.6913183  68.5615209  27.4510823   6.9302277
  80.7000933  38.3405032  -3.5428178  81.3379343  38.2211780  -4.2464838
  80.5821776  39.2885876  -3.4840226  77.5090639  38.2932460  -3.6066653
  77.1709151  38.1773525  -4.4946118  78.3780407  37.8923625  -3.6265647
  77.9910422  39.4467312   2.3519553  77.9799063  39.0520110   1.4800056
  78.1531062  38.7133385   2.9453324  70.9141887  41.6419128  -4.7785542
  71.7063179  41.3009953  -5.1939242  71.1538537  41.7514103  -3.8583388
  74.7117683  42.2304424   1.2998737  74.4207549  43.1350055   1.1845403
  75.3474668  42.2720951   2.0142806  75.6373890  39.6081272  -2.1099904
  76.2337462  39.3837295  -2.8242941  75.6948862  38.8666018  -1.5074456
  83.1776049  29.7153293  -1.1047383  82.8459374  30.5848704  -1.3286168
  82.5821662  29.3989577  -0.4253352  79.6707568  41.9165839  -1.7051470
  79.3708291  42.8190878  -1.8135663  79.3258628  41.6498023  -0.8530317
  83.0704712  34.4348379  -4.0254032  82.1621589  34.3663788  -4.3195271
  83.0192308  34.9120324  -3.1972207  74.6528348  48.6810160  -8.7380502
  74.5752378  49.6317985  -8.6592022  74.0489992  48.3356032  -8.0805576
  77.1445578  35.8538025   3.9180865  76.3678912  36.4131945   3.9083729
  77.7836141  36.3394808   4.4395735  84.9366359  32.6364818  -2.2476159
  84.2940739  32.9297351  -2.8936364  84.4321287  32.5217738  -1.4422962
  75.3991950  38.6623478   3.4798832  76.1406635  39.2008522   3.2033655
  74.6928936  39.2889767   3.6370384  80.8747290  40.8052619   2.0770993
  81.2830646  40.3635029   1.3325626  80.1524551  40.2305246   2.3305186
  77.2278360  35.7425226  -0.5495450  78.0739555  36.1664639  -0.4060801
  77.1676998  35.0858850   0.1443113  81.1976104  41.3653810  -4.1676718
  80.5684967  41.5299524  -4.8700650  80.8101767  41.7795419  -3.3965754
  85.0765336  42.3008247  -6.8132354  84.3916375  42.6807149  -7.3635321
  85.1609186  42.9103574  -6.0800406  80.3777805  33.4029594   1.1085724
  80.1338737  34.1571655   0.5720000  80.6537736  33.7814942   1.9432971
  82.3316268  39.9468206  -0.2137011  82.5433163  40.5899966  -0.8902629
  82.2846016  39.1130523  -0.6815080  76.7504066  41.1028218  -6.9026633
  77.2142412  41.3815921  -7.6922010  76.4860864  40.2011662  -7.0853542
  73.6428147  40.6499699  -3.9646869  74.2129504  41.0786968  -4.6029385
  74.2336259  40.3682284  -3.2662684  74.1353314  35.8163127   4.2814142
  73.5051975  36.4979407   4.5149539  74.0289402  35.7046208   3.3367280
  83.4462096  42.8240162  -2.0414653  84.2679540  42.4220349  -2.3231972
  83.4424499  42.7208396  -1.0898537  77.2118699  42.3724205   0.1146057
  77.2763132  42.8344612   0.9504229  76.5029623  41.7421570   0.2428367
  73.4134057  30.1183892   6.6439393  73.0201002  29.5650091   7.3187037
  74.2300197  30.4294471   7.0345910  72.1890999  44.6733507  -7.3624284
  72.3657627  45.5951472  -7.5503300  72.9847833  44.3591926  -6.9329904
  76.3302018  31.5341772   4.2359649  77.0711731  32.1348925   4.1564112
  76.5619940  30.7919409   3.6777692  71.4743356  36.7198139   2.5137879
  71.3596871  35.8183396   2.8144978  70.6187873  36.9661836   2.1622696
  78.5535193  44.6615879   4.1125380  78.1099048  43.8752258   3.7946284
  79.2152407  44.8495030   3.4469271  73.3122315  46.1911681  -1.3613942
  73.8629740  46.0628744  -2.1336948  72.4733790  46.4906570  -1.7119049
  80.6516431  44.9418679   2.1406781  80.6334907  45.7627560   1.6487050
  81.5736352  44.8172754   2.3656922  77.1089486  42.4562809   2.9830289
  77.6417822  41.6951097   2.7529597  76.5803567  42.1636460   3.7254444
  83.4535044  39.7797821  -4.3883852  82.7958719  40.4697083  -4.3003724
  84.2575444  40.1694253  -4.0449866  82.2640503  38.1342194  -6.3379911
  82.7772385  38.7672186  -5.8358201  82.9141727  37.5343390  -6.7036551
  78.7421334  35.6091650  -4.0921570  77.8243895  35.8306597  -4.2499882
  79.1581478  35.6837960  -4.9509863  83.0302299  43.1148196  -8.2100768
  82.5764626  42.2739106  -8.1535577  82.3996266  43.7509594  -7.8725988
  81.4735239  44.9524692  -7.2750950  81.7658213  45.5129749  -7.9938584
  81.9833859  45.2453253  -6.5197791  76.4368864  45.7305043  -6.1857497
  76.3945043  45.9565890  -7.1148965  77.3531563  45.4968418  -6.0371695
  79.8834498  36.1989111   0.7123133  80.2383885  36.4260584   1.5717598
  80.5306629  36.5307488   0.0900388  85.6401614  41.3884074  -3.5716267
  86.0738121  41.2959363  -2.7233213  86.3533195  41.3641574  -4.2096251
  74.5534665  42.6068072  -6.3895534  75.3475263  42.1118393  -6.5912959
  73.8426357  42.0785936  -6.7527828  79.3729509  44.9886168  -2.0383166
  79.4266531  45.5577104  -1.2705450  78.5044290  45.1588053  -2.4029129
  72.2527902  34.6903724  -0.5558715  72.9250956  34.4821086  -1.2046066
  71.4257689  34.4925810  -0.9953483  86.5017164  41.4307774  -1.0383381
  86.6953054  42.3353585  -0.7924107  86.4017782  40.9715194  -0.2044796
  78.1553474  31.3165665   1.4606946  77.5081389  32.0155615   1.3671422
  78.9254490  31.7501809   1.8283194  81.5632272  41.5814517   4.5357499
  81.4117779  41.3525069   3.6187583  81.5536952  42.5385119   4.5488844
  78.3317609  39.1546430  -0.4796234  79.2609669  39.3057590  -0.6527267
  77.9108639  39.2430451  -1.3347588  77.1305941  43.1797094  -2.7097697
  76.9917026  42.8115879  -1.8371759  76.3420537  43.6944734  -2.8813739
  77.7254093  48.2806191 -11.3672160  77.9005848  47.8094234 -10.5526538
  77.0386881  48.9071957 -11.1390900  78.6811156  42.5578697  -5.3208859
  78.3460988  42.5179467  -4.4251209  78.1815101  41.8923413  -5.7938449
  72.6555400  37.9646327   0.2043722  72.5175198  37.2326566   0.8055261
  73.5660323  37.8755227  -0.0772090  75.2837700  37.6766286  -0.3072598
  75.9937319  37.0359479  -0.3485980  75.2407009  37.9279181   0.6153583
  83.2724479  44.6133640   2.6133981  83.2137025  43.9292860   1.9464564
  83.6743997  45.3552630   2.1614607  73.9966634  34.6631504   1.5123041
  73.4603991  34.2122243   2.1644638  73.4083343  34.7977413   0.7693506
  72.2915178  51.4295554  -4.5932300  72.5311776  52.0614078  -3.9153282
  71.4484374  51.0783594  -4.3066941  83.2741886  42.5773224   0.8447961
  82.3868665  42.2399146   0.9674360  83.8440437  41.8456255   1.0816726
  76.8043040  47.2374676  -2.1890796  76.7313211  48.0429648  -1.6771492
  76.3620433  47.4366642  -3.0142775  76.5932819  46.4746446  -8.6787975
  75.8100341  47.0168126  -8.5849750  77.2925564  46.9920426  -8.2793733
  79.2641723  47.1361510  -0.0332637  79.9769695  47.7708975  -0.1056736
  78.7731752  47.2325376  -0.8492636  80.9859250  41.0412763  -8.4615346
  80.0515529  41.1614225  -8.6310641  81.1635919  40.1385230  -8.7255336
  74.3153637  44.8855954   0.7872933  75.0163096  45.5192437   0.9402328
  73.8448752  45.2270685   0.0268573  82.1154923  37.4400561  -1.3874516
  81.4626373  37.6876468  -2.0422064  82.4935303  36.6264699  -1.7212039
  79.0762097  47.4760254  -7.2846346  79.2584491  46.6581910  -6.8218594
  79.8995083  47.6927946  -7.7221456  79.4104262  46.4028439 -10.0231297
  79.9392029  45.8920894 -10.6361135  79.6732482  46.0870970  -9.1585764
  78.1642496  38.1820372   5.0991521  77.4883133  38.0814501   5.7693896
  78.9870130  38.0259586   5.5627518  69.9121355  44.4192309  -2.2795964
  70.4974792  43.6735997  -2.1468060  69.7146193  44.7296265  -1.3959300
  72.7660010  47.4543556  -7.2633522  72.0970385  47.9389684  -7.7469482
  72.6272880  47.7012776  -6.3490143  76.9065279  49.4887300  -0.6650863
  77.4583587  49.6518921   0.0998222  77.2471472  50.0791737  -1.3370838
  71.3582044  33.9085582   3.5844056  71.9854083  33.5262659   4.1981580
  70.5009963  33.6899784   3.9499748  81.7576153  44.3148557   5.1897791
  82.3016057  44.9278515   4.6952746  81.1762998  44.8728135   5.7064804
  80.0433666  47.4369275  -3.6787181  79.9184805  46.6359015  -4.1876236
  80.7012757  47.9315468  -4.1673211  82.1068574  45.2378295  -2.0507631
  81.1598910  45.1183646  -2.1229304  82.4551347  44.3500793  -1.9681370
  74.4668148  31.1272434   1.7730611  74.9902549  31.3734731   2.5356920
  74.2480481  31.9592469   1.3533748  79.1115008  45.0331011  -5.8503279
  78.9639970  44.1047719  -5.6695709  79.9368501  45.0551102  -6.3346203
  82.7149129  45.8559570  -4.7638406  83.6395677  45.6502431  -4.9013955
  82.5464433  45.6075971  -3.8549064  75.6720693  32.0686129  -0.5419719
  75.3317513  31.2693942  -0.1399039  74.9659699  32.3687840  -1.1142885
  77.5598257  33.2694450  -2.1866400  77.3016035  34.1911521  -2.1882069
  77.0283297  32.8724885  -1.4965936  82.5044446  46.3745238  -9.4076315
  82.6781323  45.8091660 -10.1602462  82.9973337  47.1746132  -9.5896825
  68.3221405  38.3859907  -1.3412756  67.7774874  39.1619715  -1.2092481
  69.2000755  38.7330711  -1.4993634  69.1087427  37.5129803   1.5517401
  68.3669163  37.6612438   2.1382032  68.7880172  37.7738069   0.6884151
  77.0531090  47.0545781   1.3497791  77.3618216  46.8094928   2.2220491
  77.8506572  47.2592420   0.8616661  77.0751702  49.2083691  -6.4196832
  76.6356692  48.7160069  -5.7263976  77.8259819  48.6656658  -6.6604757
  69.5544041  45.3995232  -6.4172204  70.3802061  45.0999003  -6.7973561
  69.2038093  44.6302854  -5.9682416  74.5225574  44.7521700  -4.3474531
  73.9005583  44.0892405  -4.6472303  75.1930441  44.7782832  -5.0300883
  74.5950102  33.2303488   5.2457975  74.6438257  34.1065611   4.8635745
  75.1372616  32.6880881   4.6729619  85.0804947  43.7744611   4.5259112
  84.2900491  43.7568750   3.9863612  84.8438302  44.3132905   5.2808149
  85.2002822  40.6237077   1.8391841  85.2500827  40.4587085   2.7807364
  85.0916746  39.7564337   1.4489722  82.4906585  36.6068006   3.1551148
  83.3916448  36.4674470   2.8635146  82.5654559  36.7722460   4.0949325
  76.8249390  33.9834860   2.0004334  75.9552699  34.2768426   1.7286923
  77.0608870  34.5675305   2.7211598  86.7021019  43.0434019   2.0833863
  86.4105827  43.4064000   2.9197324  86.0893150  42.3301027   1.9047195
  84.9508207  38.1666634   0.5513921  85.4262329  38.3594280  -0.2567228
  84.0273773  38.2225819   0.3057304  79.5288424  30.2014477  -0.4830246
  80.0470368  30.9375504  -0.8083757  79.1743557  30.5078470   0.3516514
  83.6509876  35.0432394  -1.2157774  84.6027299  35.1430491  -1.1945550
  83.4813327  34.2510662  -0.7059689  81.6724256  32.1287977  -1.0298373
  81.0774188  32.4092990  -1.7251884  81.3873953  32.6181878  -0.2581632
  86.1297954  38.2638513  -2.1015474  86.0974274  37.3254514  -1.9155790
  86.7398578  38.3422550  -2.8349649  77.8519978  41.1852313   5.4012387
  78.7722987  41.3630912   5.5952433  77.8169561  40.2408358   5.2492086
  70.8482050  39.0953347  -1.9564832  71.0668060  40.0270455  -1.9376798
  71.2607824  38.7361322  -1.1710028  75.7209915  34.6686553   7.4337917
  75.6206642  35.6180910   7.3650008  75.5031458  34.3404792   6.5613987
  75.5841186  38.0983692   6.2502979  75.1008267  38.8984052   6.4566868
  75.6702125  38.1091637   5.2970423  71.5114523  41.9888226  -1.7128588
  72.4657777  41.9572169  -1.7798656  71.3127047  41.5278850  -0.8978362
  72.1013905  40.5589343   0.8542210  72.9206794  41.0533421   0.8777047
  72.3750713  39.6421311   0.8259778  69.8664752  47.5307846  -4.6958390
  69.7319220  46.7708247  -5.2620392  69.4496814  48.2548746  -5.1629601
  73.0233878  48.4277163  -4.4839947  72.9066262  49.3722595  -4.5861257
  72.2026324  48.1250725  -4.0954148  67.3548819  34.8927476   1.5534407
  68.0007683  34.3826430   2.0421632  67.1465971  35.6296158   2.1277832
  79.8802212  41.9608324   7.0526548  80.7493371  42.1348976   6.6913183
  79.4008963  42.7802741   6.9302277  74.0488392  49.0805425  -1.2684019
  74.9515639  49.1129035  -0.9517524  73.8225762  48.1505876  -1.2537683
  75.8041994  47.8336411  -4.6073940  74.8537625  47.8338273  -4.7209568
  76.1074480  47.0869146  -5.1237905  71.6946310  32.0395093   5.6509421
  72.5577772  31.6831898   5.8612746  71.1211721  31.7008988   6.3384826
  91.5394687  53.6696950  -3.5428178  92.1773097  53.5503697  -4.2464838
  91.4215530  54.6177794  -3.4840226  88.3484394  53.6224378  -3.6066653
  88.0102905  53.5065443  -4.4946118  89.2174162  53.2215543  -3.6265647
  88.8304177  54.7759230   2.3519553  88.8192817  54.3812028   1.4800056
  88.9924816  54.0425302   2.9453324  81.7535641  56.9711046  -4.7785542
  82.5456933  56.6301871  -5.1939242  81.9932291  57.0806021  -3.8583388
  85.5511438  57.5596341   1.2998737  85.2601304  58.4641972   1.1845403
  86.1868422  57.6012869   2.0142806  86.4767645  54.9373190  -2.1099904
  87.0731217  54.7129212  -2.8242941  86.5342616  54.1957935  -1.5074456
  91.0935956  51.3948404  -6.4674970  91.8799045  50.9767827  -6.8184553
  91.3574660  52.2994496  -6.2993321  94.0169803  45.0445211  -1.1047383
  93.6853128  45.9140622  -1.3286168  93.4215417  44.7281495  -0.4253352
  90.5101323  57.2457757  -1.7051470  90.2102046  58.1482796  -1.8135663
  90.1652382  56.9789940  -0.8530317  83.9613804  53.6971554  -5.6714765
  83.0364301  53.5647768  -5.4637074  84.2098217  54.4765773  -5.1744823
  93.9098467  49.7640297  -4.0254032  93.0015344  49.6955706  -4.3195271
  93.8586062  50.2412242  -3.1972207  81.3222615  53.3404827  -4.8370976
  81.4514997  53.5939306  -3.9231565  80.6420067  53.9332535  -5.1566321
  87.9839332  51.1829943   3.9180865  87.2072666  51.7423863   3.9083729
  88.6229895  51.6686726   4.4395735  95.7760113  47.9656736  -2.2476159
  95.1334493  48.2589269  -2.8936364  95.2715042  47.8509656  -1.4422962
  86.2385705  53.9915396   3.4798832  86.9800389  54.5300440   3.2033655
  85.5322690  54.6181685   3.6370384  91.7141044  56.1344537   2.0770993
  92.1224400  55.6926947   1.3325626  90.9918306  55.5597164   2.3305186
  88.0672114  51.0717143  -0.5495450  88.9133310  51.4956557  -0.4060801
  88.0070752  50.4150768   0.1443113  91.2171560  48.7321512   1.1085724
  90.9732492  49.4863572   0.5720000  91.4931490  49.1106859   1.9432971
  93.1710022  55.2760124  -0.2137011  93.3826918  55.9191884  -0.8902629
  93.1239771  54.4422441  -0.6815080  90.7736251  47.8877945  -3.3100438
  89.9120730  48.1859198  -3.0183701  90.7998686  48.1048344  -4.2419406
  84.4821902  55.9791617  -3.9646869  85.0523259  56.4078885  -4.6029385
  85.0730014  55.6974202  -3.2662684  84.9747068  51.1455044   4.2814142
  84.3445729  51.8271325   4.5149539  84.8683156  51.0338126   3.3367280
  80.2692041  50.8126840  -4.7919934  79.4791095  51.0684369  -5.2679823
  80.7603288  51.6275178  -4.6867893  82.2206786  51.1771420  -7.8336457
  81.4237950  51.2890114  -7.3152962  81.9932378  51.5158072  -8.6995567
  88.0512454  57.7016123   0.1146057  88.1156886  58.1636530   0.9504229
  87.3423378  57.0713488   0.2428367  78.5529744  51.0657331  -2.3604943
  78.8037782  51.9504341  -2.0947367  79.0889292  50.8861932  -3.1329851
  84.2527811  45.4475810   6.6439393  83.8594757  44.8942009   7.3187037
  85.0693951  45.7586389   7.0345910  87.1695772  46.8633689   4.2359649
  87.9105486  47.4640842   4.1564112  87.4013695  46.1211327   3.6777692
  82.3137110  52.0490056   2.5137879  82.1990625  51.1475314   2.8144978
  81.4581628  52.2953753   2.1622696  89.3928948  59.9907797   4.1125380
  88.9492802  59.2044175   3.7946284  90.0546161  60.1786947   3.4469271
  84.1516069  61.5203598  -1.3613942  84.7023494  61.3920662  -2.1336948
  83.3127545  61.8198487  -1.7119049  91.4910186  60.2710597   2.1406781
  91.4728661  61.0919478   1.6487050  92.4130106  60.1464672   2.3656922
  87.9483240  57.7854726   2.9830289  88.4811577  57.0243014   2.7529597
  87.4197321  57.4928378   3.7254444  91.1152935  42.8914792  -1.4876069
  90.7717204  43.7816434  -1.5636958  91.4831898  42.7016450  -2.3506484
  79.1838786  55.2148323  -8.6687467  80.0214008  55.6245331  -8.8853759
  79.3617053  54.2747765  -8.6987273  90.1949475  45.2619447  -3.5226836
  89.6914271  45.2249582  -4.3359030  90.4880082  46.1712190  -3.4630179
  86.4392361  45.3458177  -4.5160654  87.3045358  45.1500986  -4.8754764
  86.5069870  45.1168529  -3.5891297  84.0454680  47.5760385  -7.1444287
  84.6198432  47.3535566  -7.8771094  84.6325663  47.6449079  -6.3915686
  89.5815089  50.9383567  -4.0921570  88.6637650  51.1598514  -4.2499882
  89.9975232  51.0129878  -4.9509863  79.2064957  52.5539038  -7.9976733
  79.0089357  51.9608399  -8.7225667  78.6511621  52.2491248  -7.2800795
  87.1861680  52.4462144  -5.8782140  87.2410290  51.4935981  -5.9539664
  86.3752883  52.6021584  -5.3940842  85.1254040  51.0639204  -8.1191761
  84.3121906  51.3633375  -7.7126569  85.6213035  50.6694893  -7.4017279
  90.7228252  51.5281029   0.7123133  91.0777640  51.7552502   1.5717598
  91.3700383  51.8599405   0.0900388  84.6168115  48.6357560  -2.5030526
  85.2567494  48.4946319  -3.2007563  83.7845646  48.3492073  -2.8791924
  90.2123264  60.3178086  -2.0383166  90.2660286  60.8869022  -1.2705450
  89.3438045  60.4879971  -2.4029129  81.6196732  48.6057885  -7.7257540
  81.8803549  49.5203218  -7.8348379  82.4413904  48.1382327  -7.5760927
  83.0921657  50.0195642  -0.5558715  83.7644710  49.8113004  -1.2046066
  82.2651443  49.8217728  -0.9953483  88.9947229  46.6457583   1.4606946
  88.3475144  47.3447532   1.3671422  89.7648244  47.0793727   1.8283194
  92.4026027  56.9106435   4.5357499  92.2511533  56.6816987   3.6187583
  92.3930706  57.8677036   4.5488844  89.1711363  54.4838348  -0.4796234
  90.1003423  54.6349507  -0.6527267  88.7502393  54.5722368  -1.3347588
  87.9699695  58.5089012  -2.7097697  87.8310781  58.1407796  -1.8371759
  87.1814291  59.0236652  -2.8813739  83.4949154  53.2938245   0.2043722
  83.3568952  52.5618484   0.8055261  84.4054078  53.2047145  -0.0772090
  86.1231455  53.0058204  -0.3072598  86.8331073  52.3651396  -0.3485980
  86.0800763  53.2571099   0.6153583  94.1118234  59.9425557   2.6133981
  94.0530780  59.2584778   1.9464564  94.5137752  60.6844547   2.1614607
  84.8360389  49.9923422   1.5123041  84.2997746  49.5414160   2.1644638
  84.2477097  50.1269331   0.7693506  94.1135641  57.9065141   0.8447961
  93.2262420  57.5691063   0.9674360  94.6834192  57.1748173   1.0816726
  75.7664788  54.2389233  -5.8308988  76.4535828  53.9250963  -6.4187973
  75.6112917  55.1430598  -6.1041736  80.5699510  49.1279430  -1.4023964
  80.4857699  48.5205099  -2.1373554  79.7482216  49.6188448  -1.4014468
  90.1035478  62.4653428  -0.0332637  90.8163450  63.1000893  -0.1056736
  89.6125506  62.5617294  -0.8492636  87.3258193  49.7550376  -6.3082085
  86.9555980  49.2021417  -5.6201179  87.8217285  49.1508510  -6.8607085
  85.1547391  60.2147871   0.7872933  85.8556851  60.8484354   0.9402328
  84.6842506  60.5562603   0.0268573  92.9548677  52.7692479  -1.3874516
  92.3020127  53.0168386  -2.0422064  93.3329057  51.9556617  -1.7212039
  89.0036250  53.5112290   5.0991521  88.3276887  53.4106419   5.7693896
  89.8263884  53.3551504   5.5627518  80.7515109  59.7484226  -2.2795964
  81.3368546  59.0027914  -2.1468060  80.5539948  60.0588183  -1.3959300
  75.3432764  52.3189827  -3.5591521  75.3816864  51.7853417  -2.7654403
  74.8373057  51.7925032  -4.1780544  82.7223526  47.1654367  -0.0628978
  82.7864853  48.0269198  -0.4751581  82.6590647  46.5528369  -0.7956620
  82.1975799  49.2377500   3.5844056  82.8247838  48.8554577   4.1981580
  81.3403718  49.0191701   3.9499748  92.5969907  59.6440475   5.1897791
  93.1409811  60.2570433   4.6952746  92.0156752  60.2020053   5.7064804
  78.9741342  51.0453929 -10.4837589  79.2694783  50.1364607 -10.5370536
  78.0729377  51.0241668 -10.8056587  82.5035589  49.1209925  -4.5010041
  81.7822174  49.7345893  -4.6402568  83.2928844  49.6567690  -4.5793395
  85.3061902  46.4564352   1.7730611  85.8296304  46.7026648   2.5356920
  85.0874235  47.2884387   1.3533748  80.7029183  48.7268026 -10.3598264
  80.3741889  47.8465405 -10.5423158  81.0568554  48.6715695  -9.4721875
  83.8171006  49.0140996  -9.9922787  84.1567079  49.5426917 -10.7144178
  84.2643127  49.3521402  -9.2164220  86.5114447  47.3978047  -0.5419719
  86.1711268  46.5985860  -0.1399039  85.8053453  47.6979758  -1.1142885
  87.1630919  44.4827359  -2.0892396  87.9856988  44.0087837  -2.2113505
  87.4068983  45.2617843  -1.5893709  84.6869498  51.1746480  -4.2800417
  84.5414078  51.4886783  -3.3876135  84.2094701  51.7931380  -4.8329518
  86.5465881  48.1649028  -4.2319527  86.5327449  47.2690121  -4.5687229
  87.2638309  48.1719692  -3.5981241  88.3992011  48.5986368  -2.1866400
  88.1409789  49.5203439  -2.1882069  87.8677052  48.2016803  -1.4965936
  79.1615160  53.7151824  -1.3412756  78.6168628  54.4911632  -1.2092481
  80.0394510  54.0622629  -1.4993634  85.9502777  47.0463408  -8.9631957
  86.0718688  46.1180054  -8.7641070  85.6604819  47.0602094  -9.8753642
  79.9481182  52.8421721   1.5517401  79.2062918  52.9904356   2.1382032
  79.6273926  53.1029986   0.6884151  87.8924844  62.3837699   1.3497791
  88.2011971  62.1386846   2.2220491  88.6900326  62.5884337   0.8616661
  78.5946401  58.6473476  -5.4583271  77.7578309  58.2195650  -5.6399269
  78.5670046  58.8405919  -4.5212479  85.4343856  48.5595406   5.2457975
  85.4832012  49.4357528   4.8635745  85.9766370  48.0172799   4.6729619
  95.9198702  59.1036529   4.5259112  95.1294246  59.0860668   3.9863612
  95.6832056  59.6424822   5.2808149  96.0396577  55.9528995   1.8391841
  96.0894582  55.7879003   2.7807364  95.9310500  55.0856254   1.4489722
  93.3300339  51.9359923   3.1551148  94.2310202  51.7966388   2.8635146
  93.4048314  52.1014378   4.0949325  87.6643145  49.3126778   2.0004334
  86.7946454  49.6060344   1.7286923  87.9002625  49.8967223   2.7211598
  97.5414774  58.3725937   2.0833863  97.2499582  58.7355917   2.9197324
  96.9286905  57.6592945   1.9047195  95.7901962  53.4958551   0.5513921
  96.2656084  53.6886198  -0.2567228  94.8667527  53.5517737   0.3057304
  90.3682178  45.5306395  -0.4830246  90.8864122  46.2667422  -0.8083757
  90.0137311  45.8370388   0.3516514  94.4903631  50.3724311  -1.2157774
  95.4421054  50.4722409  -1.1945550  94.3207081  49.5802580  -0.7059689
  92.5118010  47.4579895  -1.0298373  91.9167943  47.7384907  -1.7251884
  92.2267707  47.9473796  -0.2581632  96.9691709  53.5930431  -2.1015474
  96.9368029  52.6546432  -1.9155790  97.5792332  53.6714468  -2.8349649
  88.6913732  56.5144230   5.4012387  89.6116742  56.6922829   5.5952433
  88.6563315  55.5700276   5.2492086  77.9095897  51.7082824  -5.6734339
  77.5898681  50.8548132  -5.9659965  77.3629325  51.9231402  -4.9176371
  81.6875805  54.4245265  -1.9564832  81.9061814  55.3562373  -1.9376798
  82.1001578  54.0653239  -1.1710028  86.5603670  49.9978471   7.4337917
  86.4600397  50.9472828   7.3650008  86.3425212  49.6696710   6.5613987
  77.7784157  55.3285735  -3.7041217  77.0847629  54.9139688  -4.2171263
  78.5257148  55.3706272  -4.3007798  86.4234940  53.4275609   6.2502979
  85.9402022  54.2275970   6.4566868  86.5095879  53.4383554   5.2970423
  79.6920900  55.2603989  -5.8275202  79.6691588  55.3591676  -6.7793319
  80.0021536  56.1069140  -5.5058036  82.3508278  57.3180144  -1.7128588
  83.3051531  57.2864086  -1.7798656  82.1520801  56.8570768  -0.8978362
  82.9407660  55.8881260   0.8542210  83.7600549  56.3825339   0.8777047
  83.2144467  54.9713228   0.8259778  78.1942574  50.2219394   1.5534407
  78.8401437  49.7118348   2.0421632  77.9859725  50.9588076   2.1277832
  90.7195966  57.2900242   7.0526548  91.5887126  57.4640894   6.6913183
  90.2402718  58.1094658   6.9302277  84.8882146  64.4097343  -1.2684019
  85.7909393  64.4420953  -0.9517524  84.6619516  63.4797794  -1.2537683
  82.5340065  47.3687011   5.6509421  83.3971526  47.0123816   5.8612746
  81.9605476  47.0300906   6.3384826  95.0921566  60.7767728   6.6439393
  94.6988511  60.2233926   7.3187037  95.9087706  61.0878306   7.0345910
  98.0089527  62.1925607   4.2359649  98.7499240  62.7932760   4.1564112
  98.2407449  61.4503245   3.6777692  93.0369553  64.5669417   3.5844056
  93.6641592  64.1846495   4.1981580  92.1797472  64.3483619   3.9499748
  96.2737611  63.8887323   5.2457975  96.3225766  64.7649446   4.8635745
  96.8160125  63.3464716   4.6729619  97.3997424  65.3270388   7.4337917
  97.2994151  66.2764745   7.3650008  97.1818967  64.9988627   6.5613987
  89.0336328  65.5511312   1.5534407  89.6795192  65.0410266   2.0421632
  88.8253479  66.2879993   2.1277832  93.3733819  62.6978929   5.6509421
  94.2365281  62.3415734   5.8612746  92.7999230  62.3592824   6.3384826
   4.8218046 100.4846586  73.9598475   4.0681754  99.9153984  73.8042480
   4.9565587 100.4509251  74.9069110   1.6433793 100.4549337  71.8642142
   2.0864939  99.7056662  71.4661266   0.7660304 100.4459473  71.4815874
   1.1866658 101.9254575  74.2564590   2.0213549 102.3644379  74.4202150
   1.3225787 101.4493228  73.4372836   5.2324461 100.6422196  76.6918720
   5.9627849 100.3807484  77.2526423   4.6231406  99.9050918  76.7320788
   3.3139758  98.7830059  77.2893171   2.5872921  98.6486024  76.6809662
   2.8987045  99.0906887  78.0949889   0.9317553  95.0041911  74.6426603
   1.5262043  94.7637647  73.9319911   1.0044136  94.2849042  75.2700139
   3.2388625  98.3108112  73.4170024   2.6788183  98.3801301  74.1901586
   2.6332129  98.1349097  72.6969520   4.4002892 104.2082468  78.1652088
   4.0567161 105.0984110  78.0891199   4.7681854 104.0184126  77.3021673
   6.1990557 103.4676027  73.2669826   6.5049434 102.6073391  72.9795741
   6.9243162 104.0593648  73.0668820   6.4692175 105.8970263  75.7653747
   5.5555255 106.1274490  75.9335954   6.8985277 105.9808707  76.6167779
   3.9044729 103.2674353  74.6898808   4.1846483 102.5997543  75.3159235
   4.6895336 103.4603449  74.1773472   8.0646881 105.4450166  73.5566779
   7.8671702 105.1365254  74.4410111   8.6746586 106.1711805  73.6864709
   3.8220527 105.3259073  71.3063310   4.3751566 105.7454526  71.9653333
   4.0590614 104.3994821  71.3486266   3.8148260 102.3969891  71.2132397
   3.0480656 101.8428378  71.3589080   4.2258965 102.4691760  72.0746549
   4.8218047  77.4908709  60.6843782   4.0681755  76.9216107  60.5287786
   4.9565588  77.4571373  61.6314417   1.6433795  77.4611459  58.5887449
   2.0864941  76.7118784  58.1906572   0.7660305  77.4521595  58.2061181
   1.1866659  78.9316697  60.9809897   2.0213551  79.3706501  61.1447457
   1.3225788  78.4555351  60.1618142   5.2324462  77.6484319  63.4164026
   5.9627850  77.3869607  63.9771730   4.6231407  76.9113041  63.4566094
   3.3139759  75.7892181  64.0138478   2.5872923  75.6548146  63.4054969
   2.8987046  76.0969010  64.8195196   0.9317554  72.0104034  61.3671909
   1.5262045  71.7699770  60.6565217   1.0044138  71.2911164  61.9945445
   3.2388627  75.3170235  60.1415330   2.6788185  75.3863424  60.9146892
   2.6332130  75.1411219  59.4214827   4.8244645  91.9926748  62.8345286
   5.4623055  91.8733496  62.1308626   4.7065488  92.9407592  62.8933238
   1.6334351  91.9454177  62.7706811   1.2952863  91.8295241  61.8827346
   2.5024120  91.5445342  62.7507817   2.1154134  93.0989028  68.7293016
   2.1042775  92.7041827  67.8573520   2.2774774  92.3655101  69.3226788
   3.0720726  97.4660621  54.0718167   2.4208706  98.0514701  53.6852180
   3.8665089  97.9966816  54.1313204   4.3785914  89.7178202  59.9098494
   5.1649003  89.2997625  59.5588911   4.6424618  90.6224294  60.0780142
   4.5495991  95.1551053  54.6087151   3.9141824  95.2285679  55.3208056
   4.2193397  95.7444651  53.9306230   9.7794341  89.6553436  60.8131473
  10.5119513  89.0852652  61.0469302   9.0233696  89.2675036  61.2537978
   1.3970460  92.0780677  58.0094815   1.0328668  91.5511298  58.7207737
   2.2537576  91.6879146  57.8361300   7.3019761  83.3675010  65.2726081
   6.9703086  84.2370421  65.0487296   6.7065374  83.0511294  65.9520112
   1.0375947  87.1070577  53.0056164   1.2050350  87.9750813  53.3726635
   0.8473117  87.2697858  52.0817453   3.7951281  95.5687556  64.6721994
   3.4952004  96.4712594  64.5637801   3.4502340  95.3019739  65.5243147
   7.1948424  88.0870096  62.3519431   6.2865302  88.0185504  62.0578192
   7.1436020  88.5642041  63.1801257   1.2689290  89.5059741  70.2954329
   0.4922624  90.0653662  70.2857193   1.9079853  89.9916524  70.8169199
   9.0610071  86.2886534  64.1297305   8.4184451  86.5819067  63.4837100
   8.5564999  86.1739455  64.9350502   6.7150234  90.0349707  54.8183164
   7.6268091  90.2677094  54.6430862   6.2059882  90.6186752  54.2558243
   4.9991002  94.4574335  68.4544457   5.4074358  94.0156746  67.7099089
   4.2768264  93.8826963  68.7078650   1.3522072  89.3946942  65.8278014
   2.1983267  89.8186356  65.9712663   1.2920710  88.7380566  66.5216577
   5.3219817  95.0175526  62.2096746   4.6928679  95.1821240  61.5072814
   4.9345479  95.4317135  62.9807710   9.2009049  95.9529964  59.5641110
   8.5160087  96.3328865  59.0138143   9.2852898  96.5625290  60.2973057
   4.5021518  87.0551310  67.4859188   4.2582449  87.8093371  66.9493463
   4.7781448  87.4336658  68.3206435   6.4559980  93.5989923  66.1636453
   6.6676876  94.2421683  65.4870834   6.4089729  92.7652239  65.6958383
   4.0586209  86.2107743  63.0673025   3.1970688  86.5088997  63.3589763
   4.0848644  86.4278142  62.1354058   0.8747779  94.7549934  59.4746831
   1.3386124  95.0337637  58.6851454   0.6104577  93.8533378  59.2919922
   7.5705808  96.4761878  64.3358811   8.3923252  96.0742065  64.0541492
   7.5668211  96.3730112  65.2874926   1.3362412  96.0245921  66.4919521
   1.4006844  96.4866329  67.3277693   0.6273336  95.3943286  66.6201831
  15.6611801  92.8200627  60.6843782  14.9075510  92.2508025  60.5287786
  15.7959342  92.7863291  61.6314417   1.0510429  97.6914029  56.3598501
   0.9156104  98.5365565  56.7883349   1.5920242  97.8933307  55.5964435
   2.6778906  98.3137595  70.4898843   2.2342760  97.5273974  70.1719748
   3.3396119  98.5016746  69.8242734   4.7760144  98.5940395  68.5180245
   4.7578619  99.4149276  68.0260514   5.6980064  98.4694471  68.7430386
   1.2333198  96.1084525  69.3603753   1.7661535  95.3472813  69.1303061
   0.7047279  95.8158177  70.1027908   4.4002893  81.2144591  64.8897395
   4.0567162  82.1046232  64.8136505   4.7681855  81.0246248  64.0266980
   4.3653176  91.2053202  53.3969830   3.8499799  91.9757807  53.6358217
   4.0930484  90.5318338  54.0202891   1.9500287  86.0502903  58.4555068
   1.0941883  85.6609753  58.2760707   2.3627238  86.1294863  57.5954854
   3.4799433  83.5849246  62.8546628   2.9764229  83.5479381  62.0414433
   3.7730040  84.4941989  62.9143285   9.3387450  93.9585557  55.3323003
   8.5616893  93.6196716  54.8878166  10.0178931  93.9638180  54.6577968
   4.1539479  89.0780294  55.2229611   3.8489614  89.3926443  56.0739754
   5.1069921  89.1561714  55.2656944   2.5985911  95.2370517  56.8722565
   2.0707272  94.5023277  56.5595803   2.0973413  96.0145194  56.6262533
   7.5778757  93.4319538  61.9889611   6.9202431  94.1218799  62.0769740
   8.3819156  93.8215970  62.3323598   6.3884215  91.7863910  60.0393553
   6.9016097  92.4193902  60.5415263   7.0385439  91.1865106  59.6736913
   3.6506590 101.7648235  52.7954224   2.9768288 102.0679932  53.4039182
   4.0372412 102.5677315  52.4459681   2.8665046  89.2613366  62.2851894
   1.9487608  89.4828313  62.1273582   3.2825190  89.3359677  61.4263601
   3.6500094  90.6604782  57.4154574   4.3971913  91.1726179  57.1061696
   3.9191684  90.3388834  58.2758967   1.9226744  93.1563322  54.3981528
   1.0137964  92.8722355  54.4953998   1.9521828  93.5762401  53.5384835
   7.1546012  96.7669912  58.1672696   6.7008339  95.9260822  58.2237886
   6.5239978  97.4031310  58.5047476   6.0978931  87.6961898  59.3973363
   5.3601688  87.1839284  59.7283606   6.3505705  87.2562280  58.5856640
   5.5978951  98.6046409  59.1022514   5.8901925  99.1651466  58.3834880
   6.1077571  98.8974970  59.8575673   6.1990559  80.4738150  59.9915133
   6.5049435  79.6135513  59.7041048   6.9243163  81.0655770  59.7914126
   1.6202832  94.6972066  51.7369607   1.1822262  93.9807925  51.2775244
   2.3613273  94.9248181  51.1754698   0.5612576  99.3826760  60.1915967
   0.5188755  99.6087606  59.2624499   1.4775275  99.1490134  60.3401768
   4.0078210  89.8510827  67.0896596   4.3627598  90.0782300  67.9491062
   4.6550341  90.1829204  66.4673852   9.7375947  92.9729263  57.7945925
   9.5993845  93.1630859  56.8667115   9.3812166  93.7348646  58.2513977
   9.7645326  95.0405790  62.8057197  10.1981833  94.9481079  63.6540251
  10.4776907  95.0163291  62.1677213   3.4973221  98.6407884  64.3390297
   3.5510244  99.2098821  65.1068013   2.6288003  98.8109769  63.9744335
  10.6260876  95.0829491  65.3390082  10.8196766  95.9875301  65.5849357
  10.5261494  94.6236910  66.1728667   2.2797187  84.9687381  67.8380410
   1.6325102  85.6677331  67.7444886   3.0498202  85.4023525  68.2056658
   5.6875985  95.2336234  70.9130963   5.5361491  95.0046785  69.9961047
   5.6780664  96.1906835  70.9262308   2.4561321  92.8068146  65.8977229
   3.3853381  92.9579306  65.7246197   2.0352351  92.8952167  65.0425876
   1.8497805 101.9327907  55.0101303   2.0249561 101.4615950  55.8246926
   1.1630593 102.5593673  55.2382564   2.8054868  96.2100413  61.0564605
   2.4704701  96.1701183  61.9522255   2.3058814  95.5445129  60.5835015
   5.7414060  93.5556448  51.3301664   5.1243230  92.8303276  51.2334717
   5.2730548  94.3165808  50.9868739   7.3968191  98.2655356  68.9907445
   7.3380737  97.5814576  68.3238028   7.7987710  99.0074346  68.5388071
   7.3985599  96.2294940  67.2221424   6.5112377  95.8920862  67.3447823
   7.9684150  95.4977971  67.4590190   0.9286752 100.8896392  64.1882668
   0.8556923 101.6951364  64.7001972   0.4864145 101.0888358  63.3630689
   4.0273182  85.9362792  60.3419695   4.5241881  85.1832754  60.0220765
   3.2560163  85.9727109  59.7762904  11.8802939  91.6403157  61.9837986
  11.8692815  92.5227873  61.6131919  11.0120319  91.2874708  61.7892523
   3.3885436 100.7883226  66.3440826   4.1013408 101.4230691  66.2716728
   2.8975464 100.8847092  65.5280828   5.1102962  94.6934479  57.9158118
   4.1759241  94.8135942  57.7462822   5.2879631  93.7906946  57.6518128
   8.4975514  90.5351798  58.4508152   8.9635966  91.3679790  58.3768455
   8.9483014  90.0696780  59.1553411   6.5651745  96.8795620  55.4494304
   6.8411589  96.7652214  56.3588178   5.6956244  96.4813105  55.4106477
   6.4692177  82.9032385  62.4899053   5.5555256  83.1336612  62.6581260
   6.8985278  82.9870829  63.3413086   6.2398635  91.0922277  64.9898947
   5.5870085  91.3398185  64.3351400   6.6179015  90.2786416  64.6561425
   3.2005809 101.1281971  59.0927118   3.3828203 100.3103626  59.5554870
   4.0238795 101.3449663  58.6552008   3.5347974 100.0550156  56.3542166
   4.0635741  99.5442610  55.7412328   3.7976194  99.7392686  57.2187699
   2.2886208  91.8342088  71.4764985   1.6126845  91.7336218  72.1467360
   3.1113842  91.6781302  71.9400982   1.0308991 103.1409016  65.7122601
   1.5827299 103.3040637  66.4771686   1.3715184 103.7313454  65.0402625
   5.8819865  97.9670273  71.5671255   6.4259769  98.5800232  71.0726210
   5.3006710  98.5249852  72.0838268   4.1677378 101.0890991  62.6986283
   4.0428518 100.2880731  62.1897228   4.8256469 101.5837185  62.2100253
   6.2312287  98.8900011  64.3265833   5.2842622  98.7705363  64.2544160
   6.5795060  98.0022510  64.4092094   3.2358720  98.6852728  60.5270185
   3.0883682  97.7569435  60.7077755   4.0612213  98.7072818  60.0427260
   6.8392842  99.5081286  61.6135058   7.7639389  99.3024148  61.4759509
   6.6708145  99.2597688  62.5224399   3.2320234  86.5390565  55.5202302
   3.4483849  87.4215203  55.2191130   2.7514301  86.1476779  54.7907944
   1.6841969  86.9216167  64.1907064   1.4259747  87.8433237  64.1891394
   1.1527010  86.5246601  64.8807528   6.6288158 100.0266954  56.9697149
   6.8025035  99.4613376  56.2171002   7.1217049 100.8267849  56.7876639
   2.1043925  83.0548117  60.5508226   2.1265622  83.1187450  59.5960206
   2.5211984  82.2152626  60.7448733  12.4827549  92.7903377  58.5887449
  12.9258695  92.0410702  58.1906572  11.6054059  92.7813513  58.2061181
   7.6163330  99.3433718  54.0694048   8.3114235  99.9640411  54.2881362
   7.9586481  98.4929069  54.3446425   9.5154754  96.7933424  55.5981378
  10.0406078  97.1320697  54.8730698   9.4277106  95.8580439  55.4144513
   1.1774802 100.7067497  67.7271255   1.4861929 100.4616644  68.5993954
   1.9750284 100.9114136  67.2390125   1.1995414 102.8605407  59.9576631
   0.7600405 102.3681786  60.6509488   1.9503531 102.3178375  59.7168707
   9.2048660  97.4266327  70.9032576   8.4144203  97.4090466  70.3637076
   8.9682014  97.9654621  71.6581613   9.3246535  94.2758794  68.2165305
   9.3744540  94.1108801  69.1580828   9.2160458  93.4086053  67.8263186
   6.6150297  90.2589722  69.5324611   7.5160160  90.1196187  69.2408609
   6.6898272  90.4244177  70.4722789  10.8264731  96.6955735  68.4607326
  10.5349540  97.0585716  69.2970787  10.2136863  95.9822744  68.2820658
  12.0260414  94.2608615  60.9809897  12.8607305  94.6998419  61.1447457
  12.1619543  93.7847268  60.1618142   9.0751920  91.8188350  66.9287384
   9.5506041  92.0115996  66.1206236   8.1517485  91.8747536  66.6830768
   3.6532136  83.8536194  65.8943218   4.1714080  84.5897220  65.5689707
   3.2987269  84.1600187  66.7289977   3.9044730  80.2736476  61.4144115
   4.1846484  79.6059665  62.0404541   4.6895337  80.4665572  60.9018779
   1.7078199  99.4495470  52.9769141   1.1352166 100.0685657  52.5239613
   2.2810993  99.9994832  53.5109063   7.7753589  88.6954110  65.1615690
   8.7271012  88.7952208  65.1827914   7.6057039  87.9032379  65.6713774
   5.7967968  85.7809693  65.3475091   5.2017900  86.0614706  64.6521579
   5.5117665  86.2703594  66.1191832   4.9275459  99.7332620  54.1077723
   5.8606132  99.6678182  54.3110599   4.8398671 100.5688887  53.6492256
   7.5563475  99.0498490  51.0681671   7.4777107  98.7158354  51.9617429
   8.3773142  99.5420258  51.0673143  10.2541667  91.9160230  64.2757990
  10.2217987  90.9776230  64.4617673  10.8642290  91.9944266  63.5423814
   2.0924997  90.7856283  50.3185194   3.0384102  90.6562491  50.3873612
   1.7139242  90.0470945  50.7954622  10.4036155  88.7071273  64.3216273
   9.8875204  87.9229730  64.1346202  11.2876104  88.3789990  64.4862792
   8.0646882  82.4512289  60.2812085   7.8671703  82.1427377  61.1655417
   8.6746587  83.1773928  60.4110015  16.0718216  92.9776237  63.4164026
  16.8021605  92.7161525  63.9771730  15.4625162  92.2404959  63.4566094
  14.1533513  91.1184099  64.0138478  13.4266677  90.9840064  63.4054969
  13.7380800  91.4260928  64.8195196   1.9763690  94.8374029  71.7785851
   2.8966699  95.0152628  71.9725897   1.9413273  93.8930074  71.6265550
   1.8929980  83.2543149  56.4084320   1.0830709  82.9090234  56.7839566
   2.5814397  82.9450693  56.9971932   3.8220529  82.3321196  58.0308617
   4.3751567  82.7516649  58.6898640   4.0590615  81.4056944  58.0731573
   7.1999336  84.4421721  57.5387281   6.6198005  85.1006525  57.1565333
   6.9335268  83.6199065  57.1274699   5.6502902  83.8426778  59.7408601
   6.1502680  83.9543313  58.9322920   6.2938510  83.5387831  60.3809410
   5.9824214  86.6021811  56.5943629   5.0950069  86.8871462  56.3763824
   6.3978203  86.4415575  55.7470906   9.3338750  86.6268332  60.3097969
  10.1099140  87.1164785  60.5822585   8.6086884  87.0526386  60.7669838
  11.7711308  87.3395951  61.3671909  12.3655799  87.0991687  60.6565217
  11.8437892  86.6203082  61.9945445   5.1267427  96.3666486  50.6891649
   5.8303277  96.5716488  51.3049305   4.4030076  96.9343248  50.9540733
   5.9565237  92.1176347  56.8093919   5.9000439  92.5744899  55.9701552
   6.5093580  91.3567032  56.6316762   9.7670043  87.9066079  57.6344039
   9.5106978  87.5062715  58.4652247   9.1422911  88.6209873  57.5094178
  14.0782381  90.6462152  60.1415330  13.5181939  90.7155342  60.9146892
  13.4725885  90.4703137  59.4214827   7.0354125  96.8049015  52.7390109
   7.8699728  96.3730214  52.5567584   6.8738467  96.6331029  53.6667004
   6.6900017  93.3081128  54.1046449   6.6348820  93.1425400  53.1634893
   6.0646072  94.0157161  54.2608638   4.0045924  95.6130040  73.4300011
   4.8737083  95.7870692  73.0686646   3.5252675  96.4324457  73.3075741
   3.8148262  79.4032014  57.9377704   3.0480657  78.8490501  58.0834386
   4.2258967  79.4753883  58.7991855  15.6638400 107.3218666  62.8345286
  16.3016810 107.2025413  62.1308626  15.5459242 108.2699510  62.8933238
  12.4728106 107.2746094  62.7706811  12.1346617 107.1587159  61.8827346
  13.3417874 106.8737259  62.7507817  12.9547889 108.4280946  68.7293016
  12.9436530 108.0333744  67.8573520  13.1168528 107.6947019  69.3226788
  10.1736385 106.0434342  52.1023751  10.4261906 105.5215863  51.3407214
   9.2360944 105.8800487  52.2050434  15.2179668 105.0470120  59.9098494
  16.0042757 104.6289543  59.5588911  15.4818372 105.9516212  60.0780142
  20.6188095 104.9845353  60.8131473  21.3513267 104.4144570  61.0469302
  19.8627451 104.5966954  61.2537978  12.2364215 107.4072595  58.0094815
  11.8722422 106.8803216  58.7207737  13.0931331 107.0171064  57.8361300
  18.1413516  98.6966927  65.2726081  17.8096840  99.5662338  65.0487296
  17.5459129  98.3803211  65.9520112  11.8769702 102.4362494  53.0056164
  12.0444104 103.3042731  53.3726635  11.6866871 102.5989776  52.0817453
  18.0342179 103.4162013  62.3519431  17.1259056 103.3477422  62.0578192
  17.9829775 103.8933958  63.1801257  11.8558923 104.8920152  53.9902830
  11.7358548 105.3377203  54.8288311  11.1611511 105.2405470  53.4316369
  12.1083045 104.8351659  70.2954329  11.3316379 105.3945579  70.2857193
  12.7473608 105.3208442  70.8169199  19.9003825 101.6178452  64.1297305
  19.2578206 101.9110985  63.4837100  19.3958754 101.5031372  64.9350502
  17.5543989 105.3641625  54.8183164  18.4661845 105.5969012  54.6430862
  17.0453636 105.9478669  54.2558243  15.8384757 109.7866253  68.4544457
  16.2468113 109.3448663  67.7099089  15.1162018 109.2118880  68.7078650
  12.1915827 104.7238860  65.8278014  13.0377022 105.1478273  65.9712663
  12.1314464 104.0672484  66.5216577  15.3415272 102.3843228  67.4859188
  15.0976204 103.1385289  66.9493463  15.6175202 102.7628576  68.3206435
  17.2953735 108.9281840  66.1636453  17.5070630 109.5713600  65.4870834
  17.2483483 108.0944157  65.6958383  14.8979964 101.5399661  63.0673025
  14.0364443 101.8380915  63.3589763  14.9242398 101.7570060  62.1354058
  10.6510419 106.2065004  56.2836396  11.3534463 106.6586048  56.7510323
  10.3191048 105.5648823  56.9116289   9.0990781 104.7976761  70.6587606
   8.4689441 105.4793041  70.8923002   8.9926869 104.6859842  69.7140744
   4.3935753 104.4648557  61.5853530   3.6034807 104.7206085  61.1093640
   4.8847001 105.2796894  61.6905570   6.3450499 104.8293136  58.5437006
   5.5481662 104.9411830  59.0620502   6.1176091 105.1679788  57.6777897
  26.5005556 108.1492544  60.6843782  25.7469264 107.5799942  60.5287786
  26.6353097 108.1155209  61.6314417   8.3771523  99.0997526  73.0212857
   7.9838469  98.5463725  73.6960501   9.1937664  99.4108105  73.4119374
  11.2939484 100.5155406  70.6133113  12.0349198 101.1162559  70.5337576
  11.5257407  99.7733043  70.0551156   6.4380822 105.7011773  68.8911343
   6.3234338 104.7997030  69.1918442   5.5825340 105.9475470  68.5396159
  15.2396647  96.5436508  64.8897395  14.8960917  97.4338150  64.8136505
  15.6075610  96.3538166  64.0266980  15.2046930 106.5345120  53.3969830
  14.6893554 107.3049724  53.6358217  14.9324239 105.8610256  54.0202891
  12.7894041 101.3794820  58.4555068  11.9335637 100.9901671  58.2760707
  13.2020993 101.4586781  57.5954854  14.3193188  98.9141164  62.8546628
  13.8157983  98.8771299  62.0414433  14.6123795  99.8233906  62.9143285
  10.5636074  98.9979893  61.8612810  11.4289070  98.8022702  61.5018699
  10.6313583  98.7690245  62.7882167  20.1781204 109.2877474  55.3323003
  19.4010647 108.9488634  54.8878166  20.8572685 109.2930097  54.6577968
  14.9933233 104.4072212  55.2229611  14.6883369 104.7218361  56.0739754
  15.9463675 104.4853632  55.2656944  18.4172511 108.7611455  61.9889611
  17.7596186 109.4510717  62.0769740  19.2212910 109.1507887  62.3323598
   8.1698393 101.2282101  59.2329177   8.7442145 101.0057283  58.5002370
   8.7569375 101.2970796  59.9857778  17.2277970 107.1155828  60.0393553
  17.7409852 107.7485820  60.5415263  17.8779194 106.5157024  59.6736913
   8.4967980 103.2586562  53.2525062   7.6605292 103.5961249  53.5734337
   8.3572749 103.1235542  52.3152199  10.4721060  98.1023350  57.9604246
   9.8185473  97.7872367  57.3360861  10.4301535  97.4799091  58.6864069
  11.5832265 108.3842645  49.8757538  10.6759327 108.1531899  50.0748687
  12.0803297 107.5880265  50.0631520  13.7058801 104.5905284  62.2851894
  12.7881362 104.8120231  62.1273582  14.1218944 104.6651594  61.4263601
  14.4893849 105.9896699  57.4154574  15.2365668 106.5018097  57.1061696
  14.7585438 105.6680752  58.2758967  12.7620499 108.4855240  54.3981528
  11.8531718 108.2014273  54.4953998  12.7915583 108.9054319  53.5384835
  16.9372686 103.0253816  59.3973363  16.1995443 102.5131202  59.7283606
  17.1899459 102.5854197  58.5856640  17.0384313  95.8030068  59.9915133
  17.3443190  94.9427431  59.7041048  17.7636918  96.3947688  59.7914126
  11.3105393 106.0983861  60.4991324  11.3654003 105.1457697  60.4233800
  10.4996595 106.2543300  60.9832622   9.2497753 104.7160920  58.2581702
   8.4365618 105.0155091  58.6646895   9.7456747 104.3216609  58.9756185
  14.8471964 105.1802745  67.0896596  15.2021352 105.4074218  67.9491062
  15.4944096 105.5121122  66.4673852  20.5769701 108.3021181  57.7945925
  20.4387600 108.4922777  56.8667115  20.2205920 109.0640564  58.2513977
   8.7411827 102.2879276  63.8742937   9.3811207 102.1468035  63.1765901
   7.9089358 102.0013789  63.4981539  20.6039081 110.3697708  62.8057197
  21.0375588 110.2772997  63.6540251  21.3170662 110.3455208  62.1677213
   5.8254895 105.7324788  56.0637683   4.8952483 105.6709244  56.2807645
   5.9212367 105.2100741  55.2674324   5.7440444 102.2579601  58.6515924
   6.0047261 103.1724934  58.5425085   6.5657616 101.7904044  58.8012537
   7.2165369 103.6717358  65.8214749   7.8888423 103.4634720  65.1727398
   6.3895156 103.4739444  65.3819981  21.4654630 110.4121408  65.3390082
  21.6590521 111.3167219  65.5849357  21.3655249 109.9528828  66.1728667
  13.1190941 100.2979299  67.8380410  12.4718856 100.9969249  67.7444886
  13.8891957 100.7315443  68.2056658  13.2955076 108.1360064  65.8977229
  14.2247136 108.2871224  65.7246197  12.8746106 108.2244085  65.0425876
   7.6192866 106.9459961  66.5817186   7.4812664 106.2140200  67.1828725
   8.5297790 106.8568861  66.3001374  16.5807814 108.8848365  51.3301664
  15.9636985 108.1595194  51.2334717  16.1124303 109.6457726  50.9868739
  10.2475167 106.6579920  66.0700866  10.9574786 106.0173113  66.0287484
  10.2044475 106.9092815  66.9927046   8.9604101 103.6445138  67.8896505
   8.4241458 103.1935877  68.5418101   8.3720810 103.7791047  67.1466969
   8.3706360 103.1033790  50.4522969   7.4935826 102.9822591  50.0885215
   8.8464113 102.3119868  50.2001857   4.6943222 102.7801146  64.9749500
   4.6101411 102.1726816  64.2399909   3.8725929 103.2710164  64.9758996
  14.8666936 101.2654710  60.3419695  15.3635636 100.5124672  60.0220765
  14.0953918 101.3019026  59.7762904  22.7196694 106.9695075  61.9837986
  22.7086570 107.8519791  61.6131919  21.8514073 106.6166626  61.7892523
  11.4501905 103.4072093  60.0691379  11.0799692 102.8543133  60.7572285
  11.9460997 102.8030226  59.5166379  19.3369268 105.8643716  58.4508152
  19.8029720 106.6971708  58.3768455  19.7876769 105.3988698  59.1553411
  17.3085931  98.2324303  62.4899053  16.3949011  98.4628530  62.6581260
  17.7379032  98.3162747  63.3413086  17.0792389 106.4214195  64.9898947
  16.4263840 106.6690102  64.3351400  17.4572769 105.6078333  64.6561425
  13.1279963 107.1634006  71.4764985  12.4520600 107.0628135  72.1467360
  13.9507596 107.0073220  71.9400982   6.8467239 100.8176083  66.3144485
   6.9108565 101.6790914  65.9021883   6.7834359 100.2050085  65.5816844
   6.3219511 102.8899216  69.9617520   6.9491550 102.5076293  70.5755044
   5.4647430 102.6713418  70.3273212   3.0985054 104.6975645  55.8935874
   3.3938495 103.7886323  55.8402928   2.1973090 104.6763384  55.5716877
   6.6279301 102.7731642  61.8763423   5.9065887 103.3867609  61.7370896
   7.4172557 103.3089406  61.7980069   9.4305614 100.1086068  68.1504075
   9.9540016 100.3548365  68.9130384   9.2117948 100.9406103  67.7307212
   4.8272895 102.3789743  56.0175199   4.4985602 101.4987122  55.8350305
   5.1812266 102.3237411  56.9051589   7.9414719 102.6662712  56.3850677
   8.2810791 103.1948634  55.6629286   8.3886839 103.0043119  57.1609244
  10.6358159 101.0499763  65.8353745  10.2954980 100.2507576  66.2374425
   9.9297166 101.3501474  65.2630578  11.2874631  98.1349076  64.2881068
  12.1100701  97.6609554  64.1659959  11.5312695  98.9139559  64.7879755
   9.9282866 101.1637334  54.5843970  10.6491228 101.5418587  54.0807687
   9.3048170 101.8826211  54.6878948  14.0713989 101.8682483  55.5202302
  14.2877603 102.7507121  55.2191130  13.5908056 101.4768696  54.7907944
   8.8113210 104.8268196  62.0973047   8.6657791 105.1408499  62.9897328
   8.3338414 105.4453097  61.5443945  10.6709593 101.8170744  62.1453936
  10.6571162 100.9211838  61.8086234  11.3882021 101.8241408  62.7792222
  12.5235724 102.2508084  64.1907064  12.2653501 103.1725155  64.1891394
  11.9920764 101.8538519  64.8807528  10.0746489 100.6985124  57.4141507
  10.1962400  99.7701771  57.6132394   9.7848531 100.7123810  56.5019822
  12.9437679  98.3840035  60.5508226  12.9659376  98.4479368  59.5960206
  13.3605738  97.5444544  60.7448733  23.3221304 108.1195294  58.5887449
  23.7652450 107.3702620  58.1906572  22.4447814 108.1105431  58.2061181
   9.5587568 102.2117122  71.6231439   9.6075724 103.0879245  71.2409209
  10.1010083 101.6694515  71.0503082  20.1640289 109.6050711  68.2165305
  20.2138294 109.4400719  69.1580828  20.0554212 108.7377971  67.8263186
  17.4544052 105.5881640  69.5324611  18.3553914 105.4488104  69.2408609
  17.5292026 105.7536094  70.4722789  11.7886857 102.9648494  68.3777798
  10.9190166 103.2582060  68.1060386  12.0246337 103.5488939  69.0985061
  22.8654168 109.5900533  60.9809897  23.7001060 110.0290337  61.1447457
  23.0013297 109.1139186  60.1618142  19.9145674 107.1480268  66.9287384
  20.3899796 107.3407914  66.1206236  18.9911240 107.2039453  66.6830768
  14.4925891  99.1828111  65.8943218  15.0107835  99.9189138  65.5689707
  14.1381023  99.4892104  66.7289977   6.0724828 104.0432792  54.0104624
   5.3794073 104.1177147  53.3544660   5.8276580 103.2793136  54.5326141
  14.7438485  95.6028394  61.4144115  15.0240239  94.9351583  62.0404541
  15.5289092  95.7957489  60.9018779  18.6147343 104.0246028  65.1615690
  19.5664766 104.1244125  65.1827914  18.4450794 103.2324296  65.6713774
  16.6361723 101.1101611  65.3475091  16.0411655 101.3906624  64.6521579
  16.3511419 101.5995512  66.1191832  21.0935421 107.2452147  64.2757990
  21.0611741 106.3068148  64.4617673  21.7036045 107.3236184  63.5423814
  12.9318752 106.1148200  50.3185194  13.8777857 105.9854408  50.3873612
  12.5532997 105.3762862  50.7954622  21.2429909 104.0363191  64.3216273
  20.7268958 103.2521647  64.1346202  22.1269858 103.7081907  64.4862792
  18.9040636  97.7804206  60.2812085  18.7065458  97.4719295  61.1655417
  19.5140342  98.5065845  60.4110015  26.9111971 108.3068154  63.4164026
  27.6415359 108.0453442  63.9771730  26.3018916 107.5696876  63.4566094
  24.9927268 106.4476017  64.0138478  24.2660432 106.3131982  63.4054969
  24.5774555 106.7552845  64.8195196  11.1161669 104.0398177  50.2540079
  10.2093124 103.7431289  50.3302792  11.3937650 103.7427995  49.3874365
  12.7323735  98.5835066  56.4084320  11.9224463  98.2382151  56.7839566
  13.4208152  98.2742610  56.9971932  14.6614283  97.6613113  58.0308617
  15.2145322  98.0808567  58.6898640  14.8984369  96.7348861  58.0731573
  10.6847382 103.6500187  73.8111381  10.5844109 104.5994544  73.7423472
  10.4668924 103.3218426  72.9387451   9.8860454 100.8985112  50.3952058
  10.7479618 101.2240010  50.6547875  10.0710798 100.1116608  49.8825124
  18.0393090  99.7713638  57.5387281  17.4591759 100.4298442  57.1565333
  17.7729023  98.9490983  57.1274699  16.4896656  99.1718696  59.7408601
  16.9896435  99.2835231  58.9322920  17.1332264  98.8679749  60.3809410
  10.5478652 107.0797326  72.6276442  10.0645734 107.8797686  72.8340331
  10.6339591 107.0905271  71.6743886  16.8217968 101.9313729  56.5943629
  15.9343823 102.2163379  56.3763824  17.2371957 101.7707492  55.7470906
  20.1732504 101.9560250  60.3097969  20.9492894 102.4456702  60.5822585
  19.4480638 102.3818304  60.7669838  22.6105063 102.6687869  61.3671909
  23.2049554 102.4283605  60.6565217  22.6831647 101.9495000  61.9945445
  16.7958992 107.4468265  56.8093919  16.7394193 107.9036816  55.9701552
  17.3487334 106.6858949  56.6316762  20.6063798 103.2357997  57.6344039
  20.3500732 102.8354632  58.4652247  19.9816666 103.9501791  57.5094178
  24.9176136 105.9754070  60.1415330  24.3575694 106.0447259  60.9146892
  24.3119639 105.7995054  59.4214827  17.5293771 108.6373046  54.1046449
  17.4742575 108.4717317  53.1634893  16.9039826 109.3449079  54.2608638
   2.3186286 103.8741110  67.9307871   2.9645150 103.3640064  68.4195096
   2.1103437 104.6109792  68.5051296  10.8389897  98.1381155  53.6831767
  10.8268566  99.0822995  53.8400038  11.7313319  97.9551300  53.3891228
  14.6542016  94.7323932  57.9377704  13.8874412  94.1782418  58.0834386
  15.0652721  94.8045800  58.7991855   6.6583777 101.0208727  72.0282885
   7.5215239 100.6645532  72.2386210   6.0849188 100.6822622  72.7158289
  26.0790402 111.8728426  64.8897395  25.7354671 112.7630068  64.8136505
  26.4469364 111.6830084  64.0266980  27.8778068 111.1321985  59.9915133
  28.1836944 110.2719349  59.7041048  28.6030672 111.7239606  59.7914126
  28.1479685 113.5616221  62.4899053  27.2342765 113.7920448  62.6581260
  28.5772787 113.6454665  63.3413086  25.5832239 110.9320311  61.4144115
  25.8633993 110.2643500  62.0404541  26.3682846 111.1249407  60.9018779
  29.7434391 113.1096124  60.2812085  29.5459212 112.8011212  61.1655417
  30.3534096 113.8357763  60.4110015  25.5008038 112.9905031  58.0308617
  26.0539076 113.4100484  58.6898640  25.7378124 112.0640779  58.0731573
  25.4935771 110.0615849  57.9377704  24.7268166 109.5074336  58.0834386
  25.9046476 110.1337718  58.7991855   4.8218048  54.4970832  47.4089089
   4.0681756  53.9278230  47.2533093   4.9565589  54.4633496  48.3559723
   1.6433796  54.4673582  45.3132756   2.0864942  53.7180907  44.9151879
   0.7660306  54.4583718  44.9306488   1.1866661  55.9378820  47.7055203
   2.0213552  56.3768624  47.8692764   1.3225789  55.4617473  46.8863449
   5.2324463  54.6546441  50.1409333   5.9627852  54.3931730  50.7017036
   4.6231409  53.9175163  50.1811401   3.3139760  52.7954304  50.7383784
   2.5872924  52.6610269  50.1300276   2.8987047  53.1031133  51.5440502
   0.9317555  49.0166156  48.0917216   1.5262046  48.7761892  47.3810524
   1.0044139  48.2973287  48.7190752   3.2388628  52.3232357  46.8660637
   2.6788186  52.3925546  47.6392199   2.6332131  52.1473342  46.1460133
   4.8244646  68.9988871  49.5590593   5.4623056  68.8795618  48.8553933
   4.7065489  69.9469715  49.6178545   1.6334353  68.9516299  49.4952117
   1.2952864  68.8357364  48.6072652   2.5024121  68.5507464  49.4753124
   2.1154136  70.1051151  55.4538323   2.1042776  69.7103949  54.5818827
   2.2774775  69.3717224  56.0472094   3.0720727  74.4722743  40.7963473
   2.4208707  75.0576824  40.4097487   3.8665090  75.0028938  40.8558511
   4.3785915  66.7240325  46.6343801   5.1649004  66.3059748  46.2834218
   4.6424619  67.6286417  46.8025449   4.5495992  72.1613175  41.3332458
   3.9141825  72.2347802  42.0453362   4.2193399  72.7506774  40.6551537
   9.7794342  66.6615558  47.5376779  10.5119514  66.0914775  47.7714609
   9.0233698  66.2737159  47.9783285   1.3970462  69.0842800  44.7340122
   1.0328669  68.5573421  45.4453043   2.2537578  68.6941269  44.5606607
   7.3019762  60.3737132  51.9971388   6.9703087  61.2432543  51.7732603
   6.7065376  60.0573416  52.6765418   1.0375949  64.1132699  39.7301470
   1.2050351  64.9812936  40.0971941   0.8473118  64.2759981  38.8062759
   3.7951282  72.5749678  51.3967301   3.4952005  73.4774717  51.2883108
   3.4502341  72.3081861  52.2488453   7.1948426  65.0932218  49.0764738
   6.2865303  65.0247627  48.7823499   7.1436021  65.5704163  49.9046563
   1.2689291  66.5121864  57.0199635   0.4922625  67.0715784  57.0102500
   1.9079854  66.9978647  57.5414505   9.0610072  63.2948657  50.8542612
   8.4184452  63.5881190  50.2082406   8.5565001  63.1801577  51.6595808
   6.7150236  67.0411830  41.5428471   7.6268092  67.2739217  41.3676169
   6.2059883  67.6248874  40.9803550   4.9991003  71.4636458  55.1789764
   5.4074359  71.0218868  54.4344396   4.2768265  70.8889085  55.4323957
   1.3522073  66.4009065  52.5523321   2.1983269  66.8248478  52.6957970
   1.2920711  65.7442689  53.2461884   5.3219818  72.0237648  48.9342053
   4.6928680  72.1883363  48.2318120   4.9345480  72.4379258  49.7053017
   9.2009050  72.9592086  46.2886416   8.5160088  73.3390988  45.7383450
   9.2852899  73.5687413  47.0218364   4.5021519  64.0613433  54.2104494
   4.2582451  64.8155493  53.6738770   4.7781449  64.4398781  55.0451741
   6.4559982  70.6052045  52.8881760   6.6676877  71.2483805  52.2116141
   6.4089730  69.7714362  52.4203690   4.0586210  63.2169866  49.7918332
   3.1970690  63.5151120  50.0835070   4.0848645  63.4340265  48.8599365
   0.8747780  71.7612057  46.1992138   1.3386125  72.0399760  45.4096760
   0.6104578  70.8595501  46.0165228   7.5705809  73.4824001  51.0604117
   8.3923253  73.0804188  50.7786799   7.5668212  73.3792235  52.0120233
   1.3362413  73.0308044  53.2164828   1.4006845  73.4928451  54.0523000
   0.6273337  72.4005409  53.3447138  15.6611803  69.8262749  47.4089089
  14.9075511  69.2570147  47.2533093  15.7959344  69.7925414  48.3559723
   1.0510431  74.6976152  43.0843808   0.9156105  75.5427687  43.5128656
   1.5920243  74.8995429  42.3209742   2.6778907  75.3199718  57.2144150
   2.2342761  74.5336097  56.8965055   3.3396121  75.5078869  56.5488041
   4.7760145  75.6002518  55.2425551   4.7578620  76.4211399  54.7505821
   5.6980065  75.4756593  55.4675693   1.2333199  73.1146647  56.0849060
   1.7661536  72.3534936  55.8548368   0.7047280  72.8220299  56.8273214
   4.4002894  58.2206713  51.6142701   4.0567164  59.1108355  51.5381812
   4.7681857  58.0308371  50.7512286   4.3653177  68.2115324  40.1215137
   3.8499800  68.9819929  40.3603524   4.0930485  67.5380461  40.7448198
   1.9500288  63.0565025  45.1800375   1.0941884  62.6671876  45.0006014
   2.3627240  63.1356986  44.3200160   3.4799435  60.5911369  49.5791935
   2.9764230  60.5541504  48.7659740   3.7730041  61.5004111  49.6388591
   9.3387451  70.9647679  42.0568310   8.5616894  70.6258839  41.6123472
  10.0178932  70.9700302  41.3823275   4.1539480  66.0842417  41.9474918
   3.8489616  66.3988566  42.7985061   5.1069922  66.1623836  41.9902251
   2.5985912  72.2432640  43.5967872   2.0707273  71.5085399  43.2841109
   2.0973415  73.0207316  43.3507840   7.5778758  70.4381660  48.7134918
   6.9202432  71.1280922  48.8015047   8.3819157  70.8278092  49.0568904
   6.3884217  68.7926033  46.7638860   6.9016098  69.4256025  47.2660570
   7.0385441  68.1927229  46.3982220   3.6506591  78.7710357  39.5199531
   2.9768290  79.0742054  40.1284489   4.0372413  79.5739438  39.1704988
   2.8665048  66.2675489  49.0097200   1.9487609  66.4890436  48.8518888
   3.2825191  66.3421799  48.1508908   3.6500095  67.6666904  44.1399881
   4.3971914  68.1788302  43.8307003   3.9191685  67.3450957  45.0004274
   1.9226746  70.1625445  41.1226835   1.0137965  69.8784478  41.2199305
   1.9521829  70.5824524  40.2630142   7.1546013  73.7732035  44.8918002
   6.7008340  72.9322944  44.9483193   6.5239980  74.4093433  45.2292783
   6.0978932  64.7024021  46.1218670   5.3601689  64.1901407  46.4528912
   6.3505706  64.2624402  45.3101947   5.5978952  75.6108531  45.8267821
   5.8901927  76.1713588  45.1080186   6.1077573  75.9037092  46.5820980
   6.1990560  57.4800273  46.7160439   6.5049437  56.6197636  46.4286354
   6.9243165  58.0717893  46.5159433   1.6202833  71.7034189  38.4614913
   1.1822263  70.9870048  38.0020551   2.3613274  71.9310304  37.9000005
   0.5612577  76.3888882  46.9161274   0.5188756  76.6149729  45.9869806
   1.4775276  76.1552257  47.0647075   4.0078211  66.8572950  53.8141903
   4.3627599  67.0844423  54.6736369   4.6550342  67.1891327  53.1919158
   9.7375948  69.9791386  44.5191232   9.5993847  70.1692982  43.5912421
   9.3812167  70.7410769  44.9759283   9.7645328  72.0467913  49.5302504
  10.1981834  71.9543202  50.3785558  10.4776908  72.0225413  48.8922520
   3.4973223  75.6470007  51.0635604   3.5510245  76.2160943  51.8313320
   2.6288004  75.8171892  50.6989641  10.6260877  72.0891613  52.0635389
  10.8196767  72.9937424  52.3094664  10.5261495  71.6299032  52.8973974
   2.2797188  61.9749504  54.5625716   1.6325103  62.6739454  54.4690193
   3.0498203  62.4085648  54.9301964   5.6875986  72.2398356  57.6376270
   5.5361492  72.0108908  56.7206353   5.6780665  73.1968958  57.6507615
   2.4561322  69.8130269  52.6222536   3.3853382  69.9641429  52.4491503
   2.0352352  69.9014290  51.7671182   1.8497806  78.9390030  41.7346610
   2.0249562  78.4678073  42.5492233   1.1630594  79.5655796  41.9627871
   2.8054869  73.2162536  47.7809911   2.4704702  73.1763306  48.6767561
   2.3058815  72.5507252  47.3080322   5.7414061  70.5618570  38.0546971
   5.1243232  69.8365399  37.9580024   5.2730549  71.3227931  37.7114045
   7.3968193  75.2717479  55.7152751   7.3380739  74.5876699  55.0483334
   7.7987711  76.0136469  55.2633377   7.3985600  73.2357063  53.9466731
   6.5112379  72.8982984  54.0693130   7.9684151  72.5040094  54.1835496
   0.9286753  77.8958515  50.9127974   0.8556925  78.7013486  51.4247279
   0.4864146  78.0950481  50.0875996   4.0273183  62.9424914  47.0665001
   4.5241883  62.1894877  46.7466071   3.2560164  62.9789231  46.5008211
  11.8802940  68.6465280  48.7083293  11.8692817  69.5289995  48.3377226
  11.0120320  68.2936831  48.5137830   3.3885437  77.7945349  53.0686133
   4.1013409  78.4292814  52.9962034   2.8975465  77.8909215  52.2526135
   5.1102964  71.6996602  44.6403425   4.1759242  71.8198064  44.4708129
   5.2879632  70.7969068  44.3763434   8.4975515  67.5413921  45.1753459
   8.9635967  68.3741913  45.1013761   8.9483016  67.0758903  45.8798717
   6.5651746  73.8857742  42.1739611   6.8411590  73.7714337  43.0833485
   5.6956245  73.4875227  42.1351784   6.4692178  59.9094508  49.2144360
   5.5555258  60.1398735  49.3826567   6.8985279  59.9932952  50.0658392
   6.2398636  68.0984400  51.7144254   5.5870087  68.3460307  51.0596707
   6.6179016  67.2848538  51.3806731   3.2005810  78.1344093  45.8172424
   3.3828205  77.3165749  46.2800177   4.0238796  78.3511785  45.3797314
   3.5347976  77.0612278  43.0787473   4.0635742  76.5504733  42.4657635
   3.7976195  76.7454808  43.9433006   2.2886209  68.8404211  58.2010291
   1.6126846  68.7398340  58.8712666   3.1113843  68.6843425  58.6646288
   1.0308992  80.1471138  52.4367907   1.5827300  80.3102760  53.2016992
   1.3715186  80.7375576  51.7647932   5.8819866  74.9732396  58.2916562
   6.4259770  75.5862354  57.7971516   5.3006711  75.5311974  58.8083575
   4.1677379  78.0953114  49.4231589   4.0428519  77.2942854  48.9142535
   4.8256471  78.5899307  48.9345559   6.2312288  75.8962134  51.0511139
   5.2842623  75.7767485  50.9789466   6.5795061  75.0084632  51.1337401
   3.2358721  75.6914850  47.2515492   3.0883684  74.7631558  47.4323062
   4.0612215  75.7134941  46.7672567   6.8392843  76.5143409  48.3380364
   7.7639390  76.3086270  48.2004816   6.6708146  76.2659810  49.2469706
   3.2320235  63.5452688  42.2447609   3.4483850  64.4277326  41.9436437
   2.7514303  63.1538901  41.5153251   1.6841970  63.9278289  50.9152370
   1.4259748  64.8495360  50.9136701   1.1527011  63.5308724  51.6052835
   6.6288159  77.0329076  43.6942456   6.8025037  76.4675499  42.9416308
   7.1217050  77.8329971  43.5121946   2.1043926  60.0610240  47.2753533
   2.1265623  60.1249573  46.3205513   2.5211985  59.2214748  47.4694039
  12.4827550  69.7965499  45.3132756  12.9258696  69.0472825  44.9151879
  11.6054061  69.7875636  44.9306488   7.6163332  76.3495841  40.7939354
   8.3114236  76.9702534  41.0126669   7.9586482  75.4991192  41.0691732
   9.5154755  73.7995546  42.3226685  10.0406079  74.1382819  41.5976005
   9.4277107  72.8642562  42.1389820   1.1774803  77.7129620  54.4516562
   1.4861930  77.4678767  55.3239261   1.9750286  77.9176259  53.9635432
   1.1995416  79.8667530  46.6821938   0.7600406  79.3743908  47.3754795
   1.9503532  79.3240497  46.4414013   9.2048661  74.4328450  57.6277883
   8.4144205  74.4152589  57.0882382   8.9682015  74.9716744  58.3826919
   9.3246536  71.2820916  54.9410611   9.3744541  71.1170924  55.8826134
   9.2160459  70.4148175  54.5508492   6.6150298  67.2651844  56.2569918
   7.5160161  67.1258309  55.9653916   6.6898273  67.4306299  57.1968096
  10.8264733  73.7017858  55.1852633  10.5349541  74.0647838  56.0216094
  10.2136864  72.9884866  55.0065965  12.0260415  71.2670738  47.7055203
  12.8607306  71.7060542  47.8692764  12.1619544  70.7909391  46.8863449
   9.0751921  68.8250473  53.6532691   9.5506043  69.0178119  52.8451542
   8.1517486  68.8809658  53.4076075   3.6532137  60.8598316  52.6188525
   4.1714081  61.5959343  52.2935013   3.2987270  61.1662309  53.4535284
   3.9044732  57.2798599  48.1389421   4.1846485  56.6121788  48.7649848
   4.6895339  57.4727694  47.6264085   1.7078200  76.4557593  39.7014448
   1.1352167  77.0747780  39.2484920   2.2810994  77.0056954  40.2354370
   7.7753590  65.7016233  51.8860997   8.7271013  65.8014330  51.9073221
   7.6057040  64.9094501  52.3959081   5.7967969  62.7871816  52.0720397
   5.2017902  63.0676829  51.3766886   5.5117666  63.2765717  52.8437139
   4.9275460  76.7394743  40.8323030   5.8606133  76.6740304  41.0355906
   4.8398673  77.5751010  40.3737563   7.5563477  76.0560613  37.7926978
   7.4777108  75.7220477  38.6862735   8.3773143  76.5482381  37.7918450
  10.2541668  68.9222352  51.0003296  10.2217988  67.9838353  51.1862980
  10.8642291  69.0006389  50.2669121   2.0924999  67.7918405  37.0430500
   3.0384103  67.6624613  37.1118918   1.7139244  67.0533067  37.5199928
  10.4036156  65.7133396  51.0461579   9.8875205  64.9291852  50.8591508
  11.2876105  65.3852112  51.2108099   8.0646883  59.4574411  47.0057392
   7.8671704  59.1489500  47.8900724   8.6746589  60.1836050  47.1355322
  16.0718218  69.9838359  50.1409333  16.8021606  69.7223647  50.7017036
  15.4625163  69.2467081  50.1811401  14.1533515  68.1246222  50.7383784
  13.4266678  67.9902187  50.1300276  13.7380802  68.4323050  51.5440502
   1.9763691  71.8436151  58.5031157   2.8966701  72.0214750  58.6971204
   1.9413274  70.8992197  58.3510856   1.8929982  60.2605271  43.1329627
   1.0830710  59.9152356  43.5084873   2.5814398  59.9512815  43.7217238
   3.8220530  59.3383318  44.7553923   4.3751568  59.7578772  45.4143946
   4.0590616  58.4119066  44.7976879   7.1999337  61.4483843  44.2632588
   6.6198006  62.1068647  43.8810640   6.9335270  60.6261188  43.8520005
   5.6502903  60.8488901  46.4653908   6.1502682  60.9605436  45.6568227
   6.2938511  60.5449954  47.1054716   5.9824215  63.6083934  43.3188936
   5.0950070  63.8933584  43.1009131   6.3978204  63.4477697  42.4716213
   9.3338751  63.6330455  47.0343275  10.1099141  64.1226907  47.3067892
   8.6086885  64.0588509  47.4915145  11.7711310  64.3458074  48.0917216
  12.3655800  64.1053810  47.3810524  11.8437893  63.6265205  48.7190752
   5.1267428  73.3728608  37.4136956   5.8303278  73.5778611  38.0294611
   4.4030077  73.9405370  37.6786039   5.9565239  69.1238470  43.5339226
   5.9000440  69.5807021  42.6946858   6.5093581  68.3629154  43.3562069
   9.7670045  64.9128202  44.3589346   9.5106979  64.5124837  45.1897553
   9.1422913  65.6271995  44.2339485  14.0782382  67.6524275  46.8660637
  13.5181940  67.7217464  47.6392199  13.4725886  67.4765259  46.1460133
   7.0354126  73.8111138  39.4635416   7.8699730  73.3792336  39.2812891
   6.8738469  73.6393151  40.3912310   6.6900018  70.3143251  40.8291755
   6.6348822  70.1487522  39.8880199   6.0646073  71.0219284  40.9853945
   4.0045925  72.6192163  60.1545318   4.8737085  72.7932815  59.7931953
   3.5252677  73.4386580  60.0321047   3.8148263  56.4094137  44.6623010
   3.0480659  55.8552623  44.8079693   4.2258968  56.4816005  45.5237162
  15.6638401  84.3280789  49.5590593  16.3016811  84.2087536  48.8553933
  15.5459244  85.2761633  49.6178545  12.4728107  84.2808217  49.4952117
  12.1346619  84.1649282  48.6072652  13.3417875  83.8799382  49.4753124
   8.3314923  86.1343693  45.4849008   7.7679788  86.0433630  44.7165296
   8.2167318  85.3143598  45.9651501  12.9547890  85.4343069  55.4538323
  12.9436531  85.0395867  54.5818827  13.1168530  84.7009141  56.0472094
   5.8779355  87.6294885  48.3233229   6.6700647  87.2885709  47.9079528
   6.1176005  87.7389860  49.2435382  13.9114482  89.8014661  40.7963473
  13.2602461  90.3868741  40.4097487  14.7058844  90.3320856  40.8558511
   7.8370109  86.8903798  41.1950608   8.6100985  86.3432785  41.0563483
   8.1895508  87.7548047  41.4065069   9.6755151  88.2180180  54.4017507
   9.3845017  89.1225811  54.2864173  10.3112136  88.2596708  55.1161576
  10.6011358  85.5957029  50.9918867  11.1974930  85.3713051  50.2775829
  10.6586330  84.8541774  51.5944314  10.1736387  83.0496464  38.8269057
  10.4261907  82.5277985  38.0652521   9.2360946  82.8862610  38.9295741
  15.2179669  82.0532243  46.6343801  16.0042759  81.6351666  46.2834218
  15.4818374  82.9578335  46.8025449  15.3889747  87.4905093  41.3332458
  14.7535580  87.5639719  42.0453362  15.0587153  88.0798692  40.6551537
  20.6188096  81.9907476  47.5376779  21.3513268  81.4206693  47.7714609
  19.8627452  81.6029076  47.9783285   9.8932675  84.9524570  41.0293432
   9.7768933  84.2769474  41.6974517  10.0034935  84.4656944  40.2125586
  12.2364216  84.4134717  44.7340122  11.8722423  83.8865338  45.4453043
  13.0931332  84.0233186  44.5606607  18.1413517  75.7029050  51.9971388
  17.8096842  76.5724461  51.7732603  17.5459130  75.3865334  52.6765418
  11.8769703  79.4424617  39.7301470  12.0444106  80.3104853  40.0971941
  11.6866872  79.6051899  38.8062759  14.6345036  87.9041596  51.3967301
  14.3345759  88.8066635  51.2883108  14.2896096  87.6373779  52.2488453
   8.0857518  84.3555393  47.4304005   7.1608014  84.2231607  47.6381697
   8.3341931  85.1349612  47.9273947  18.0342180  80.4224136  49.0764738
  17.1259057  80.3539544  48.7823499  17.9829776  80.8996081  49.9046563
  11.8558924  81.8982274  40.7148137  11.7358549  82.3439325  41.5533617
  11.1611512  82.2467592  40.1561675   5.4466329  83.9988666  48.2647794
   5.5758710  84.2523145  49.1787206   4.7663780  84.5916374  47.9452449
   9.6165816  94.6685916  44.3638268   9.5389846  95.6193741  44.4426749
   9.0127460  94.3231789  45.0213195  12.1083046  81.8413782  57.0199635
  11.3316380  82.4007702  57.0102500  12.7473609  82.3270565  57.5414505
  19.9003827  78.6240574  50.8542612  19.2578207  78.9173108  50.2082406
  19.3958755  78.5093495  51.6595808  17.5543990  82.3703748  41.5428471
  18.4661846  82.6031134  41.3676169  17.0453637  82.9540792  40.9803550
  10.3629418  84.6499235  56.5817602  11.1044103  85.1884279  56.3052426
   9.6566404  85.2765524  56.7389154  15.8384758  86.7928375  55.1789764
  16.2468114  86.3510786  54.4344396  15.1162019  86.2181003  55.4323957
  12.1915828  81.7300982  52.5523321  13.0377023  82.1540396  52.6957970
  12.1314466  81.0734607  53.2461884  16.1613573  87.3529566  48.9342053
  15.5322435  87.5175280  48.2318120  15.7739235  87.7671176  49.7053017
  20.0402804  88.2884004  46.2886416  19.3553843  88.6682905  45.7383450
  20.1246654  88.8979331  47.0218364  15.3415273  79.3905351  54.2104494
  15.0976205  80.1447411  53.6738770  15.6175204  79.7690698  55.0451741
  17.2953736  85.9343963  52.8881760  17.5070631  86.5775723  52.2116141
  17.2483484  85.1006280  52.4203690  14.8979965  78.5461784  49.7918332
  14.0364444  78.8443037  50.0835070  14.9242400  78.7632183  48.8599365
  11.7141534  87.0903974  46.1992138  12.1779880  87.3691677  45.4096760
  11.4498332  86.1887419  46.0165228   8.6065615  86.6375456  49.1371901
   9.1766973  87.0662724  48.4989385   9.1973727  86.3558040  49.8356087
  10.6510420  83.2127127  43.0081703  11.3534464  83.6648170  43.4755629
  10.3191049  82.5710945  43.6361596   9.0990782  81.8038883  57.3832912
   8.4689443  82.4855164  57.6168309   8.9926870  81.6921965  56.4386050
   4.3935754  81.4710679  48.3098836   3.6034808  81.7268208  47.8338947
   4.8847002  82.2859017  48.4150877  18.4099564  88.8115918  51.0604117
  19.2317008  88.4096106  50.7786799  18.4061967  88.7084153  52.0120233
   6.3450500  81.8355258  45.2682313   5.5481663  81.9473953  45.7865809
   6.1176092  82.1741911  44.4023204  12.1756167  88.3599962  53.2164828
  12.2400600  88.8220369  54.0523000  11.4667091  87.7297327  53.3447138
   2.6773457  81.7241170  50.7413827   2.9281496  82.6088180  51.0071403
   3.2133006  81.5445771  49.9688919  26.5005557  85.1554667  47.4089089
  25.7469265  84.5862065  47.2533093  26.6353098  85.1217331  48.3559723
  11.8904185  90.0268069  43.0843808  11.7549860  90.8719605  43.5128656
  12.4313998  90.2287347  42.3209742   8.3771525  76.1059649  59.7458163
   7.9838470  75.5525848  60.4205807   9.1937665  76.4170228  60.1364681
   5.3433582  87.5443507  43.6571733   5.8558103  88.3386757  43.8077298
   5.9956295  86.8469798  43.5905335   7.1528467  90.6609264  45.7394486
   7.3295095  91.5827228  45.5515470   7.9485301  90.3467683  46.1688866
  11.2939486  77.5217528  57.3378420  12.0349199  78.1224681  57.2582882
  11.5257409  76.7795166  56.7796462   6.4380824  82.7073895  55.6156649
   6.3234339  81.8059153  55.9163748   5.5825341  82.9537592  55.2641466
  13.5172661  90.6491636  57.2144150  13.0736516  89.8628014  56.8965055
  14.1789875  90.8370786  56.5488041   8.2759783  92.1787437  51.7404829
   8.8267208  92.0504501  50.9681823   7.4371259  92.4782326  51.3899721
  15.6153900  90.9294436  55.2425551  15.5972375  91.7503317  54.7505821
  16.5373820  90.8048511  55.4675693  12.0726954  88.4438565  56.0849060
  12.6055290  87.6826853  55.8548368  11.5441035  88.1512217  56.8273214
  15.2396649  73.5498631  51.6142701  14.8960918  74.4400273  51.5381812
  15.6075611  73.3600289  50.7512286   3.3082499  85.8732162  44.4331304
   4.1457721  86.2829170  44.2165011   3.4860767  84.9331604  44.4031498
  15.2046931  83.5407242  40.1215137  14.6893555  84.3111847  40.3603524
  14.9324240  82.8672378  40.7448198  12.7894042  78.3856943  45.1800375
  11.9335639  77.9963793  45.0006014  13.2020994  78.4648904  44.3200160
  14.3193189  75.9203286  49.5791935  13.8157985  75.8833421  48.7659740
  14.6123796  76.8296029  49.6388591  10.5636075  76.0042016  48.5858116
  11.4289072  75.8084825  48.2264006  10.6313584  75.7752368  49.5127473
  20.1781205  86.2939597  42.0568310  19.4010648  85.9550756  41.6123472
  20.8572686  86.2992220  41.3823275  14.9933235  81.4134334  41.9474918
  14.6883370  81.7280483  42.7985061  15.9463677  81.4915754  41.9902251
  13.4379666  87.5724558  43.5967872  12.9101028  86.8377317  43.2841109
  12.9367169  88.3499234  43.3507840  18.4172512  85.7673578  48.7134918
  17.7596187  86.4572839  48.8015047  19.2212912  86.1570010  49.0568904
   8.1698394  78.2344224  45.9574483   8.7442146  78.0119405  45.2247676
   8.7569376  78.3032918  46.7103085  17.2277971  84.1217951  46.7638860
  17.7409853  84.7547943  47.2660570  17.8779195  83.5219146  46.3982220
   8.4967981  80.2648685  39.9770369   7.6605293  80.6023371  40.2979643
   8.3572751  80.1297665  39.0397505  10.4721062  75.1085473  44.6849553
   9.8185474  74.7934490  44.0606167  10.4301536  74.4861213  45.4109376
  11.5832267  85.3904768  36.6002845  10.6759328  85.1594021  36.7993994
  12.0803299  84.5942387  36.7876826  14.4900345  94.1002275  39.5199531
  13.8162044  94.4033972  40.1284489  14.8766167  94.9031355  39.1704988
  13.7058802  81.5967406  49.0097200  12.7881363  81.8182353  48.8518888
  14.1218946  81.6713717  48.1508908  14.4893850  82.9958822  44.1399881
  15.2365669  83.5080219  43.8307003  14.7585439  82.6742875  45.0004274
  12.7620500  85.4917363  41.1226835  11.8531719  85.2076396  41.2199305
  12.7915584  85.9116441  40.2630142  17.9939767  89.1023952  44.8918002
  17.5402095  88.2614862  44.9483193  17.3633734  89.7385351  45.2292783
  16.9372687  80.0315938  46.1218670  16.1995444  79.5193324  46.4528912
  17.1899461  79.5916320  45.3101947  16.4372707  90.9400449  45.8267821
  16.7295681  91.5005506  45.1080186  16.9471327  91.2329010  46.5820980
  17.0384314  72.8092190  46.7160439  17.3443191  71.9489554  46.4286354
  17.7636919  73.4009810  46.5159433   3.3308670  83.2122877  45.1042037
   3.1333070  82.6192238  44.3793104   2.7755334  82.9075087  45.8217976
  11.3105394  83.1045983  47.2236630  11.3654004  82.1519820  47.1479107
  10.4996596  83.2605422  47.7077929  12.4596588  87.0326106  38.4614913
  12.0216018  86.3161965  38.0020551  13.2007029  87.2602221  37.9000005
   9.2497754  81.7223043  44.9827009   8.4365619  82.0217214  45.3892201
   9.7456748  81.3278732  45.7001491  11.4006332  91.7180800  46.9161274
  11.3582511  91.9441646  45.9869806  12.3169031  91.4844175  47.0647075
  14.8471966  82.1864868  53.8141903  15.2021353  82.4136341  54.6736369
  15.4944097  82.5183244  53.1919158  20.5769703  85.3083303  44.5191232
  20.4387601  85.4984899  43.5912421  20.2205921  86.0702686  44.9759283
   8.7411829  79.2941399  50.5988244   9.3811208  79.1530158  49.9011207
   7.9089359  79.0075912  50.2226846  20.6039082  87.3759830  49.5302504
  21.0375589  87.2835120  50.3785558  21.3170663  87.3517331  48.8922520
   9.5172133  88.5943829  46.7123236  10.3112731  88.0994149  46.5105811
   8.8063825  88.0661692  46.3490942  14.3366977  90.9761925  51.0635604
  14.3903999  91.5452861  51.8313320  13.4681758  91.1463810  50.6989641
   5.8254896  82.7386911  42.7882989   4.8952484  82.6771366  43.0052951
   5.9212368  82.2162864  41.9919630   5.7440445  79.2641724  45.3761231
   6.0047262  80.1787057  45.2670391   6.5657617  78.7966166  45.5257844
   7.2165370  80.6779481  52.5460055   7.8888424  80.4696843  51.8972704
   6.3895157  80.4801567  52.1065288  21.4654632  87.4183531  52.0635389
  21.6590522  88.3229342  52.3094664  21.3655250  86.9590950  52.8973974
  13.1190942  77.3041422  54.5625716  12.4718858  78.0031371  54.4690193
  13.8891958  77.7377566  54.9301964  16.5269740  87.5690274  57.6376270
  16.3755247  87.3400826  56.7206353  16.5174420  88.5260875  57.6507615
  13.2955077  85.1422187  52.6222536  14.2247137  85.2933346  52.4491503
  12.8746107  85.2306207  51.7671182  12.0943409  89.1672851  50.3921074
  11.9554494  88.7991635  51.2647012  11.3058005  89.6820490  50.2205031
  12.6891561  94.2681947  41.7346610  12.8643316  93.7969991  42.5492233
  12.0024349  94.8947714  41.9627871  13.6448624  88.5454454  47.7809911
  13.3098456  88.5055224  48.6767561  13.1452569  87.8799170  47.3080322
   7.6192868  83.9522084  53.3062493   7.4812666  83.2202323  53.9074032
   8.5297791  83.8630984  53.0246680  16.5807815  85.8910488  38.0546971
  15.9636986  85.1657316  37.9580024  16.1124304  86.6519848  37.7114045
  10.2475168  83.6642043  52.7946172  10.9574787  83.0235235  52.7532791
  10.2044477  83.9154938  53.7172353  18.2361947  90.6009396  55.7152751
  18.1774493  89.9168617  55.0483334  18.6381465  91.3428386  55.2633377
   8.9604102  80.6507261  54.6141812   8.4241459  80.1997999  55.2663408
   8.3720811  80.7853170  53.8712276   7.2552646  97.4171310  48.5086470
   7.4949244  98.0489834  49.1865489   6.4121842  97.0659350  48.7951830
   8.3706361  80.1095912  37.1768275   7.4935828  79.9884713  36.8130522
   8.8464114  79.3181991  36.9247164  18.2379354  88.5648980  53.9466731
  17.3506133  88.2274902  54.0693130  18.8077905  87.8332012  54.1835496
   4.6943224  79.7863269  51.6994806   4.6101412  79.1788938  50.9645216
   3.8725930  80.2772287  51.7004302  11.7680508  93.2250433  50.9127974
  11.6950679  94.0305404  51.4247279  11.3257901  93.4242398  50.0875996
  11.5570287  92.4622203  44.4230796  10.7737809  93.0043883  44.5169020
  12.2563033  92.9796182  44.8225037  14.8666937  78.2716832  47.0665001
  15.3635637  77.5186794  46.7466071  14.0953919  78.3081149  46.5008211
  22.7196695  83.9757198  48.7083293  22.7086571  84.8581913  48.3377226
  21.8514074  83.6228749  48.5137830  14.2279191  93.1237267  53.0686133
  14.9407163  93.7584732  52.9962034  13.7369220  93.2201133  52.2526135
  15.9496718  87.0288519  44.6403425  15.0152997  87.1489982  44.4708129
  16.1273387  86.1260986  44.3763434  11.4501906  80.4134215  46.7936686
  11.0799694  79.8605256  47.4817591  11.9460999  79.8092349  46.2411686
  19.3369270  82.8705839  45.1753459  19.8029722  83.7033830  45.1013761
  19.7876770  82.4050820  45.8798717   9.2791105  90.8731710  53.8891704
   9.9800564  91.5068193  54.0421098   8.8086220  91.2146442  53.1287343
  17.4045501  89.2149660  42.1739611  17.6805345  89.1006255  43.0833485
  16.5349999  88.8167145  42.1351784  17.3085932  75.2386426  49.2144360
  16.3949012  75.4690652  49.3826567  17.7379034  75.3224870  50.0658392
  17.0792391  83.4276318  51.7144254  16.4263841  83.6752225  51.0596707
  17.4572771  82.6140456  51.3806731  14.0399565  93.4636011  45.8172424
  14.2221959  92.6457667  46.2800177  14.8632551  93.6803703  45.3797314
  14.3741730  92.3904196  43.0787473  14.9029497  91.8796651  42.4657635
  14.6369950  92.0746726  43.9433006  13.1279964  84.1696129  58.2010291
  12.4520601  84.0690258  58.8712666  13.9507598  84.0135342  58.6646288
   4.8758823  90.4068065  50.8222806   5.4612260  89.6611753  50.9550711
   4.6783661  90.7172022  51.7059470   7.7297478  93.4419313  45.8385249
   7.0607853  93.9265440  45.3549289   7.5910348  93.6888533  46.7528627
  11.8702747  95.4763056  52.4367907  12.4221055  95.6394678  53.2016992
  12.2108940  96.0667494  51.7647932   6.8467240  77.8238206  53.0389792
   6.9108566  78.6853037  52.6267190   6.7834360  77.2112208  52.3062150
   6.3219512  79.8961338  56.6862826   6.9491551  79.5138416  57.3000350
   5.4647431  79.6775540  57.0518519  16.7213621  90.3024314  58.2916562
  17.2653525  90.9154272  57.7971516  16.1400466  90.8603892  58.8083575
   3.0985055  81.7037768  42.6181181   3.3938496  80.7948446  42.5648235
   2.1973091  81.6825507  42.2962183  15.0071134  93.4245032  49.4231589
  14.8822273  92.6234771  48.9142535  15.6650225  93.9191225  48.9345559
   6.6279302  79.7793764  48.6008730   5.9065888  80.3929732  48.4616203
   7.4172558  80.3151529  48.5225376  17.0706042  91.2254052  51.0511139
  16.1236378  91.1059403  50.9789466  17.4188815  90.3376550  51.1337401
   9.4305616  77.1148191  54.8749381   9.9540017  77.3610487  55.6375691
   9.2117949  77.9468225  54.4552519   4.8272897  79.3851865  42.7420506
   4.4985603  78.5049244  42.5595612   5.1812267  79.3299534  43.6296895
  14.0752476  91.0206768  47.2515492  13.9277438  90.0923475  47.4323062
  14.9005969  91.0426859  46.7672567   7.9414720  79.6724835  43.1095984
   8.2810792  80.2010756  42.3874592   8.3886840  80.0105241  43.8854550
  17.6786597  91.8435327  48.3380364  18.6033145  91.6378188  48.2004816
  17.5101901  91.5951728  49.2469706  10.6358161  78.0561886  52.5599052
  10.2954981  77.2569699  52.9619732   9.9297167  78.3563597  51.9875885
  11.2874633  75.1411198  51.0126375  12.1100702  74.6671676  50.8905265
  11.5312696  75.9201682  51.5125061   9.9282867  78.1699457  41.3089277
  10.6491230  78.5480709  40.8052993   9.3048171  78.8888333  41.4124255
  14.0713990  78.8744606  42.2447609  14.2877604  79.7569243  41.9436437
  13.5908057  78.4830819  41.5153251   8.8113211  81.8330319  48.8218353
   8.6657792  82.1470622  49.7142635   8.3338415  82.4515219  48.2689252
  10.6709594  78.8232867  48.8699243  10.6571163  77.9273960  48.5331541
  11.3882022  78.8303531  49.5037529  12.5235725  79.2570207  50.9152370
  12.2653503  80.1787278  50.9136701  11.9920765  78.8600642  51.6052835
  17.4681914  92.3620994  43.6942456  17.6418791  91.7967417  42.9416308
  17.9610805  93.1621889  43.5121946   3.2858873  84.3735663  51.7606015
   2.7412342  85.1495471  51.8926289   4.1638223  84.7206468  51.6025136
  10.0746490  77.7047247  44.1386813  10.1962401  76.7763893  44.3377701
   9.7848532  77.7185933  43.2265129  12.9437681  75.3902158  47.2753533
  12.9659377  75.4541491  46.3205513  13.3605740  74.5506666  47.4694039
  23.3221305  85.1257417  45.3132756  23.7652451  84.3764742  44.9151879
  22.4447815  85.1167553  44.9306488  18.4557086  91.6787759  40.7939354
  19.1507991  92.2994451  41.0126669  18.7980236  90.8283110  41.0691732
   4.0724895  83.5005559  54.6536172   3.3306631  83.6488195  55.2400802
   3.7517640  83.7613825  53.7902921  20.3548509  89.1287464  42.3226685
  20.8799833  89.4674737  41.5976005  20.2670862  88.1934479  42.1389820
  12.0168558  93.0421538  54.4516562  12.3255684  92.7970684  55.3239261
  12.8144040  93.2468176  53.9635432  12.0389170  95.1959447  46.6821938
  11.5994160  94.7035826  47.3754795  12.7897287  94.6532415  46.4414013
   4.5181509  91.3870988  46.6846566   5.3439529  91.0874760  46.3045210
   4.1675561  90.6178611  47.1336355   9.4863042  90.7397456  48.7544240
   8.8643051  90.0768161  48.4546468  10.1567909  90.7658588  48.0717888
   2.7190114  89.3057315  47.6435500   1.8822022  88.8779489  47.4619501
   2.6913759  89.4989758  48.5806291   9.5587570  79.2179244  58.3476746
   9.6075725  80.0941367  57.9654515  10.1010084  78.6756638  57.7748389
  20.0442415  89.7620368  57.6277883  19.2537959  89.7444507  57.0882382
  19.8075770  90.3008661  58.3826919  20.1640290  86.6112834  54.9410611
  20.2138295  86.4462842  55.8826134  20.0554214  85.7440093  54.5508492
   9.0476549  89.2901380  42.2302700   9.1964669  89.9736844  41.5769373
   9.8542993  89.2706470  42.7452156  17.4544053  82.5943762  56.2569918
  18.3553916  82.4550227  55.9653916  17.5292027  82.7598217  57.1968096
  11.7886858  79.9710617  55.1023104  10.9190168  80.2644183  54.8305693
  12.0246338  80.5551062  55.8230368  21.6658487  89.0309776  55.1852633
  21.3743296  89.3939756  56.0216094  21.0530619  88.3176784  55.0065965
  22.8654170  86.5962655  47.7055203  23.7001061  87.0352459  47.8692764
  23.0013298  86.1201309  46.8863449  19.9145675  84.1542390  53.6532691
  20.3899797  84.3470037  52.8451542  18.9911241  84.2101576  53.4076075
   6.8029182  85.3166557  43.2363769   6.5575224  84.4128887  43.4343979
   6.9725097  85.3183708  42.2943247  14.4925892  76.1890234  52.6188525
  15.0107836  76.9251261  52.2935013  14.1381025  76.4954227  53.4535284
   6.0724830  81.0494915  40.7349931   5.3794075  81.1239270  40.0789967
   5.8276582  80.2855259  41.2571448  14.7438486  72.6090516  48.1389421
  15.0240240  71.9413705  48.7649848  15.5289093  72.8019612  47.6264085
  12.5471955  91.7849510  39.7014448  11.9745922  92.4039697  39.2484920
  13.1204748  92.3348872  40.2354370  18.6147344  81.0308150  51.8860997
  19.5664767  81.1306248  51.9073221  18.4450795  80.2386419  52.3959081
  16.6361724  78.1163734  52.0720397  16.0411656  78.3968746  51.3766886
  16.3511421  78.6057634  52.8437139  15.7669214  92.0686660  40.8323030
  16.6999888  92.0032222  41.0355906  15.6792427  92.9042927  40.3737563
  18.3957231  91.3852531  37.7926978  18.3170863  91.0512394  38.6862735
  19.2166898  91.8774299  37.7918450  21.0935422  84.2514270  51.0003296
  21.0611742  83.3130271  51.1862980  21.7036046  84.3298307  50.2669121
  12.9318753  83.1210323  37.0430500  13.8777858  82.9916531  37.1118918
  12.5532998  82.3824985  37.5199928  21.2429911  81.0425313  51.0461579
  20.7268959  80.2583770  50.8591508  22.1269859  80.7144030  51.2108099
  18.9040638  74.7866329  47.0057392  18.7065459  74.4781417  47.8900724
  19.5140343  75.5127968  47.1355322  26.9111972  85.3130277  50.1409333
  27.6415361  85.0515565  50.7017036  26.3018918  84.5758999  50.1811401
  24.9927269  83.4538139  50.7383784  24.2660433  83.3194104  50.1300276
  24.5774556  83.7614968  51.5440502  12.8157446  87.1728069  58.5031157
  13.7360455  87.3506668  58.6971204  12.7807029  86.2284114  58.3510856
  11.1161670  81.0460299  36.9785385  10.2093126  80.7493412  37.0548099
  11.3937651  80.7490117  36.1119672   2.0339611  82.3666663  47.4284432
   1.7142395  81.5131971  47.1358806   1.4873039  82.5815241  48.1842399
   5.8119518  85.0829104  51.1453938   6.0305528  86.0146212  51.1641972
   6.2245292  84.7237078  51.9308742  12.7323736  75.5897189  43.1329627
  11.9224464  75.2444274  43.5084873  13.4208153  75.2804733  43.7217238
  14.6614284  74.6675236  44.7553923  15.2145323  75.0870689  45.4143946
  14.8984371  73.7410984  44.7976879  10.6847384  80.6562310  60.5356687
  10.5844110  81.6056666  60.4668778  10.4668926  80.3280548  59.6632757
   9.8860455  77.9047235  37.1197365  10.7479619  78.2302133  37.3793182
  10.0710799  77.1178730  36.6070430   1.9027871  85.9869574  49.3977553
   1.2091342  85.5723527  48.8847508   2.6500862  86.0290111  48.8010972
  18.0393091  76.7775761  44.2632588  17.4591760  77.4360565  43.8810640
  17.7729024  75.9553106  43.8520005  16.4896658  76.1780819  46.4653908
  16.9896436  76.2897353  45.6568227  17.1332266  75.8741872  47.1054716
  10.5478654  84.0859448  59.3521749  10.0645735  84.8859808  59.5585638
  10.6339593  84.0967393  58.3989193   3.8164613  85.9187828  47.2743568
   3.7935301  86.0175515  46.3225451   4.1265250  86.7652979  47.5960734
   6.4751991  87.9763983  51.3890183   7.4295245  87.9447925  51.3220114
   6.2764515  87.5154607  52.2040409   7.0651373  86.5465099  53.9560980
   7.8844262  87.0409178  53.9795818   7.3388181  85.6297067  53.9278548
  16.8217969  78.9375851  43.3188936  15.9343824  79.2225502  43.1009131
  17.2371958  78.7769615  42.4716213  20.1732506  78.9622372  47.0343275
  20.9492896  79.4518825  47.3067892  19.4480640  79.3880427  47.4915145
  22.6105064  79.6749992  48.0917216  23.2049555  79.4345728  47.3810524
  22.6831648  78.9557122  48.7190752   4.8302220  93.5183603  48.4060381
   4.6956688  92.7584003  47.8398379   4.4134282  94.2424502  47.9389169
  15.9661183  88.7020526  37.4136956  16.6697033  88.9070529  38.0294611
  15.2423832  89.2697288  37.6786039  16.7958993  84.4530387  43.5339226
  16.7394195  84.9098939  42.6946858  17.3487336  83.6921072  43.3562069
  20.6063799  80.2420119  44.3589346  20.3500733  79.8416755  45.1897553
  19.9816667  80.9563913  44.2339485  24.9176137  82.9816192  46.8660637
  24.3575695  83.0509382  47.6392199  24.3119640  82.8057177  46.1460133
   7.9871346  94.4152920  48.6178823   7.8703730  95.3598352  48.5157514
   7.1663792  94.1126481  49.0064622  17.8747880  89.1403055  39.4635416
  18.7093484  88.7084254  39.2812891  17.7132223  88.9685069  40.3912310
  17.5293772  85.6435169  40.8291755  17.4742576  85.4779440  39.8880199
  16.9039828  86.3511202  40.9853945   2.3186287  80.8803233  54.6553177
   2.9645151  80.3702187  55.1440403   2.1103439  81.6171915  55.2296603
  14.8439680  87.9484080  60.1545318  15.7130839  88.1224733  59.7931953
  14.3646431  88.7678497  60.0321047  10.8389898  75.1443278  40.4077074
  10.8268568  76.0885118  40.5645345  11.7313320  74.9613423  40.1136535
   9.0125860  95.0681181  51.8334752   9.9153107  95.1004792  52.1501247
   8.7863230  94.1381632  51.8481087  10.7679462  93.8212168  48.4944830
   9.8175093  93.8214030  48.3809203  11.0711948  93.0744903  47.9780865
  14.6542017  71.7386054  44.6623010  13.8874413  71.1844541  44.8079693
  15.0652722  71.8107923  45.5237162   6.6583778  78.0270850  58.7528192
   7.5215240  77.6707655  58.9631516   6.0849189  77.6884745  59.4403596
  26.5032155  99.6572706  49.5590593  27.1410565  99.5379454  48.8553933
  26.3852998 100.6053550  49.6178545  23.3121862  99.6100135  49.4952117
  22.9740373  99.4941199  48.6072652  24.1811630  99.2091300  49.4753124
  19.1708677 101.4635611  45.4849008  18.6073542 101.3725548  44.7165296
  19.0561072 100.6435515  45.9651501  23.7941645 100.7634986  55.4538323
  23.7830285 100.3687785  54.5818827  23.9562284 100.0301059  56.0472094
  16.7173109 102.9586803  48.3233229  17.5094401 102.6177627  47.9079528
  16.9569759 103.0681778  49.2435382  24.7508236 105.1306579  40.7963473
  24.0996216 105.7160659  40.4097487  25.5452599 105.6612774  40.8558511
  18.6763863 102.2195716  41.1950608  19.4494739 101.6724703  41.0563483
  19.0289262 103.0839965  41.4065069  20.5148906 103.5472098  54.4017507
  20.2238772 104.4517729  54.2864173  21.1505890 103.5888626  55.1161576
  21.4405113 100.9248947  50.9918867  22.0368685 100.7004969  50.2775829
  21.4980084 100.1833692  51.5944314  21.0130141  98.3788382  38.8269057
  21.2655662  97.8569903  38.0652521  20.0754700  98.2154527  38.9295741
  26.0573424  97.3824160  46.6343801  26.8436513  96.9643583  46.2834218
  26.3212128  98.2870252  46.8025449  26.2283501 102.8197011  41.3332458
  25.5929334 102.8931637  42.0453362  25.8980908 103.4090609  40.6551537
  31.4581851  97.3199393  47.5376779  32.1907023  96.7498610  47.7714609
  30.7021207  96.9320994  47.9783285  20.7326430 100.2816488  41.0293432
  20.6162688  99.6061391  41.6974517  20.8428690  99.7948862  40.2125586
  23.0757971  99.7426635  44.7340122  22.7116178  99.2157256  45.4453043
  23.9325087  99.3525104  44.5606607  28.9807271  91.0320968  51.9971388
  28.6490596  91.9016379  51.7732603  28.3852885  90.7157252  52.6765418
  22.7163458  94.7716535  39.7301470  22.8837860  95.6396771  40.0971941
  22.5260627  94.9343816  38.8062759  25.4738791 103.2333514  51.3967301
  25.1739514 104.1358552  51.2883108  25.1289850 102.9665697  52.2488453
  18.9251272  99.6847310  47.4304005  18.0001769  99.5523525  47.6381697
  19.1735686 100.4641530  47.9273947  28.8735935  95.7516054  49.0764738
  27.9652812  95.6831462  48.7823499  28.8223530  96.2287999  49.9046563
  22.6952679  97.2274192  40.7148137  22.5752304  97.6731243  41.5533617
  22.0005267  97.5759510  40.1561675  16.2860083  99.3280584  48.2647794
  16.4152465  99.5815063  49.1787206  15.6057535  99.9208292  47.9452449
  20.4559571 109.9977834  44.3638268  20.3783600 110.9485659  44.4426749
  19.8521214 109.6523706  45.0213195  22.9476800  97.1705699  57.0199635
  22.1710134  97.7299619  57.0102500  23.5867363  97.6562482  57.5414505
  30.7397581  93.9532492  50.8542612  30.0971961  94.2465025  50.2082406
  30.2352510  93.8385412  51.6595808  28.3937745  97.6995665  41.5428471
  29.3055601  97.9323052  41.3676169  27.8847392  98.2832710  40.9803550
  21.2023173  99.9791153  56.5817602  21.9437857 100.5176197  56.3052426
  20.4960158 100.6057441  56.7389154  26.6778512 102.1220293  55.1789764
  27.0861868 101.6802704  54.4344396  25.9555774 101.5472921  55.4323957
  23.0309582  97.0592900  52.5523321  23.8770778  97.4832313  52.6957970
  22.9708220  96.4026524  53.2461884  27.0007327 102.6821484  48.9342053
  26.3716189 102.8467198  48.2318120  26.6132989 103.0963093  49.7053017
  30.8796559 103.6175922  46.2886416  30.1947597 103.9974823  45.7383450
  30.9640408 104.2271248  47.0218364  26.1809028  94.7197268  54.2104494
  25.9369960  95.4739329  53.6738770  26.4568958  95.0982616  55.0451741
  28.1347491 101.2635881  52.8881760  28.3464386 101.9067641  52.2116141
  28.0877239 100.4298197  52.4203690  25.7373719  93.8753701  49.7918332
  24.8758199  94.1734955  50.0835070  25.7636154  94.0924100  48.8599365
  22.5535289 102.4195892  46.1992138  23.0173634 102.6983595  45.4096760
  22.2892087 101.5179336  46.0165228  19.4459370 101.9667373  49.1371901
  20.0160727 102.3954642  48.4989385  20.0367482 101.6849958  49.8356087
  21.4904175  98.5419044  43.0081703  22.1928218  98.9940088  43.4755629
  21.1584803  97.9002863  43.6361596  19.9384536  97.1330801  57.3832912
  19.3083197  97.8147082  57.6168309  19.8320624  97.0213882  56.4386050
  15.2329509  96.8002597  48.3098836  14.4428563  97.0560125  47.8338947
  15.7240756  97.6150935  48.4150877  29.2493318 104.1407836  51.0604117
  30.0710762 103.7388023  50.7786799  29.2455721 104.0376070  52.0120233
  17.1844254  97.1647176  45.2682313  16.3875418  97.2765870  45.7865809
  16.9569846  97.5033828  44.4023204  23.0149922 103.6891879  53.2164828
  23.0794354 104.1512287  54.0523000  22.3060846 103.0589244  53.3447138
  13.5167212  97.0533087  50.7413827  13.7675250  97.9380097  51.0071403
  14.0526760  96.8737689  49.9688919  37.3399312 100.4846585  47.4089089
  36.5863020  99.9153983  47.2533093  37.4746853 100.4509249  48.3559723
  22.7297940 105.3559987  43.0843808  22.5943614 106.2011523  43.5128656
  23.2707752 105.5579265  42.3209742  19.2165279  91.4351567  59.7458163
  18.8232225  90.8817765  60.4205807  20.0331420  91.7462145  60.1364681
  16.1827337 102.8735425  43.6571733  16.6951858 103.6678675  43.8077298
  16.8350050 102.1761715  43.5905335  17.9922222 105.9901181  45.7394486
  18.1688850 106.9119146  45.5515470  18.7879055 105.6759600  46.1688866
  22.1333240  92.8509446  57.3378420  22.8742954  93.4516599  57.2582882
  22.3651163  92.1087084  56.7796462  17.2774578  98.0365813  55.6156649
  17.1628093  97.1351070  55.9163748  16.4219096  98.2829510  55.2641466
  24.3566416 105.9783553  57.2144150  23.9130270 105.1919932  56.8965055
  25.0183630 106.1662704  56.5488041  19.1153537 107.5079355  51.7404829
  19.6660962 107.3796418  50.9681823  18.2765013 107.8074244  51.3899721
  26.4547654 106.2586353  55.2425551  26.4366129 107.0795234  54.7505821
  27.3767574 106.1340429  55.4675693  22.9120708 103.7730483  56.0849060
  23.4449045 103.0118771  55.8548368  22.3834789 103.4804135  56.8273214
  26.0790403  88.8790549  51.6142701  25.7354673  89.7692190  51.5381812
  26.4469366  88.6892206  50.7512286  14.1476254 101.2024079  44.4331304
  14.9851476 101.6121088  44.2165011  14.3254521 100.2623521  44.4031498
  26.0440686  98.8699160  40.1215137  25.5287309  99.6403764  40.3603524
  25.7717994  98.1964296  40.7448198  23.6287797  93.7148861  45.1800375
  22.7729393  93.3255711  45.0006014  24.0414749  93.7940821  44.3200160
  25.1586944  91.2495204  49.5791935  24.6551739  91.2125339  48.7659740
  25.4517550  92.1587947  49.6388591  21.4029829  91.3333934  48.5858116
  22.2682826  91.1376742  48.2264006  21.4707338  91.1044285  49.5127473
  31.0174960 101.6231515  42.0568310  30.2404403 101.2842674  41.6123472
  31.6966441 101.6284138  41.3823275  25.8326989  96.7426252  41.9474918
  25.5277125  97.0572401  42.7985061  26.7857431  96.8207672  41.9902251
  24.2773421 102.9016475  43.5967872  23.7494782 102.1669235  43.2841109
  23.7760924 103.6791152  43.3507840  29.2566267 101.0965496  48.7134918
  28.5989941 101.7864757  48.8015047  30.0606666 101.4861928  49.0568904
  19.0092148  93.5636142  45.9574483  19.5835900  93.3411323  45.2247676
  19.5963131  93.6324836  46.7103085  28.0671726  99.4509868  46.7638860
  28.5803607 100.0839860  47.2660570  28.7172950  98.8511064  46.3982220
  19.3361736  95.5940603  39.9770369  18.4999048  95.9315289  40.2979643
  19.1966505  95.4589582  39.0397505  21.3114816  90.4377390  44.6849553
  20.6579229  90.1226408  44.0606167  21.2695290  89.8153131  45.4109376
  22.4226021 100.7196686  36.6002845  21.5153083 100.4885939  36.7993994
  22.9197053  99.9234305  36.7876826  25.3294100 109.4294193  39.5199531
  24.6555799 109.7325889  40.1284489  25.7159922 110.2323273  39.1704988
  24.5452557  96.9259324  49.0097200  23.6275118  97.1474271  48.8518888
  24.9612700  97.0005634  48.1508908  25.3287604  98.3250740  44.1399881
  26.0759423  98.8372137  43.8307003  25.5979194  98.0034792  45.0004274
  23.6014254 100.8209280  41.1226835  22.6925474 100.5368313  41.2199305
  23.6309338 101.2408359  40.2630142  28.8333522 104.4315870  44.8918002
  28.3795849 103.5906780  44.9483193  28.2027489 105.0677268  45.2292783
  27.7766441  95.3607856  46.1218670  27.0389198  94.8485242  46.4528912
  28.0293215  94.9208238  45.3101947  27.2766461 106.2692367  45.8267821
  27.5689436 106.8297424  45.1080186  27.7865082 106.5620928  46.5820980
  27.8778069  88.1384108  46.7160439  28.1836946  87.2781471  46.4286354
  28.6030674  88.7301728  46.5159433  14.1702425  98.5414795  45.1042037
  13.9726825  97.9484155  44.3793104  13.6149089  98.2367005  45.8217976
  22.1499149  98.4337901  47.2236630  22.2047758  97.4811737  47.1479107
  21.3390351  98.5897340  47.7077929  23.2990342 102.3618024  38.4614913
  22.8609772 101.6453883  38.0020551  24.0400783 102.5894139  37.9000005
  20.0891508  97.0514961  44.9827009  19.2759374  97.3509131  45.3892201
  20.5850503  96.6570650  45.7001491  22.2400086 107.0472718  46.9161274
  22.1976265 107.2733564  45.9869806  23.1562785 106.8136092  47.0647075
  25.6865720  97.5156785  53.8141903  26.0415108  97.7428258  54.6736369
  26.3337851  97.8475162  53.1919158  31.4163457 100.6375221  44.5191232
  31.2781356 100.8276817  43.5912421  31.0599676 101.3994604  44.9759283
  19.5805583  94.6233316  50.5988244  20.2204963  94.4822075  49.9011207
  18.7483114  94.3367830  50.2226846  31.4432837 102.7051748  49.5302504
  31.8769343 102.6127037  50.3785558  32.1564417 102.6809249  48.8922520
  20.3565887 103.9235747  46.7123236  21.1506486 103.4286067  46.5105811
  19.6457579 103.3953610  46.3490942  25.1760732 106.3053842  51.0635604
  25.2297754 106.8744779  51.8313320  24.3075513 106.4755727  50.6989641
  16.6648651  98.0678828  42.7882989  15.7346239  98.0063284  43.0052951
  16.7606123  97.5454781  41.9919630  16.5834200  94.5933641  45.3761231
  16.8441017  95.5078975  45.2670391  17.4051372  94.1258084  45.5257844
  18.0559125  96.0071398  52.5460055  18.7282178  95.7988761  51.8972704
  17.2288911  95.8093484  52.1065288  32.3048386 102.7475449  52.0635389
  32.4984276 103.6521259  52.3094664  32.2049004 102.2882868  52.8973974
  23.9584697  92.6333339  54.5625716  23.3112612  93.3323289  54.4690193
  24.7285712  93.0669483  54.9301964  27.3663495 102.8982192  57.6376270
  27.2149001 102.6692743  56.7206353  27.3568174 103.8552793  57.6507615
  24.1348831 100.4714104  52.6222536  25.0640891 100.6225264  52.4491503
  23.7139861 100.5598125  51.7671182  22.9337163 104.4964769  50.3921074
  22.7948249 104.1283553  51.2647012  22.1451759 105.0112408  50.2205031
  23.5285315 109.5973865  41.7346610  23.7037071 109.1261908  42.5492233
  22.8418103 110.2239631  41.9627871  24.4842378 103.8746371  47.7809911
  24.1492211 103.8347141  48.6767561  23.9846324 103.2091087  47.3080322
  18.4586622  99.2814001  53.3062493  18.3206420  98.5494240  53.9074032
  19.3691546  99.1922902  53.0246680  27.4201570 101.2202406  38.0546971
  26.8030741 100.4949234  37.9580024  26.9518058 101.9811766  37.7114045
  21.0868923  98.9933961  52.7946172  21.7968541  98.3527153  52.7532791
  21.0438231  99.2446856  53.7172353  29.0755702 105.9301314  55.7152751
  29.0168248 105.2460534  55.0483334  29.4775220 106.6720304  55.2633377
  19.7997857  95.9799179  54.6141812  19.2635214  95.5289917  55.2663408
  19.2114565  96.1145087  53.8712276  19.2100116  95.4387830  37.1768275
  18.3329582  95.3176631  36.8130522  19.6857869  94.6473908  36.9247164
  29.0773109 103.8940898  53.9466731  28.1899888 103.5566820  54.0693130
  29.6471660 103.1623929  54.1835496  10.7302256 100.2264990  47.2709782
  11.4173296  99.9126720  46.6830798  10.5750385 101.1306354  46.9977034
  15.5336978  95.1155186  51.6994806  15.4495167  94.5080856  50.9645216
  14.7119684  95.6064205  51.7004302  22.6074262 108.5542350  50.9127974
  22.5344434 109.3597322  51.4247279  22.1651655 108.7534316  50.0875996
  22.3964042 107.7914120  44.4230796  21.6131564 108.3335801  44.5169020
  23.0956787 108.3088100  44.8225037  25.7060692  93.6008750  47.0665001
  26.2029391  92.8478712  46.7466071  24.9347673  93.6373066  46.5008211
  33.5590449  99.3049115  48.7083293  33.5480326 100.1873831  48.3377226
  32.6907829  98.9520666  48.5137830  25.0672946 108.4529184  53.0686133
  25.7800918 109.0876649  52.9962034  24.5762974 108.5493050  52.2526135
  26.7890473 102.3580437  44.6403425  25.8546751 102.4781900  44.4708129
  26.9667141 101.4552904  44.3763434  22.2895661  95.7426133  46.7936686
  21.9193448  95.1897173  47.4817591  22.7854753  95.1384266  46.2411686
  30.1763024  98.1997756  45.1753459  30.6423476  99.0325748  45.1013761
  30.6270524  97.7342738  45.8798717  20.1184859 106.2023628  53.8891704
  20.8194319 106.8360111  54.0421098  19.6479974 106.5438359  53.1287343
  28.2439255 104.5441578  42.1739611  28.5199099 104.4298172  43.0833485
  27.3743754 104.1459062  42.1351784  28.1479687  90.5678343  49.2144360
  27.2342767  90.7982570  49.3826567  28.5772788  90.6516787  50.0658392
  27.9186145  98.7568235  51.7144254  27.2657595  99.0044143  51.0596707
  28.2966525  97.9432373  51.3806731  24.8793319 108.7927928  45.8172424
  25.0615714 107.9749584  46.2800177  25.7026305 109.0095621  45.3797314
  25.2135485 107.7196114  43.0787473  25.7423251 107.2088568  42.4657635
  25.4763704 107.4038644  43.9433006  23.9673718  99.4988046  58.2010291
  23.2914355  99.3982176  58.8712666  24.7901352  99.3427260  58.6646288
  15.7152577 105.7359983  50.8222806  16.3006014 104.9903671  50.9550711
  15.5177416 106.0463940  51.7059470  18.5691233 108.7711230  45.8385249
  17.9001608 109.2557358  45.3549289  18.4304102 109.0180451  46.7528627
  10.3070232  98.3065583  49.5427250  10.3454332  97.7729174  50.3364368
   9.8010525  97.7800789  48.9238227  22.7096501 110.8054974  52.4367907
  23.2614809 110.9686595  53.2016992  23.0502695 111.3959412  51.7647932
  17.6860994  93.1530124  53.0389792  17.7502321  94.0144955  52.6267190
  17.6228115  92.5404125  52.3062150  17.1613267  95.2253256  56.6862826
  17.7885306  94.8430333  57.3000350  16.3041186  95.0067458  57.0518519
  27.5607375 105.6316231  58.2916562  28.1047279 106.2446190  57.7971516
  26.9794220 106.1895810  58.8083575  13.9378810  97.0329685  42.6181181
  14.2332251  96.1240364  42.5648235  13.0366845  97.0117425  42.2962183
  25.8464888 108.7536949  49.4231589  25.7216028 107.9526689  48.9142535
  26.5043980 109.2483143  48.9345559  17.4673057  95.1085682  48.6008730
  16.7459642  95.7221650  48.4616203  18.2566312  95.6443447  48.5225376
  27.9099797 106.5545969  51.0511139  26.9630132 106.4351321  50.9789466
  28.2582570 105.6668467  51.1337401  20.2699370  92.4440108  54.8749381
  20.7933772  92.6902405  55.6375691  20.0511703  93.2760143  54.4552519
  15.6666651  94.7143783  42.7420506  15.3379357  93.8341162  42.5595612
  16.0206022  94.6591452  43.6296895  24.9146230 106.3498686  47.2515492
  24.7671193 105.4215393  47.4323062  25.7399724 106.3718776  46.7672567
  18.7808474  95.0016753  43.1095984  19.1204547  95.5302674  42.3874592
  19.2280595  95.3397159  43.8854550  28.5180352 107.1727244  48.3380364
  29.4426899 106.9670106  48.2004816  28.3495655 106.9243646  49.2469706
  21.4751915  93.3853803  52.5599052  21.1348736  92.5861616  52.9619732
  20.7690921  93.6855514  51.9875885  22.1268387  90.4703116  51.0126375
  22.9494456  89.9963594  50.8905265  22.3706451  91.2493600  51.5125061
  20.7676622  93.4991374  41.3089277  21.4884984  93.8772627  40.8052993
  20.1441926  94.2180251  41.4124255  24.9107744  94.2036523  42.2447609
  25.1271359  95.0861161  41.9436437  24.4301812  93.8122737  41.5153251
  19.6506966  97.1622237  48.8218353  19.5051547  97.4762540  49.7142635
  19.1732169  97.7807137  48.2689252  21.5103349  94.1524784  48.8699243
  21.4964917  93.2565878  48.5331541  22.2275777  94.1595448  49.5037529
  23.3629479  94.5862125  50.9152370  23.1047257  95.5079195  50.9136701
  22.8314520  94.1892559  51.6052835  28.3075668 107.6912912  43.6942456
  28.4812546 107.1259334  42.9416308  28.8004559 108.4913807  43.5121946
  14.1252628  99.7027581  51.7606015  13.5806096 100.4787389  51.8926289
  15.0031978 100.0498385  51.6025136  20.9140245  93.0339165  44.1386813
  21.0356156  92.1055811  44.3377701  20.6242287  93.0477851  43.2265129
  23.7831435  90.7194075  47.2753533  23.8053132  90.7833408  46.3205513
  24.1999494  89.8798584  47.4694039  34.1615059 100.4549335  45.3132756
  34.6046205  99.7056660  44.9151879  33.2841570 100.4459471  44.9306488
  29.2950841 107.0079676  40.7939354  29.9901745 107.6286369  41.0126669
  29.6373991 106.1575027  41.0691732  14.9118650  98.8297477  54.6536172
  14.1700386  98.9780113  55.2400802  14.5911394  99.0905743  53.7902921
  31.1942264 104.4579382  42.3226685  31.7193588 104.7966655  41.5976005
  31.1064616 103.5226397  42.1389820  22.8562312 108.3713455  54.4516562
  23.1649439 108.1262602  55.3239261  23.6537794 108.5760094  53.9635432
  22.8782925 110.5251365  46.6821938  22.4387915 110.0327744  47.3754795
  23.6291041 109.9824333  46.4414013  15.3575263 106.7162906  46.6846566
  16.1833283 106.4166678  46.3045210  15.0069315 105.9470528  47.1336355
  20.3256797 106.0689374  48.7544240  19.7036806 105.4060079  48.4546468
  20.9961664 106.0950506  48.0717888  13.5583869 104.6349232  47.6435500
  12.7215777 104.2071407  47.4619501  13.5307514 104.8281676  48.5806291
  20.3981324  94.5471162  58.3476746  20.4469480  95.4233285  57.9654515
  20.9403838  94.0048555  57.7748389  30.8836170 105.0912285  57.6277883
  30.0931714 105.0736424  57.0882382  30.6469524 105.6300579  58.3826919
  31.0034045 101.9404752  54.9410611  31.0532050 101.7754759  55.8826134
  30.8947968 101.0732011  54.5508492  19.8870304 104.6193297  42.2302700
  20.0358424 105.3028762  41.5769373  20.6936747 104.5998388  42.7452156
  28.2937807  97.9235680  56.2569918  29.1947670  97.7842145  55.9653916
  28.3685782  98.0890135  57.1968096  22.6280613  95.3002535  55.1023104
  21.7583922  95.5936101  54.8305693  22.8640093  95.8842980  55.8230368
  32.5052242 104.3601693  55.1852633  32.2137050 104.7231674  56.0216094
  31.8924373 103.6468702  55.0065965  33.7047924 101.9254573  47.7055203
  34.5394815 102.3644377  47.8692764  33.8407053 101.4493226  46.8863449
  30.7539430  99.4834308  53.6532691  31.2293552  99.6761954  52.8451542
  29.8304995  99.5393494  53.4076075  17.6422937 100.6458475  43.2363769
  17.3968978  99.7420805  43.4343979  17.8118851 100.6475626  42.2943247
  25.3319646  91.5182151  52.6188525  25.8501590  92.2543178  52.2935013
  24.9774779  91.8246145  53.4535284  16.9118584  96.3786833  40.7349931
  16.2187829  96.4531188  40.0789967  16.6670336  95.6147176  41.2571448
  25.5832241  87.9382434  48.1389421  25.8633994  87.2705623  48.7649848
  26.3682848  88.1311530  47.6264085  23.3865709 107.1141428  39.7014448
  22.8139676 107.7331615  39.2484920  23.9598503 107.6640790  40.2354370
  29.4541099  96.3600068  51.8860997  30.4058522  96.4598166  51.9073221
  29.2844549  95.5678337  52.3959081  27.4755478  93.4455651  52.0720397
  26.8805411  93.7260664  51.3766886  27.1905175  93.9349552  52.8437139
  26.6062969 107.3978578  40.8323030  27.5393642 107.3324140  41.0355906
  26.5186182 108.2334845  40.3737563  29.2350986 106.7144448  37.7926978
  29.1564617 106.3804312  38.6862735  30.0560652 107.2066216  37.7918450
  31.9329177  99.5806188  51.0003296  31.9005497  98.6422188  51.1862980
  32.5429800  99.6590224  50.2669121  23.7712508  98.4502241  37.0430500
  24.7171612  98.3208449  37.1118918  23.3926753  97.7116903  37.5199928
  32.0823665  96.3717231  51.0461579  31.5662714  95.5875688  50.8591508
  32.9663614  96.0435948  51.2108099  29.7434392  90.1158247  47.0057392
  29.5459213  89.8073335  47.8900724  30.3534098  90.8419886  47.1355322
  37.7505727 100.6422195  50.1409333  38.4809115 100.3807483  50.7017036
  37.1412672  99.9050916  50.1811401  35.8321024  98.7830057  50.7383784
  35.1054187  98.6486022  50.1300276  35.4168311  99.0906886  51.5440502
  23.6551200 102.5019987  58.5031157  24.5754210 102.6798586  58.6971204
  23.6200783 101.5576032  58.3510856  21.9555425  96.3752217  36.9785385
  21.0486880  96.0785330  37.0548099  22.2331406  96.0782035  36.1119672
  12.8733365  97.6958580  47.4284432  12.5536149  96.8423889  47.1358806
  12.3266793  97.9107159  48.1842399  16.6513273 100.4121021  51.1453938
  16.8699282 101.3438129  51.1641972  17.0639047 100.0528996  51.9308742
  23.5717490  90.9189107  43.1329627  22.7618219  90.5736192  43.5084873
  24.2601907  90.6096650  43.7217238  25.5008039  89.9967154  44.7553923
  26.0539077  90.4162607  45.4143946  25.7378125  89.0702902  44.7976879
  21.5241138  95.9854227  60.5356687  21.4237865  96.9348584  60.4668778
  21.3062680  95.6572466  59.6632757  20.7254209  93.2339152  37.1197365
  21.5873373  93.5594051  37.3793182  20.9104554  92.4470648  36.6070430
  12.7421625 101.3161492  49.3977553  12.0485097 100.9015445  48.8847508
  13.4894616 101.3582028  48.8010972  28.8786846  92.1067679  44.2632588
  28.2985515  92.7652483  43.8810640  28.6122779  91.2845023  43.8520005
  27.3290412  91.5072736  46.4653908  27.8290191  91.6189271  45.6568227
  27.9726020  91.2033789  47.1054716  21.3872408  99.4151366  59.3521749
  20.9039490 100.2151726  59.5585638  21.4733347  99.4259311  58.3989193
  14.6558368 101.2479746  47.2743568  14.6329056 101.3467433  46.3225451
  14.9659004 102.0944897  47.5960734  17.3145746 103.3055901  51.3890183
  18.2688999 103.2739843  51.3220114  17.1158269 102.8446524  52.2040409
  17.9045128 101.8757017  53.9560980  18.7238017 102.3701095  53.9795818
  18.1781935 100.9588985  53.9278548  27.6611724  94.2667769  43.3188936
  26.7737579  94.5517420  43.1009131  28.0765713  94.1061532  42.4716213
  31.0126260  94.2914290  47.0343275  31.7886650  94.7810743  47.3067892
  30.2874394  94.7172344  47.4915145  33.4498819  95.0041909  48.0917216
  34.0443309  94.7637645  47.3810524  33.5225402  94.2849040  48.7190752
  15.6695974 108.8475520  48.4060381  15.5350442 108.0875921  47.8398379
  15.2528037 109.5716420  47.9389169  26.8054937 104.0312444  37.4136956
  27.5090787 104.2362446  38.0294611  26.0817586 104.5989206  37.6786039
  27.6352748  99.7822305  43.5339226  27.5787949 100.2390856  42.6946858
  28.1881090  99.0212990  43.3562069  31.4457554  95.5712037  44.3589346
  31.1894488  95.1708673  45.1897553  30.8210422  96.2855831  44.2339485
  35.7569891  98.3108110  46.8660637  35.1969449  98.3801299  47.6392199
  35.1513395  98.1349095  46.1460133  18.8265100 109.7444837  48.6178823
  18.7097484 110.6890270  48.5157514  18.0057546 109.4418399  49.0064622
  28.7141635 104.4694973  39.4635416  29.5487239 104.0376171  39.2812891
  28.5525978 104.2976987  40.3912310  28.3687527 100.9727086  40.8291755
  28.3136331 100.8071358  39.8880199  27.7433582 101.6803119  40.9853945
  13.1580042  96.2095151  54.6553177  13.8038906  95.6994105  55.1440403
  12.9497193  96.9463832  55.2296603  25.6833434 103.2775998  60.1545318
  26.5524594 103.4516650  59.7931953  25.2040186 104.0970415  60.0321047
  21.6783652  90.4735195  40.4077074  21.6662322  91.4177035  40.5645345
  22.5707074  90.2905341  40.1136535  19.8519614 110.3973099  51.8334752
  20.7546861 110.4296709  52.1501247  19.6256984 109.4673550  51.8481087
  21.6073216 109.1504086  48.4944830  20.6568847 109.1505947  48.3809203
  21.9105702 108.4036820  47.9780865  25.4935772  87.0677972  44.6623010
  24.7268168  86.5136459  44.8079693  25.9046477  87.1399841  45.5237162
  17.4977533  93.3562768  58.7528192  18.3608994  92.9999573  58.9631516
  16.9242944  93.0176663  59.4403596  37.3425910 114.9864624  49.5590593
  37.9804320 114.8671371  48.8553933  37.2246753 115.9345468  49.6178545
  34.1515616 114.9392052  49.4952117  33.8134128 114.8233117  48.6072652
  35.0205384 114.5383217  49.4753124  34.6335399 116.0926904  55.4538323
  34.6224040 115.6979702  54.5818827  34.7956039 115.3592977  56.0472094
  31.8523896 113.7080300  38.8269057  32.1049416 113.1861821  38.0652521
  30.9148455 113.5446445  38.9295741  36.8967178 112.7116078  46.6343801
  37.6830268 112.2935501  46.2834218  37.1605883 113.6162170  46.8025449
  42.2975605 112.6491311  47.5376779  43.0300777 112.0790528  47.7714609
  41.5414961 112.2612912  47.9783285  33.9151725 115.0718553  44.7340122
  33.5509932 114.5449174  45.4453043  34.7718841 114.6817022  44.5606607
  39.8201026 106.3612885  51.9971388  39.4884351 107.2308296  51.7732603
  39.2246639 106.0449169  52.6765418  33.5557212 110.1008452  39.7301470
  33.7231615 110.9688689  40.0971941  33.3654381 110.2635734  38.8062759
  39.7129689 111.0807971  49.0764738  38.8046566 111.0123380  48.7823499
  39.6617285 111.5579916  49.9046563  33.5346433 112.5566110  40.7148137
  33.4146058 113.0023161  41.5533617  32.8399021 112.9051428  40.1561675
  33.7870555 112.4997617  57.0199635  33.0103889 113.0591537  57.0102500
  34.4261118 112.9854400  57.5414505  41.5791336 109.2824410  50.8542612
  40.9365716 109.5756943  50.2082406  41.0746264 109.1677330  51.6595808
  39.2331499 113.0287583  41.5428471  40.1449355 113.2614970  41.3676169
  38.7241146 113.6124627  40.9803550  37.5172267 117.4512211  55.1789764
  37.9255623 117.0094621  54.4344396  36.7949528 116.8764838  55.4323957
  33.8703337 112.3884818  52.5523321  34.7164532 112.8124231  52.6957970
  33.8101975 111.7318442  53.2461884  37.0202782 110.0489186  54.2104494
  36.7763714 110.8031246  53.6738770  37.2962713 110.4274534  55.0451741
  38.9741245 116.5927798  52.8881760  39.1858140 117.2359558  52.2116141
  38.9270993 115.7590115  52.4203690  36.5767474 109.2045619  49.7918332
  35.7151953 109.5026873  50.0835070  36.6029909 109.4216018  48.8599365
  32.3297929 113.8710962  43.0081703  33.0321973 114.3232006  43.4755629
  31.9978558 113.2294781  43.6361596  30.7778291 112.4622719  57.3832912
  30.1476952 113.1438999  57.6168309  30.6714379 112.3505800  56.4386050
  26.0723263 112.1294515  48.3098836  25.2822317 112.3852043  47.8338947
  26.5634511 112.9442852  48.4150877  28.0238009 112.4939094  45.2682313
  27.2269172 112.6057788  45.7865809  27.7963601 112.8325746  44.4023204
  48.1793066 115.8138502  47.4089089  47.4256774 115.2445900  47.2533093
  48.3140607 115.7801167  48.3559723  30.0559034 106.7643484  59.7458163
  29.6625979 106.2109683  60.4205807  30.8725174 107.0754063  60.1364681
  32.9726995 108.1801363  57.3378420  33.7136708 108.7808517  57.2582882
  33.2044918 107.4379001  56.7796462  28.1168333 113.3657731  55.6156649
  28.0021848 112.4642988  55.9163748  27.2612850 113.6121428  55.2641466
  36.9184158 104.2082466  51.6142701  36.5748427 105.0984108  51.5381812
  37.2863120 104.0184124  50.7512286  36.8834440 114.1991078  40.1215137
  36.3681064 114.9695682  40.3603524  36.6111749 113.5256214  40.7448198
  34.4681551 109.0440778  45.1800375  33.6123148 108.6547629  45.0006014
  34.8808503 109.1232739  44.3200160  35.9980698 106.5787122  49.5791935
  35.4945494 106.5417257  48.7659740  36.2911305 107.4879864  49.6388591
  32.2423584 106.6625851  48.5858116  33.1076581 106.4668660  48.2264006
  32.3101093 106.4336203  49.5127473  41.8568714 116.9523432  42.0568310
  41.0798157 116.6134592  41.6123472  42.5360195 116.9576055  41.3823275
  36.6720744 112.0718170  41.9474918  36.3670879 112.3864319  42.7985061
  37.6251186 112.1499590  41.9902251  40.0960021 116.4257413  48.7134918
  39.4383696 117.1156675  48.8015047  40.9000421 116.8153845  49.0568904
  29.8485903 108.8928059  45.9574483  30.4229655 108.6703241  45.2247676
  30.4356885 108.9616754  46.7103085  38.9065480 114.7801786  46.7638860
  39.4197362 115.4131778  47.2660570  39.5566704 114.1802982  46.3982220
  30.1755490 110.9232520  39.9770369  29.3392802 111.2607207  40.2979643
  30.0360260 110.7881500  39.0397505  32.1508571 105.7669308  44.6849553
  31.4972983 105.4518325  44.0606167  32.1089045 105.1445049  45.4109376
  33.2619776 116.0488603  36.6002845  32.3546837 115.8177857  36.7993994
  33.7590808 115.2526222  36.7876826  35.3846311 112.2551242  49.0097200
  34.4668872 112.4766189  48.8518888  35.8006455 112.3297552  48.1508908
  36.1681359 113.6542657  44.1399881  36.9153178 114.1664055  43.8307003
  36.4372948 113.3326710  45.0004274  34.4408009 116.1501198  41.1226835
  33.5319228 115.8660231  41.2199305  34.4703093 116.5700277  40.2630142
  38.6160196 110.6899774  46.1218670  37.8782953 110.1777160  46.4528912
  38.8686969 110.2500155  45.3101947  38.7171823 103.4676026  46.7160439
  39.0230700 102.6073389  46.4286354  39.4424428 104.0593646  46.5159433
  32.9892903 113.7629819  47.2236630  33.0441513 112.8103655  47.1479107
  32.1784105 113.9189258  47.7077929  30.9285263 112.3806878  44.9827009
  30.1153128 112.6801049  45.3892201  31.4244257 111.9862567  45.7001491
  36.5259475 112.8448703  53.8141903  36.8808862 113.0720176  54.6736369
  37.1731606 113.1767080  53.1919158  42.2557212 115.9667139  44.5191232
  42.1175110 116.1568735  43.5912421  41.8993430 116.7286522  44.9759283
  30.4199338 109.9525234  50.5988244  31.0598717 109.8113993  49.9011207
  29.5876868 109.6659747  50.2226846  42.2826591 118.0343666  49.5302504
  42.7163098 117.9418955  50.3785558  42.9958172 118.0101166  48.8922520
  27.5042405 113.3970746  42.7882989  26.5739993 113.3355202  43.0052951
  27.5999877 112.8746699  41.9919630  27.4227954 109.9225559  45.3761231
  27.6834771 110.8370892  45.2670391  28.2445126 109.4550001  45.5257844
  28.8952879 111.3363316  52.5460055  29.5675933 111.1280678  51.8972704
  28.0682666 111.1385402  52.1065288  43.1442141 118.0767366  52.0635389
  43.3378031 118.9813177  52.3094664  43.0442759 117.6174786  52.8973974
  34.7978451 107.9625257  54.5625716  34.1506366 108.6615207  54.4690193
  35.5679467 108.3961401  54.9301964  34.9742586 115.8006022  52.6222536
  35.9034646 115.9517182  52.4491503  34.5533616 115.8890043  51.7671182
  29.2980377 114.6105919  53.3062493  29.1600175 113.8786158  53.9074032
  30.2085300 114.5214819  53.0246680  38.2595324 116.5494323  38.0546971
  37.6424495 115.8241152  37.9580024  37.7911813 117.3103684  37.7114045
  31.9262677 114.3225878  52.7946172  32.6362296 113.6819071  52.7532791
  31.8831986 114.5738773  53.7172353  30.6391611 111.3091096  54.6141812
  30.1028968 110.8581835  55.2663408  30.0508320 111.4437005  53.8712276
  30.0493870 110.7679748  37.1768275  29.1723337 110.6468548  36.8130522
  30.5251623 109.9765826  36.9247164  26.3730733 110.4447104  51.6994806
  26.2888921 109.8372774  50.9645216  25.5513439 110.9356122  51.7004302
  36.5454446 108.9300668  47.0665001  37.0423146 108.1770630  46.7466071
  35.7741428 108.9664984  46.5008211  44.3984204 114.6341033  48.7083293
  44.3874080 115.5165748  48.3377226  43.5301583 114.2812584  48.5137830
  33.1289415 111.0718051  46.7936686  32.7587203 110.5189091  47.4817591
  33.6248508 110.4676184  46.2411686  41.0156778 113.5289674  45.1753459
  41.4817231 114.3617666  45.1013761  41.4664279 113.0634656  45.8798717
  38.9873441 105.8970261  49.2144360  38.0736521 106.1274488  49.3826567
  39.4166543 105.9808705  50.0658392  38.7579900 114.0860153  51.7144254
  38.1051350 114.3336060  51.0596707  39.1360280 113.2724291  51.3806731
  34.8067473 114.8279964  58.2010291  34.1308110 114.7274093  58.8712666
  35.6295107 114.6719178  58.6646288  28.5254749 108.4822041  53.0389792
  28.5896075 109.3436872  52.6267190  28.4621869 107.8696043  52.3062150
  28.0007021 110.5545174  56.6862826  28.6279060 110.1722251  57.3000350
  27.1434940 110.3359376  57.0518519  24.7772564 112.3621603  42.6181181
  25.0726005 111.4532281  42.5648235  23.8760600 112.3409342  42.2962183
  28.3066811 110.4377600  48.6008730  27.5853397 111.0513567  48.4616203
  29.0960067 110.9735364  48.5225376  31.1093125 107.7732026  54.8749381
  31.6327526 108.0194323  55.6375691  30.8905458 108.6052061  54.4552519
  26.5060406 110.0435701  42.7420506  26.1773112 109.1633080  42.5595612
  26.8599776 109.9883369  43.6296895  29.6202229 110.3308670  43.1095984
  29.9598301 110.8594592  42.3874592  30.0674349 110.6689077  43.8854550
  32.3145670 108.7145721  52.5599052  31.9742490 107.9153534  52.9619732
  31.6084676 109.0147432  51.9875885  32.9662142 105.7995034  51.0126375
  33.7888211 105.3255512  50.8905265  33.2100205 106.5785517  51.5125061
  31.6070376 108.8283292  41.3089277  32.3278739 109.2064545  40.8052993
  30.9835680 109.5472169  41.4124255  35.7501499 109.5328441  42.2447609
  35.9665113 110.4153079  41.9436437  35.2695566 109.1414654  41.5153251
  30.4900720 112.4914154  48.8218353  30.3445301 112.8054457  49.7142635
  30.0125924 113.1099055  48.2689252  32.3497103 109.4816702  48.8699243
  32.3358672 108.5857795  48.5331541  33.0669531 109.4887366  49.5037529
  34.2023234 109.9154042  50.9152370  33.9441012 110.8371113  50.9136701
  33.6708274 109.5184477  51.6052835  31.7533999 108.3631082  44.1386813
  31.8749910 107.4347729  44.3377701  31.4636041 108.3769768  43.2265129
  34.6225189 106.0485993  47.2753533  34.6446886 106.1125326  46.3205513
  35.0393249 105.2090502  47.4694039  45.0008814 115.7841252  45.3132756
  45.4439960 115.0348578  44.9151879  44.1235324 115.7751389  44.9306488
  31.2375079 109.8763080  58.3476746  31.2863234 110.7525203  57.9654515
  31.7797593 109.3340473  57.7748389  41.8427799 117.2696669  54.9410611
  41.8925804 117.1046677  55.8826134  41.7341723 116.4023928  54.5508492
  39.1331562 113.2527597  56.2569918  40.0341425 113.1134062  55.9653916
  39.2079536 113.4182052  57.1968096  33.4674367 110.6294452  55.1023104
  32.5977676 110.9228018  54.8305693  33.7033847 111.2134897  55.8230368
  44.5441679 117.2546491  47.7055203  45.3788570 117.6936295  47.8692764
  44.6800807 116.7785144  46.8863449  41.5933184 114.8126226  53.6532691
  42.0687306 115.0053872  52.8451542  40.6698750 114.8685411  53.4076075
  36.1713401 106.8474069  52.6188525  36.6895345 107.5835096  52.2935013
  35.8168534 107.1538062  53.4535284  27.7512339 111.7078750  40.7349931
  27.0581584 111.7823105  40.0789967  27.5064090 110.9439094  41.2571448
  36.4225995 103.2674352  48.1389421  36.7027749 102.5997541  48.7649848
  37.2076602 103.4603447  47.6264085  40.2934853 111.6891986  51.8860997
  41.2452276 111.7890083  51.9073221  40.1238304 110.8970254  52.3959081
  38.3149233 108.7747569  52.0720397  37.7199165 109.0552582  51.3766886
  38.0298930 109.2641470  52.8437139  42.7722931 114.9098105  51.0003296
  42.7399251 113.9714106  51.1862980  43.3823555 114.9882142  50.2669121
  34.6106262 113.7794158  37.0430500  35.5565367 113.6500366  37.1118918
  34.2320507 113.0408820  37.5199928  42.9217420 111.7009149  51.0461579
  42.4056468 110.9167605  50.8591508  43.8057368 111.3727865  51.2108099
  40.5828147 105.4450164  47.0057392  40.3852968 105.1365253  47.8900724
  41.1927852 106.1711803  47.1355322  48.5899481 115.9714112  50.1409333
  49.3202870 115.7099400  50.7017036  47.9806427 115.2342834  50.1811401
  46.6714778 114.1121975  50.7383784  45.9447942 113.9777940  50.1300276
  46.2562065 114.4198803  51.5440502  32.7949179 111.7044135  36.9785385
  31.8880635 111.4077247  37.0548099  33.0725160 111.4073953  36.1119672
  34.4111245 106.2481024  43.1329627  33.6011973 105.9028109  43.5084873
  35.0995662 105.9388568  43.7217238  36.3401793 105.3259071  44.7553923
  36.8932832 105.7454525  45.4143946  36.5771880 104.3994819  44.7976879
  32.3634892 111.3146145  60.5356687  32.2631619 112.2640502  60.4668778
  32.1456435 110.9864384  59.6632757  31.5647964 108.5631070  37.1197365
  32.4267128 108.8885968  37.3793182  31.7498308 107.7762566  36.6070430
  39.7180600 107.4359596  44.2632588  39.1379269 108.0944400  43.8810640
  39.4516533 106.6136941  43.8520005  38.1684167 106.8364654  46.4653908
  38.6683945 106.9481189  45.6568227  38.8119775 106.5325707  47.1054716
  32.2266163 114.7443284  59.3521749  31.7433244 115.5443644  59.5585638
  32.3127102 114.7551229  58.3989193  38.5005478 109.5959687  43.3188936
  37.6131333 109.8809337  43.1009131  38.9159467 109.4353450  42.4716213
  41.8520015 109.6206208  47.0343275  42.6280405 110.1102660  47.3067892
  41.1268149 110.0464262  47.4915145  44.2892573 110.3333827  48.0917216
  44.8837064 110.0929563  47.3810524  44.3619157 109.6140958  48.7190752
  38.4746502 115.1114223  43.5339226  38.4181704 115.5682774  42.6946858
  39.0274845 114.3504907  43.3562069  42.2851308 110.9003955  44.3589346
  42.0288242 110.5000590  45.1897553  41.6604176 111.6147749  44.2339485
  46.5963646 113.6400028  46.8660637  46.0363204 113.7093217  47.6392199
  45.9907149 113.4641012  46.1460133  39.2081281 116.3019004  40.8291755
  39.1530085 116.1363275  39.8880199  38.5827337 117.0095037  40.9853945
  23.9973796 111.5387068  54.6553177  24.6432660 111.0286022  55.1440403
  23.7890948 112.2755750  55.2296603  32.5177407 105.8027113  40.4077074
  32.5056077 106.7468953  40.5645345  33.4100829 105.6197258  40.1136535
  36.3329526 102.3969890  44.6623010  35.5661922 101.8428376  44.8079693
  36.7440231 102.4691758  45.5237162  28.3371287 108.6854685  58.7528192
  29.2002749 108.3291490  58.9631516  27.7636698 108.3468580  59.4403596
  47.7577912 119.5374384  51.6142701  47.4142181 120.4276026  51.5381812
  48.1256875 119.3476042  50.7512286  49.5565578 118.7967943  46.7160439
  49.8624455 117.9365307  46.4286354  50.2818183 119.3885563  46.5159433
  49.8267196 121.2262179  49.2144360  48.9130276 121.4566406  49.3826567
  50.2560297 121.3100623  50.0658392  47.2619750 118.5966269  48.1389421
  47.5421503 117.9289458  48.7649848  48.0470357 118.7895365  47.6264085
  51.4221901 120.7742082  47.0057392  51.2246722 120.4657170  47.8900724
  52.0321607 121.5003721  47.1355322  47.1795548 120.6550989  44.7553923
  47.7326586 121.0746442  45.4143946  47.4165634 119.7286737  44.7976879
  47.1723281 117.7261807  44.6623010  46.4055677 117.1720294  44.8079693
  47.5833986 117.7983676  45.5237162   4.8218049  31.5032954  34.1334395
   4.0681758  30.9340352  33.9778400   4.9565591  31.4695619  35.0805030
   1.6433797  31.4735704  32.0378062   2.0864943  30.7243030  31.6397186
   0.7660307  31.4645841  31.6551794   1.1866662  32.9440943  34.4300510
   2.0213553  33.3830747  34.5938070   1.3225791  32.4679596  33.6108756
   5.2324464  31.6608564  36.8654640   5.9627853  31.3993852  37.4262343
   4.6231410  30.9237286  36.9056708   3.3139762  29.8016427  37.4629091
   2.5872925  29.6672392  36.8545582   2.8987048  30.1093255  38.2685809
   0.9317556  26.0228279  34.8162522   1.5262047  25.7824015  34.1055831
   1.0044140  25.3035409  35.4436059   3.2388629  29.3294480  33.5905944
   2.6788187  29.3987669  34.3637506   2.6332133  29.1535464  32.8705440
   4.8244648  46.0050994  36.2835899   5.4623058  45.8857741  35.5799239
   4.7065491  46.9531838  36.3423851   1.6334354  45.9578422  36.2197424
   1.2952865  45.8419486  35.3317959   2.5024122  45.5569587  36.1998430
   2.1154137  47.1113273  42.1783630   2.1042778  46.7166072  41.3064133
   2.2774776  46.3779346  42.7717401   3.0720728  51.4784866  27.5208780
   2.4208708  52.0638946  27.1342794   3.8665091  52.0091061  27.5803817
   4.3785916  43.7302447  33.3589107   5.1649005  43.3121871  33.0079524
   4.6424620  44.6348540  33.5270756   4.5495993  49.1675298  28.0577764
   3.9141826  49.2409924  28.7698669   4.2193400  49.7568897  27.3796843
   9.7794343  43.6677681  34.2622086  10.5119515  43.0976898  34.4959915
   9.0233699  43.2799281  34.7028591   1.3970463  46.0904922  31.4585428
   1.0328670  45.5635543  32.1698350   2.2537579  45.7003391  31.2851914
   7.3019764  37.3799255  38.7216694   6.9703088  38.2494666  38.4977909
   6.7065377  37.0635539  39.4010725   1.0375950  41.1194822  26.4546777
   1.2050352  41.9875058  26.8217248   0.8473119  41.2822104  25.5308066
   3.7951283  49.5811801  38.1212607   3.4952006  50.4836840  38.0128414
   3.4502343  49.3143984  38.9733760   7.1948427  42.0994341  35.8010045
   6.2865304  42.0309749  35.5068806   7.1436023  42.5766286  36.6291870
   1.2689293  43.5183987  43.7444942   0.4922627  44.0777907  43.7347806
   1.9079856  44.0040770  44.2659812   9.0610073  40.3010779  37.5787918
   8.4184454  40.5943313  36.9327713   8.5565002  40.1863700  38.3841115
   6.7150237  44.0473953  28.2673778   7.6268093  44.2801339  28.0921475
   6.2059884  44.6310997  27.7048856   4.9991005  48.4698580  41.9035070
   5.4074361  48.0280991  41.1589703   4.2768266  47.8951208  42.1569263
   1.3522075  43.4071187  39.2768627   2.1983270  43.8310601  39.4203276
   1.2920712  42.7504811  39.9707190   5.3219819  49.0299771  35.6587359
   4.6928682  49.1945485  34.9563427   4.9345481  49.4441381  36.4298323
   9.2009051  49.9654209  33.0131723   8.5160089  50.3453110  32.4628756
   9.2852900  50.5749536  33.7463671   4.5021520  41.0675556  40.9349801
   4.2582452  41.8217616  40.3984077   4.7781451  41.4460903  41.7697048
   6.4559983  47.6114168  39.6127066   6.6676878  48.2545928  38.9361448
   6.4089731  46.7776484  39.1448997   4.0586212  40.2231989  36.5163639
   3.1970691  40.5213242  36.8080376   4.0848646  40.4402387  35.5844671
   0.8747781  48.7674179  32.9237444   1.3386127  49.0461882  32.1342067
   0.6104579  47.8657624  32.7410535   7.5705811  50.4886123  37.7849424
   8.3923254  50.0866311  37.5032105   7.5668214  50.3854357  38.7365540
   1.3362414  50.0370167  39.9410134   1.4006847  50.4990574  40.7768306
   0.6273338  49.4067532  40.0692444  15.6611804  46.8324872  34.1334395
  14.9075512  46.2632270  33.9778400  15.7959345  46.7987536  35.0805030
   1.0510432  51.7038274  29.8089115   0.9156107  52.5489810  30.2373962
   1.5920244  51.9057552  29.0455048   2.6778908  52.3261841  43.9389457
   2.2342762  51.5398219  43.6210361   3.3396122  52.5140991  43.2733348
   4.7760146  52.6064641  41.9670858   4.7578622  53.4273522  41.4751127
   5.6980066  52.4818716  42.1920999   1.2333200  50.1208770  42.8094366
   1.7661537  49.3597058  42.5793674   0.7047282  49.8282422  43.5518521
   4.4002895  35.2268836  38.3388008   4.0567165  36.1170478  38.2627119
   4.7681858  35.0370494  37.4757593   4.3653178  45.2177447  26.8460443
   3.8499802  45.9882052  27.0848831   4.0930487  44.5442583  27.4693505
   1.9500289  40.0627148  31.9045682   1.0941886  39.6733998  31.7251320
   2.3627241  40.1419109  31.0445467   3.4799436  37.5973491  36.3037241
   2.9764231  37.5603626  35.4905047   3.7730043  38.5066234  36.3633898
   9.3387452  47.9709802  28.7813617   8.5616895  47.6320961  28.3368779
  10.0178933  47.9762425  28.1068582   4.1539481  43.0904539  28.6720224
   3.8489617  43.4050688  29.5230368   5.1069923  43.1685959  28.7147557
   2.5985913  49.2494763  30.3213178   2.0707275  48.5147522  30.0086416
   2.0973416  50.0269439  30.0753147   7.5778759  47.4443783  35.4380225
   6.9202434  48.1343044  35.5260353   8.3819158  47.8340215  35.7814211
   6.3884218  45.7988156  33.4884166   6.9016100  46.4318148  33.9905876
   7.0385442  45.1989351  33.1227526   3.6506592  55.7772480  26.2444838
   2.9768291  56.0804177  26.8529795   4.0372414  56.5801560  25.8950295
   2.8665049  43.2737611  35.7342507   1.9487610  43.4952558  35.5764195
   3.2825192  43.3483922  34.8754214   3.6500097  44.6729027  30.8645187
   4.3971916  45.1850424  30.5552309   3.9191686  44.3513080  31.7249581
   1.9226747  47.1687568  27.8472142   1.0137966  46.8846600  27.9444611
   1.9521831  47.5886646  26.9875448   7.1546014  50.7794157  31.6163309
   6.7008341  49.9385067  31.6728500   6.5239981  51.4155556  31.9538089
   6.0978934  41.7086143  32.8463977   5.3601691  41.1963529  33.1774219
   6.3505707  41.2686525  32.0347253   5.5978953  52.6170654  32.5513127
   5.8901928  53.1775711  31.8325493   6.1077574  52.9099215  33.3066286
   6.1990561  34.4862395  33.4405746   6.5049438  33.6259759  33.1531661
   6.9243166  35.0780015  33.2404740   1.6202835  48.7096311  25.1860220
   1.1822264  47.9932170  24.7265857   2.3613275  48.9372426  24.6245311
   0.5612579  53.3951005  33.6406580   0.5188757  53.6211851  32.7115112
   1.4775277  53.1614380  33.7892382   4.0078212  43.8635072  40.5387210
   4.3627600  44.0906546  41.3981675   4.6550344  44.1953449  39.9164465
   9.7375949  46.9853508  31.2436539   9.5993848  47.1755104  30.3157728
   9.3812168  47.7472891  31.7004590   9.7645329  49.0530035  36.2547810
  10.1981836  48.9605324  37.1030864  10.4776910  49.0287536  35.6167826
   3.4973224  52.6532129  37.7880911   3.5510246  53.2223066  38.5558627
   2.6288005  52.8234014  37.4234948  10.6260879  49.0953736  38.7880696
  10.8196769  49.9999547  39.0339970  10.5261497  48.6361155  39.6219281
   2.2797189  38.9811627  41.2871023   1.6325104  39.6801576  41.1935499
   3.0498205  39.4147771  41.6547271   5.6875987  49.2460479  44.3621576
   5.5361494  49.0171030  43.4451660   5.6780667  50.2031080  44.3752921
   2.4561324  46.8192391  39.3467843   3.3853384  46.9703551  39.1736810
   2.0352354  46.9076412  38.4916489   1.8497807  55.9452152  28.4591917
   2.0249563  55.4740196  29.2737539   1.1630595  56.5717919  28.6873177
   2.8054871  50.2224659  34.5055218   2.4704703  50.1825429  35.4012868
   2.3058816  49.5569375  34.0325628   5.7414062  47.5680693  24.7792278
   5.1243233  46.8427521  24.6825330   5.2730551  48.3290053  24.4359352
   7.3968194  52.2779601  42.4398058   7.3380740  51.5938821  41.7728641
   7.7987712  53.0198591  41.9878684   7.3985601  50.2419185  40.6712038
   6.5112380  49.9045107  40.7938437   7.9684152  49.5102216  40.9080803
   0.9286755  54.9020638  37.6373281   0.8556926  55.7075609  38.1492585
   0.4864148  55.1012603  36.8121302   4.0273184  39.9487037  33.7910308
   4.5241884  39.1956999  33.4711378   3.2560166  39.9851354  33.2253517
  11.8802942  45.6527403  35.4328599  11.8692818  46.5352118  35.0622532
  11.0120321  45.2998953  35.2383136   3.3885438  54.8007472  39.7931440
   4.1013410  55.4354936  39.7207341   2.8975467  54.8971338  38.9771441
   5.1102965  48.7058724  31.3648731   4.1759244  48.8260187  31.1953436
   5.2879633  47.8031191  31.1008741   8.4975516  44.5476044  31.8998765
   8.9635968  45.3804035  31.8259068   8.9483017  44.0821025  32.6044024
   6.5651747  50.8919865  28.8984917   6.8411591  50.7776459  29.8078791
   5.6956246  50.4937350  28.8597090   6.4692179  36.9156631  35.9389667
   5.5555259  37.1460857  36.1071874   6.8985280  36.9995075  36.7903699
   6.2398638  45.1046523  38.4389561   5.5870088  45.3522430  37.7842013
   6.6179017  44.2910661  38.1052038   3.2005811  55.1406216  32.5417731
   3.3828206  54.3227872  33.0045483   4.0238797  55.3573908  32.1042621
   3.5347977  54.0674401  29.8032780   4.0635743  53.5566855  29.1902942
   3.7976196  53.7516931  30.6678313   2.2886211  45.8466334  44.9255598
   1.6126848  45.7460463  45.5957973   3.1113844  45.6905547  45.3891595
   1.0308993  57.1533261  39.1613214   1.5827301  57.3164883  39.9262299
   1.3715187  57.7437699  38.4893239   5.8819868  51.9794519  45.0161868
   6.4259772  52.5924477  44.5216823   5.3006713  52.5374097  45.5328881
   4.1677381  55.1015237  36.1476896   4.0428520  54.3004976  35.6387841
   4.8256472  55.5961430  35.6590866   6.2312289  52.9024257  37.7756446
   5.2842625  52.7829608  37.7034773   6.5795062  52.0146755  37.8582707
   3.2358722  52.6976973  33.9760798   3.0883685  51.7693680  34.1568368
   4.0612216  52.7197064  33.4917874   6.8392844  53.5205532  35.0625671
   7.7639392  53.3148393  34.9250122   6.6708148  53.2721933  35.9715013
   3.2320237  40.5514811  28.9692916   3.4483851  41.4339448  28.6681744
   2.7514304  40.1601024  28.2398558   1.6841972  40.9340412  37.6397677
   1.4259750  41.8557483  37.6382008   1.1527012  40.5370846  38.3298141
   6.6288160  54.0391199  30.4187762   6.8025038  53.4737622  29.6661615
   7.1217052  54.8392094  30.2367252   2.1043927  37.0672362  33.9998840
   2.1265624  37.1311696  33.0450819   2.5211986  36.2276871  34.1939346
  12.4827552  46.8027622  32.0378062  12.9258698  46.0534947  31.6397186
  11.6054062  46.7937758  31.6551794   7.6163333  53.3557963  27.5184661
   8.3114238  53.9764656  27.7371975   7.9586483  52.5053315  27.7937039
   9.5154756  50.8057669  29.0471992  10.0406080  51.1444942  28.3221312
   9.4277109  49.8704684  28.8635126   1.1774805  54.7191743  41.1761868
   1.4861931  54.4740889  42.0484568   1.9750287  54.9238381  40.6880738
   1.1995417  56.8729652  33.4067245   0.7600407  56.3806031  34.1000101
   1.9503534  56.3302620  33.1659320   9.2048662  51.4390573  44.3523190
   8.4144206  51.4214711  43.8127689   8.9682017  51.9778866  45.1072226
   9.3246537  48.2883039  41.6655918   9.3744542  48.1233046  42.6071441
   9.2160461  47.4210298  41.2753799   6.6150300  44.2713967  42.9815225
   7.5160162  44.1320432  42.6899223   6.6898274  44.4368422  43.9213402
  10.8264734  50.7079981  41.9097940  10.5349542  51.0709961  42.7461401
  10.2136865  49.9946989  41.7311272  12.0260416  48.2732860  34.4300510
  12.8607308  48.7122664  34.5938070  12.1619545  47.7971514  33.6108756
   9.0751922  45.8312595  40.3777998   9.5506044  46.0240241  39.5696849
   8.1517488  45.8871781  40.1321381   3.6532139  37.8660439  39.3433831
   4.1714083  38.6021466  39.0180320   3.2987271  38.1724432  40.1780591
   3.9044733  34.2860721  34.8634728   4.1846487  33.6183910  35.4895155
   4.6895340  34.4789817  34.3509392   1.7078201  53.4619715  26.4259754
   1.1352168  54.0809902  25.9730226   2.2810995  54.0119077  26.9599676
   7.7753591  42.7078355  38.6106303   8.7271014  42.8076453  38.6318527
   7.6057042  41.9156624  39.1204388   5.7967971  39.7933938  38.7965704
   5.2017903  40.0738951  38.1012193   5.5117667  40.2827839  39.5682445
   4.9275461  53.7456865  27.5568337   5.8606134  53.6802427  27.7601212
   4.8398674  54.5813132  27.0982869   7.5563478  53.0622736  24.5172284
   7.4777109  52.7282599  25.4108042   8.3773145  53.5544504  24.5163757
  10.2541669  45.9284475  37.7248603  10.2217989  44.9900476  37.9108287
  10.8642293  46.0068512  36.9914428   2.0925000  44.7980528  23.7675807
   3.0384105  44.6686736  23.8364225   1.7139245  44.0595190  24.2445235
  10.4036158  42.7195518  37.7706886   9.8875206  41.9353975  37.5836815
  11.2876106  42.3914235  37.9353405   8.0646884  36.4636534  33.7302699
   7.8671706  36.1551622  34.6146031   8.6746590  37.1898173  33.8600629
  16.0718219  46.9900482  36.8654640  16.8021607  46.7285770  37.4262343
  15.4625164  46.2529204  36.9056708  14.1533516  45.1308344  37.4629091
  13.4266680  44.9964309  36.8545582  13.7380803  45.4385173  38.2685809
   1.9763692  48.8498274  45.2276464   2.8966702  49.0276873  45.4216510
   1.9413275  47.9054319  45.0756163   1.8929983  37.2667394  29.8574933
   1.0830711  36.9214479  30.2330179   2.5814400  36.9574938  30.4462545
   3.8220531  36.3445441  31.4799230   4.3751570  36.7640894  32.1389253
   4.0590617  35.4181189  31.5222186   7.1999338  38.4545966  30.9877894
   6.6198007  39.1130770  30.6055947   6.9335271  37.6323311  30.5765312
   5.6502905  37.8551024  33.1899215   6.1502683  37.9667558  32.3813533
   6.2938512  37.5512077  33.8300023   5.9824216  40.6146056  30.0434243
   5.0950071  40.8995707  29.8254437   6.3978205  40.4539820  29.1961519
   9.3338752  40.6392577  33.7588582  10.1099142  41.1289030  34.0313199
   8.6086886  41.0650632  34.2160451  11.7711311  41.3520197  34.8162522
  12.3655802  41.1115933  34.1055831  11.8437895  40.6327327  35.4436059
   5.1267430  50.3790731  24.1382263   5.8303280  50.5840734  24.7539918
   4.4030078  50.9467493  24.4031346   5.9565240  46.1300592  30.2584533
   5.9000441  46.5869144  29.4192165   6.5093582  45.3691277  30.0807375
   9.7670046  41.9190324  31.0834652   9.5106980  41.5186960  31.9142860
   9.1422914  42.6334118  30.9584791  14.0782384  44.6586397  33.5905944
  13.5181942  44.7279587  34.3637506  13.4725887  44.4827382  32.8705440
   7.0354127  50.8173260  26.1880723   7.8699731  50.3854459  26.0058197
   6.8738470  50.6455274  27.1157617   6.6900019  47.3205374  27.5537062
   6.6348823  47.1549645  26.6125506   6.0646074  48.0281406  27.7099252
   4.0045926  49.6254285  46.8790625   4.8737086  49.7994938  46.5177260
   3.5252678  50.4448702  46.7566354   3.8148264  33.4156259  31.3868317
   3.0480660  32.8614746  31.5324999   4.2258969  33.4878128  32.2482469
  15.6638402  61.3342911  36.2835899  16.3016812  61.2149659  35.5799239
  15.5459245  62.2823755  36.3423851  12.4728108  61.2870339  36.2197424
  12.1346620  61.1711404  35.3317959  13.3417877  60.8861505  36.1998430
   8.3314924  63.1405816  32.2094315   7.7679789  63.0495753  31.4410603
   8.2167319  62.3205720  32.6896807  12.9547891  62.4405191  42.1783630
  12.9436532  62.0457989  41.3064133  13.1168531  61.7071264  42.7717401
   5.8779356  64.6357007  35.0478535   6.6700648  64.2947832  34.6324835
   6.1176006  64.7451982  35.9680689  13.9114483  66.8076784  27.5208780
  13.2602463  67.3930864  27.1342794  14.7058846  67.3382978  27.5803817
   7.8370110  63.8965921  27.9195914   8.6100986  63.3494908  27.7808790
   8.1895509  64.7610170  28.1310376   9.6755153  65.2242303  41.1262814
   9.3845019  66.1287934  41.0109480  10.3112137  65.2658831  41.8406883
  10.6011359  62.6019151  37.7164173  11.1974932  62.3775174  37.0021136
  10.6586331  61.8603897  38.3189621  10.1736388  60.0558587  25.5514364
  10.4261908  59.5340108  24.7897827   9.2360947  59.8924732  25.6541048
  15.2179671  59.0594365  33.3589107  16.0042760  58.6413788  33.0079524
  15.4818375  59.9640457  33.5270756  15.3889748  64.4967215  28.0577764
  14.7535581  64.5701842  28.7698669  15.0587154  65.0860814  27.3796843
  20.6188098  58.9969598  34.2622086  21.3513270  58.4268815  34.4959915
  19.8627453  58.6091199  34.7028591   9.8932677  61.9586693  27.7538739
   9.7768935  61.2831596  28.4219823  10.0034936  61.4719067  26.9370892
  12.2364217  61.4196840  31.4585428  11.8722425  60.8927461  32.1698350
  13.0931333  61.0295309  31.2851914  18.1413518  52.7091172  38.7216694
  17.8096843  53.5786583  38.4977909  17.5459131  52.3927456  39.4010725
  11.8769704  56.4486740  26.4546777  12.0444107  57.3166976  26.8217248
  11.6866874  56.6114021  25.5308066  14.6345038  64.9103718  38.1212607
  14.3345761  65.8128757  38.0128414  14.2896097  64.6435902  38.9733760
   8.0857519  61.3617515  34.1549312   7.1608016  61.2293729  34.3627003
   8.3341932  62.1411735  34.6519254  18.0342181  57.4286259  35.8010045
  17.1259059  57.3601667  35.5068806  17.9829777  57.9058204  36.6291870
  11.8558925  58.9044397  27.4393444  11.7358551  59.3501448  28.2778924
  11.1611514  59.2529715  26.8806982   5.4466330  61.0050789  34.9893101
   5.5758711  61.2585268  35.9032512   4.7663781  61.5978497  34.6697756
   9.6165817  71.6748039  31.0883575   9.5389847  72.6255864  31.1672055
   9.0127461  71.3293911  31.7458501  12.1083047  58.8475904  43.7444942
  11.3316381  59.4069824  43.7347806  12.7473610  59.3332687  44.2659812
  19.9003828  55.6302697  37.5787918  19.2578208  55.9235230  36.9327713
  19.3958756  55.5155617  38.3841115  17.5543991  59.3765870  28.2673778
  18.4661848  59.6093257  28.0921475  17.0453639  59.9602914  27.7048856
  10.3629419  61.6561358  43.3062909  11.1044104  62.1946402  43.0297732
   9.6566405  62.2827646  43.4634461  15.8384759  63.7990498  41.9035070
  16.2468115  63.3572909  41.1589703  15.1162021  63.2243126  42.1569263
  12.1915829  58.7363105  39.2768627  13.0377024  59.1602518  39.4203276
  12.1314467  58.0796729  39.9707190  16.1613574  64.3591689  35.6587359
  15.5322436  64.5237403  34.9563427  15.7739236  64.7733298  36.4298323
  20.0402806  65.2946127  33.0131723  19.3553844  65.6745028  32.4628756
  20.1246655  65.9041453  33.7463671  15.3415275  56.3967473  40.9349801
  15.0976206  57.1509534  40.3984077  15.6175205  56.7752821  41.7697048
  17.2953737  62.9406086  39.6127066  17.5070633  63.5837845  38.9361448
  17.2483486  62.1068402  39.1448997  14.8979966  55.5523906  36.5163639
  14.0364445  55.8505160  36.8080376  14.9242401  55.7694305  35.5844671
  11.7141536  64.0966097  32.9237444  12.1779881  64.3753800  32.1342067
  11.4498334  63.1949541  32.7410535   8.6065617  63.6437578  35.8617208
   9.1766974  64.0724847  35.2234692   9.1973729  63.3620163  36.5601393
  10.6510422  60.2189249  29.7327009  11.3534465  60.6710293  30.2000936
  10.3191050  59.5773068  30.3606903   9.0990783  58.8101006  44.1078219
   8.4689444  59.4917287  44.3413616   8.9926871  58.6984087  43.1631357
   4.3935756  58.4772802  35.0344143   3.6034810  58.7330330  34.5584254
   4.8847003  59.2921140  35.1396184  18.4099565  65.8178041  37.7849424
  19.2317009  65.4158228  37.5032105  18.4061968  65.7146275  38.7365540
   6.3450501  58.8417381  31.9927620   5.5481664  58.9536075  32.5111115
   6.1176093  59.1804033  31.1268510  12.1756169  65.3662084  39.9410134
  12.2400601  65.8282492  40.7768306  11.4667093  64.7359449  40.0692444
   2.6773459  58.7303292  37.4659134   2.9281497  59.6150302  37.7316710
   3.2133007  58.5507894  36.6934226  26.5005558  62.1616789  34.1334395
  25.7469267  61.5924188  33.9778400  26.6353099  62.1279454  35.0805030
  11.8904186  67.0330192  29.8089115  11.7549861  67.8781728  30.2373962
  12.4313999  67.2349469  29.0455048   8.3771526  53.1121772  46.4703470
   7.9838472  52.5587970  47.1451114   9.1937666  53.4232350  46.8609987
   5.3433584  64.5505630  30.3817040   5.8558104  65.3448880  30.5322604
   5.9956297  63.8531920  30.3150641   7.1528468  67.6671386  32.4639793
   7.3295097  68.5889351  32.2760777   7.9485302  67.3529805  32.8934173
  11.2939487  54.5279651  44.0623726  12.0349200  55.1286804  43.9828189
  11.5257410  53.7857289  43.5041769   6.4380825  59.7136018  42.3401956
   6.3234340  58.8121275  42.6409055   5.5825343  59.9599715  41.9886773
  13.5172663  67.6553758  43.9389457  13.0736517  66.8690137  43.6210361
  14.1789876  67.8432909  43.2733348   8.2759784  69.1849560  38.4650135
   8.8267209  69.0566623  37.6927129   7.4371260  69.4844449  38.1145028
  15.6153901  67.9356558  41.9670858  15.5972376  68.7565439  41.4751127
  16.5373821  67.8110633  42.1920999  12.0726955  65.4500688  42.8094366
  12.6055292  64.6888976  42.5793674  11.5441036  65.1574340  43.5518521
  15.2396650  50.5560754  38.3388008  14.8960919  51.4462395  38.2627119
  15.6075613  50.3662411  37.4757593   3.3082501  62.8794284  31.1576610
   4.1457723  63.2891292  30.9410318   3.4860768  61.9393726  31.1276804
  15.2046933  60.5469365  26.8460443  14.6893556  61.3173969  27.0848831
  14.9324241  59.8734501  27.4693505  12.7894044  55.3919066  31.9045682
  11.9335640  55.0025916  31.7251320  13.2020995  55.4711026  31.0445467
  14.3193190  52.9265409  36.3037241  13.8157986  52.8895544  35.4905047
  14.6123797  53.8358152  36.3633898  10.5636076  53.0104139  35.3103423
  11.4289073  52.8146947  34.9509313  10.6313585  52.7814490  36.2372780
  20.1781207  63.3001719  28.7813617  19.4010650  62.9612879  28.3368779
  20.8572688  63.3054343  28.1068582  14.9933236  58.4196457  28.6720224
  14.6883371  58.7342606  29.5230368  15.9463678  58.4977877  28.7147557
  13.4379668  64.5786680  30.3213178  12.9101029  63.8439440  30.0086416
  12.9367170  65.3561357  30.0753147  18.4172514  62.7735701  35.4380225
  17.7596188  63.4634962  35.5260353  19.2212913  63.1632133  35.7814211
   8.1698395  55.2406346  32.6819790   8.7442147  55.0181528  31.9492983
   8.7569378  55.3095041  33.4348391  17.2277972  61.1280073  33.4884166
  17.7409854  61.7610065  33.9905876  17.8779196  60.5281269  33.1227526
   8.4967982  57.2710807  26.7015675   7.6605295  57.6085494  27.0224950
   8.3572752  57.1359787  25.7642812  10.4721063  52.1147595  31.4094859
   9.8185475  51.7996613  30.7851474  10.4301537  51.4923336  32.1354682
  11.5832268  62.3966890  23.3248151  10.6759330  62.1656144  23.5239300
  12.0803300  61.6004510  23.5122133  14.4900347  71.1064398  26.2444838
  13.8162045  71.4096094  26.8529795  14.8766169  71.9093478  25.8950295
  13.7058803  58.6029529  35.7342507  12.7881365  58.8244476  35.5764195
  14.1218947  58.6775839  34.8754214  14.4893851  60.0020945  30.8645187
  15.2365670  60.5142342  30.5552309  14.7585441  59.6804997  31.7249581
  12.7620501  62.4979485  27.8472142  11.8531721  62.2138518  27.9444611
  12.7915585  62.9178564  26.9875448  17.9939769  66.1086075  31.6163309
  17.5402096  65.2676985  31.6728500  17.3633735  66.7447473  31.9538089
  16.9372688  57.0378061  32.8463977  16.1995445  56.5255447  33.1774219
  17.1899462  56.5978442  32.0347253  16.4372708  67.9462572  32.5513127
  16.7295682  68.5067629  31.8325493  16.9471328  68.2391133  33.3066286
  17.0384316  49.8154313  33.4405746  17.3443192  48.9551676  33.1531661
  17.7636920  50.4071933  33.2404740   3.3308672  60.2184999  31.8287344
   3.1333071  59.6254360  31.1038410   2.7755336  59.9137210  32.5463282
  11.3105395  60.1108106  33.9481937  11.3654005  59.1581942  33.8724413
  10.4996597  60.2667545  34.4323235  12.4596589  64.0388229  25.1860220
  12.0216019  63.3224088  24.7265857  13.2007030  64.2664344  24.6245311
   9.2497755  58.7285166  31.7072316   8.4365621  59.0279336  32.1137508
   9.7456749  58.3340854  32.4246798  11.4006333  68.7242923  33.6406580
  11.3582512  68.9503769  32.7115112  12.3169032  68.4906297  33.7892382
  14.8471967  59.1926990  40.5387210  15.2021355  59.4198463  41.3981675
  15.4944098  59.5245367  39.9164465  20.5769704  62.3145426  31.2436539
  20.4387602  62.5047022  30.3157728  20.2205923  63.0764809  31.7004590
   8.7411830  56.3003521  37.3233551   9.3811209  56.1592280  36.6256514
   7.9089361  56.0138035  36.9472153  20.6039083  64.3821953  36.2547810
  21.0375590  64.2897242  37.1030864  21.3170664  64.3579453  35.6167826
   9.5172134  65.6005952  33.4368543  10.3112732  65.1056272  33.2351118
   8.8063826  65.0723815  33.0736249  14.3366978  67.9824047  37.7880911
  14.3904001  68.5514983  38.5558627  13.4681760  68.1525932  37.4234948
   5.8254897  59.7449033  29.5128296   4.8952485  59.6833489  29.7298258
   5.9212369  59.2224986  28.7164937   5.7440446  56.2703846  32.1006537
   6.0047264  57.1849179  31.9915698   6.5657619  55.8028289  32.2503150
   7.2165372  57.6841603  39.2705362   7.8888425  57.4758965  38.6218011
   6.3895158  57.4863689  38.8310594  21.4654633  64.4245654  38.7880696
  21.6590523  65.3291464  39.0339970  21.3655251  63.9653073  39.6219281
  13.1190944  54.3103544  41.2871023  12.4718859  55.0093494  41.1935499
  13.8891959  54.7439688  41.6547271  16.5269742  64.5752396  44.3621576
  16.3755248  64.3462948  43.4451660  16.5174421  65.5322998  44.3752921
  13.2955078  62.1484309  39.3467843  14.2247138  62.2995469  39.1736810
  12.8746108  62.2368330  38.4916489  12.0943410  66.1734974  37.1166380
  11.9554496  65.8053758  37.9892318  11.3058006  66.6882613  36.9450338
  12.6891562  71.2744070  28.4591917  12.8643318  70.8032113  29.2737539
  12.0024350  71.9009836  28.6873177  13.6448625  65.5516576  34.5055218
  13.3098458  65.5117346  35.4012868  13.1452571  64.8861292  34.0325628
   7.6192869  60.9584206  40.0307799   7.4812667  60.2264445  40.6319338
   8.5297792  60.8693106  39.7491987  16.5807817  62.8972611  24.7792278
  15.9636987  62.1719439  24.6825330  16.1124305  63.6581971  24.4359352
  10.2475170  60.6704166  39.5191479  10.9574788  60.0297358  39.4778097
  10.2044478  60.9217060  40.4417660  18.2361948  67.6071519  42.4398058
  18.1774494  66.9230739  41.7728641  18.6381467  68.3490509  41.9878684
   8.9604104  57.6569384  41.3387118   8.4241461  57.2060122  41.9908715
   8.3720812  57.7915292  40.5957583   7.2552647  74.4233433  35.2331777
   7.4949245  75.0551957  35.9110795   6.4121844  74.0721473  35.5197136
   8.3706363  57.1158035  23.9013582   7.4935829  56.9946836  23.5375829
   8.8464116  56.3244113  23.6492471  18.2379356  65.5711103  40.6712038
  17.3506134  65.2337025  40.7938437  18.8077907  64.8394134  40.9080803
   4.6943225  56.7925391  38.4240113   4.6101414  56.1851061  37.6890523
   3.8725931  57.2834410  38.4249609  11.7680509  70.2312555  37.6373281
  11.6950680  71.0367527  38.1492585  11.3257902  70.4304521  36.8121302
  11.5570289  69.4684325  31.1476102  10.7737811  70.0106005  31.2414327
  12.2563034  69.9858305  31.5470344  14.8666939  55.2778955  33.7910308
  15.3635638  54.5248917  33.4711378  14.0953920  55.3143271  33.2253517
  22.7196696  60.9819320  35.4328599  22.7086572  61.8644036  35.0622532
  21.8514076  60.6290871  35.2383136  14.2279193  70.1299389  39.7931440
  14.9407165  70.7646854  39.7207341  13.7369221  70.2263255  38.9771441
  15.9496719  64.0350642  31.3648731  15.0152998  64.1552104  31.1953436
  16.1273388  63.1323109  31.1008741  11.4501907  57.4196338  33.5181992
  11.0799695  56.8667378  34.2062898  11.9461000  56.8154471  32.9656992
  19.3369271  59.8767961  31.8998765  19.8029723  60.7095953  31.8259068
  19.7876771  59.4112943  32.6044024   9.2791106  67.8793833  40.6137010
   9.9800566  68.5130316  40.7666405   8.8086221  68.2208564  39.8532650
  17.4045502  66.2211783  28.8984917  17.6805346  66.1068377  29.8078791
  16.5350001  65.8229267  28.8597090  17.3085934  52.2448548  35.9389667
  16.3949013  52.4752775  36.1071874  17.7379035  52.3286992  36.7903699
  17.0792392  60.4338440  38.4389561  16.4263842  60.6814348  37.7842013
  17.4572772  59.6202578  38.1052038  14.0399566  70.4698133  32.5417731
  14.2221960  69.6519789  33.0045483  14.8632552  70.6865826  32.1042621
  14.3741731  69.3966319  29.8032780  14.9029498  68.8858773  29.1902942
  14.6369951  69.0808849  30.6678313  13.1279965  61.1758251  44.9255598
  12.4520602  61.0752381  45.5957973  13.9507599  61.0197465  45.3891595
   4.8758824  67.4130188  37.5468113   5.4612261  66.6673876  37.6796017
   4.6783663  67.7234145  38.4304777   7.7297479  70.4481435  32.5630555
   7.0607855  70.9327563  32.0794595   7.5910349  70.6950656  33.4773934
  11.8702748  72.4825179  39.1613214  12.4221056  72.6456800  39.9262299
  12.2108941  73.0729617  38.4893239   6.8467241  54.8300329  39.7635099
   6.9108568  55.6915159  39.3512496   6.7834361  54.2174330  39.0307457
   6.3219514  56.9023461  43.4108133   6.9491552  56.5200538  44.0245657
   5.4647433  56.6837663  43.7763825  16.7213622  67.3086436  45.0161868
  17.2653526  67.9216395  44.5216823  16.1400467  67.8666015  45.5328881
   3.0985056  58.7099890  29.3426488   3.3938498  57.8010569  29.2893541
   2.1973092  58.6887630  29.0207490  15.0071135  70.4307154  36.1476896
  14.8822275  69.6296894  35.6387841  15.6650226  70.9253348  35.6590866
   6.6279303  56.7855887  35.3254036   5.9065889  57.3991854  35.1861510
   7.4172559  57.3213652  35.2470682  17.0706044  68.2316174  37.7756446
  16.1236379  68.1121526  37.7034773  17.4188817  67.3438672  37.8582707
   9.4305617  54.1210313  41.5994688   9.9540019  54.3672610  42.3620997
   9.2117950  54.9530348  41.1797825   4.8272898  56.3913988  29.4665813
   4.4985604  55.5111367  29.2840919   5.1812269  56.3361657  30.3542202
  14.0752477  68.0268891  33.9760798  13.9277439  67.0985598  34.1568368
  14.9005970  68.0488981  33.4917874   7.9414721  56.6786958  29.8341290
   8.2810794  57.2072879  29.1119899   8.3886842  57.0167364  30.6099857
  17.6786599  68.8497449  35.0625671  18.6033146  68.6440311  34.9250122
  17.5101902  68.6013850  35.9715013  10.6358162  55.0624008  39.2844358
  10.2954982  54.2631821  39.6865038   9.9297168  55.3625719  38.7121192
  11.2874634  52.1473321  37.7371682  12.1100703  51.6733799  37.6150572
  11.5312697  52.9263805  38.2370368   9.9282868  55.1761579  28.0334583
  10.6491231  55.5542832  27.5298300   9.3048172  55.8950456  28.1369561
  14.0713991  55.8806728  28.9692916  14.2877606  56.7631366  28.6681744
  13.5908058  55.4892942  28.2398558   8.8113213  58.8392441  35.5463660
   8.6657793  59.1532744  36.4387942   8.3338416  59.4577342  34.9934559
  10.6709595  55.8294989  35.5944550  10.6571164  54.9336083  35.2576848
  11.3882024  55.8365653  36.2282836  12.5235726  56.2632330  37.6397677
  12.2653504  57.1849400  37.6382008  11.9920767  55.8662764  38.3298141
  17.4681915  69.3683117  30.4187762  17.6418792  68.8029539  29.6661615
  17.9610806  70.1684012  30.2367252   3.2858875  61.3797786  38.4851321
   2.7412343  62.1557594  38.6171596   4.1638225  61.7268590  38.3270443
  10.0746491  54.7109370  30.8632120  10.1962403  53.7826016  31.0623007
   9.7848534  54.7248056  29.9510435  12.9437682  52.3964280  33.9998840
  12.9659379  52.4603613  33.0450819  13.3605741  51.5568789  34.1939346
  23.3221306  62.1319540  32.0378062  23.7652452  61.3826865  31.6397186
  22.4447816  62.1229676  31.6551794  18.4557087  68.6849881  27.5184661
  19.1507992  69.3056574  27.7371975  18.7980238  67.8345232  27.7937039
   4.0724897  60.5067682  41.3781478   3.3306633  60.6550317  41.9646109
   3.7517641  60.7675948  40.5148228  20.3548511  66.1349587  29.0471992
  20.8799835  66.4736859  28.3221312  20.2670863  65.1996602  28.8635126
  12.0168559  70.0483660  41.1761868  12.3255686  69.8032807  42.0484568
  12.8144041  70.2530299  40.6880738  12.0389171  72.2021570  33.4067245
  11.5994162  71.7097949  34.1000101  12.7897288  71.6594538  33.1659320
   4.5181510  68.3933111  33.4091873   5.3439530  68.0936883  33.0290516
   4.1675562  67.6240733  33.8581661   9.4863043  67.7459579  35.4789546
   8.8643053  67.0830284  35.1791774  10.1567910  67.7720711  34.7963194
   2.7190115  66.3119437  34.3680806   1.8822024  65.8841612  34.1864808
   2.6913761  66.5051881  35.3051598   9.5587571  56.2241367  45.0722052
   9.6075726  57.1003490  44.6899822  10.1010085  55.6818760  44.4993696
  20.0442417  66.7682490  44.3523190  19.2537960  66.7506629  43.8127689
  19.8075771  67.3070784  45.1072226  20.1640292  63.6174957  41.6655918
  20.2138297  63.4524964  42.6071441  20.0554215  62.7502216  41.2753799
   9.0476550  66.2963502  28.9548007   9.1964671  66.9798967  28.3014680
   9.8542994  66.2768592  29.4697463  17.4544054  59.6005885  42.9815225
  18.3553917  59.4612350  42.6899223  17.5292029  59.7660340  43.9213402
  11.7886859  56.9772739  41.8268411  10.9190169  57.2706306  41.5551000
  12.0246340  57.5613184  42.5475675  21.6658488  66.0371898  41.9097940
  21.3743297  66.4001879  42.7461401  21.0530620  65.3238906  41.7311272
  22.8654171  63.6024778  34.4300510  23.7001062  64.0414582  34.5938070
  23.0013300  63.1263431  33.6108756  19.9145677  61.1604513  40.3777998
  20.3899798  61.3532159  39.5696849  18.9911242  61.2163699  40.1321381
   6.8029183  62.3228680  29.9609076   6.5575225  61.4191010  30.1589286
   6.9725098  62.3245830  29.0188554  14.4925893  53.1952356  39.3433831
  15.0107837  53.9313383  39.0180320  14.1381026  53.5016350  40.1780591
   6.0724831  58.0557038  27.4595237   5.3794076  58.1301393  26.8035273
   5.8276583  57.2917381  27.9816754  14.7438487  49.6152639  34.8634728
  15.0240241  48.9475828  35.4895155  15.5289094  49.8081735  34.3509392
  12.5471956  68.7911633  26.4259754  11.9745923  69.4101820  25.9730226
  13.1204750  69.3410995  26.9599676  18.6147346  58.0370273  38.6106303
  19.5664769  58.1368371  38.6318527  18.4450796  57.2448541  39.1204388
  16.6361725  55.1225856  38.7965704  16.0411657  55.4030869  38.1012193
  16.3511422  55.6119757  39.5682445  15.7669216  69.0748783  27.5568337
  16.6999889  69.0094345  27.7601212  15.6792428  69.9105050  27.0982869
  18.3957232  68.3914653  24.5172284  18.3170864  68.0574517  25.4108042
  19.2166899  68.8836421  24.5163757  21.0935424  61.2576393  37.7248603
  21.0611744  60.3192393  37.9108287  21.7036047  61.3360429  36.9914428
  12.9318754  60.1272446  23.7675807  13.8777859  59.9978654  23.8364225
  12.5532999  59.3887107  24.2445235  21.2429912  58.0487436  37.7706886
  20.7268961  57.2645893  37.5836815  22.1269861  57.7206153  37.9353405
  18.9040639  51.7928452  33.7302699  18.7065460  51.4843540  34.6146031
  19.5140344  52.5190091  33.8600629  26.9111973  62.3192399  36.8654640
  27.6415362  62.0577688  37.4262343  26.3018919  61.5821121  36.9056708
  24.9927270  60.4600262  37.4629091  24.2660434  60.3256227  36.8545582
  24.5774557  60.7677091  38.2685809  12.8157447  64.1790192  45.2276464
  13.7360456  64.3568791  45.4216510  12.7807030  63.2346237  45.0756163
  11.1161672  58.0522422  23.7030692  10.2093127  57.7555535  23.7793406
  11.3937653  57.7552240  22.8364978   2.0339612  59.3728785  34.1529738
   1.7142396  58.5194094  33.8604112   1.4873040  59.5877364  34.9087706
   5.8119519  62.0891226  37.8699245   6.0305529  63.0208334  37.8887279
   6.2245293  61.7299201  38.6554049  12.7323737  52.5959312  29.8574933
  11.9224466  52.2506397  30.2330179  13.4208154  52.2866855  30.4462545
  14.6614286  51.6737358  31.4799230  15.2145324  52.0932812  32.1389253
  14.8984372  50.7473107  31.5222186  10.6847385  57.6624432  47.2601994
  10.5844112  58.6118789  47.1914085  10.4668927  57.3342671  46.3878064
   9.8860456  54.9109357  23.8442671  10.7479620  55.2364255  24.1038489
  10.0710800  54.1240853  23.3315737   1.9027872  62.9931697  36.1222860
   1.2091343  62.5785650  35.6092814   2.6500863  63.0352233  35.5256279
  18.0393093  53.7837884  30.9877894  17.4591762  54.4422688  30.6055947
  17.7729025  52.9615228  30.5765312  16.4896659  53.1842941  33.1899215
  16.9896437  53.2959476  32.3813533  17.1332267  52.8803994  33.8300023
  10.5478655  61.0921571  46.0767056  10.0645737  61.8921931  46.2830945
  10.6339594  61.1029516  45.1234500   3.8164614  62.9249951  33.9988875
   3.7935303  63.0237638  33.0470758   4.1265251  63.7715101  34.3206041
   6.4751992  64.9826106  38.1135489   7.4295246  64.9510048  38.0465421
   6.2764516  64.5216729  38.9285715   7.0651374  63.5527222  40.6806287
   7.8844263  64.0471300  40.7041124   7.3388182  62.6359190  40.6523855
  16.8217971  55.9437974  30.0434243  15.9343826  56.2287625  29.8254437
  17.2371960  55.7831737  29.1961519  20.1732507  55.9684495  33.7588582
  20.9492897  56.4580947  34.0313199  19.4480641  56.3942549  34.2160451
  22.6105065  56.6812114  34.8162522  23.2049556  56.4407850  34.1055831
  22.6831649  55.9619245  35.4436059   4.8302221  70.5245725  35.1305687
   4.6956689  69.7646126  34.5643685   4.4134283  71.2486625  34.6634476
  15.9661184  65.7082649  24.1382263  16.6697034  65.9132651  24.7539918
  15.2423833  66.2759411  24.4031346  16.7958994  61.4592510  30.2584533
  16.7394196  61.9161061  29.4192165  17.3487337  60.6983195  30.0807375
  20.6063800  57.2482242  31.0834652  20.3500735  56.8478877  31.9142860
  19.9816668  57.9626036  30.9584791  24.9176138  59.9878315  33.5905944
  24.3575696  60.0571504  34.3637506  24.3119642  59.8119300  32.8705440
   7.9871347  71.4215042  35.3424130   7.8703731  72.3660475  35.2402820
   7.1663793  71.1188604  35.7309929  17.8747882  66.1465178  26.1880723
  18.7093485  65.7146376  26.0058197  17.7132224  65.9747192  27.1157617
  17.5293774  62.6497291  27.5537062  17.4742577  62.4841563  26.6125506
  16.9039829  63.3573324  27.7099252   2.3186289  57.8865356  41.3798484
   2.9645152  57.3764310  41.8685709   2.1103440  58.6234037  41.9541909
  14.8439681  64.9546203  46.8790625  15.7130841  65.1286855  46.5177260
  14.3646432  65.7740620  46.7566354  10.8389899  52.1505400  27.1322380
  10.8268569  53.0947240  27.2890651  11.7313321  51.9675546  26.8381841
   9.0125861  72.0743304  38.5580058   9.9153108  72.1066914  38.8746553
   8.7863231  71.1443755  38.5726394  10.7679463  70.8274291  35.2190137
   9.8175094  70.8276152  35.1054509  11.0711949  70.0807025  34.7026172
  14.6542019  48.7448177  31.3868317  13.8874414  48.1906664  31.5324999
  15.0652724  48.8170046  32.2482469   6.6583780  55.0332973  45.4773498
   7.5215241  54.6769778  45.6876823   6.0849190  54.6946867  46.1648903
  26.5032157  76.6634829  36.2835899  27.1410567  76.5441576  35.5799239
  26.3852999  77.6115673  36.3423851  23.3121863  76.6162257  36.2197424
  22.9740374  76.5003322  35.3317959  24.1811631  76.2153422  36.1998430
  19.1708679  78.4697734  32.2094315  18.6073544  78.3787670  31.4410603
  19.0561074  77.6497638  32.6896807  23.7941646  77.7697109  42.1783630
  23.7830287  77.3749907  41.3064133  23.9562285  77.0363181  42.7717401
  16.7173111  79.9648925  35.0478535  17.5094402  79.6239750  34.6324835
  16.9569761  80.0743900  35.9680689  24.7508237  82.1368701  27.5208780
  24.0996217  82.7222782  27.1342794  25.5452600  82.6674896  27.5803817
  18.6763864  79.2257838  27.9195914  19.4494740  78.6786825  27.7808790
  19.0289263  80.0902088  28.1310376  20.5148907  80.5534221  41.1262814
  20.2238773  81.4579851  41.0109480  21.1505891  80.5950748  41.8406883
  21.4405114  77.9311069  37.7164173  22.0368686  77.7067092  37.0021136
  21.4980085  77.1895815  38.3189621  21.0130142  75.3850504  25.5514364
  21.2655663  74.8632026  24.7897827  20.0754701  75.2216650  25.6541048
  26.0573425  74.3886283  33.3589107  26.8436514  73.9705706  33.0079524
  26.3212129  75.2932375  33.5270756  26.2283502  79.8259133  28.0577764
  25.5929335  79.8993760  28.7698669  25.8980909  80.4152732  27.3796843
  31.4581852  74.3261516  34.2622086  32.1907024  73.7560733  34.4959915
  30.7021208  73.9383117  34.7028591  20.7326431  77.2878610  27.7538739
  20.6162689  76.6123514  28.4219823  20.8428691  76.8010984  26.9370892
  23.0757972  76.7488758  31.4585428  22.7116179  76.2219379  32.1698350
  23.9325088  76.3587227  31.2851914  28.9807273  68.0383090  38.7216694
  28.6490597  68.9078501  38.4977909  28.3852886  67.7219374  39.4010725
  22.7163459  71.7778657  26.4546777  22.8837861  72.6458894  26.8217248
  22.5260628  71.9405939  25.5308066  25.4738792  80.2395636  38.1212607
  25.1739515  81.1420675  38.0128414  25.1289852  79.9727819  38.9733760
  18.9251274  76.6909433  34.1549312  18.0001770  76.5585647  34.3627003
  19.1735687  77.4703652  34.6519254  28.8735936  72.7578176  35.8010045
  27.9652813  72.6893585  35.5068806  28.8223532  73.2350121  36.6291870
  22.6952680  74.2336315  27.4393444  22.5752305  74.6793366  28.2778924
  22.0005268  74.5821632  26.8806982  16.2860085  76.3342707  34.9893101
  16.4152466  76.5877185  35.9032512  15.6057536  76.9270415  34.6697756
  20.4559572  87.0039957  31.0883575  20.3783602  87.9547782  31.1672055
  19.8521215  86.6585829  31.7458501  22.9476802  74.1767822  43.7444942
  22.1710136  74.7361742  43.7347806  23.5867365  74.6624605  44.2659812
  30.7397582  70.9594615  37.5787918  30.0971963  71.2527148  36.9327713
  30.2352511  70.8447535  38.3841115  28.3937746  74.7057788  28.2673778
  29.3055602  74.9385175  28.0921475  27.8847393  75.2894832  27.7048856
  21.2023174  76.9853275  43.3062909  21.9437858  77.5238319  43.0297732
  20.4960159  77.6119564  43.4634461  26.6778514  79.1282416  41.9035070
  27.0861870  78.6864826  41.1589703  25.9555775  78.5535043  42.1569263
  23.0309584  74.0655023  39.2768627  23.8770779  74.4894436  39.4203276
  22.9708221  73.4088647  39.9707190  27.0007328  79.6883606  35.6587359
  26.3716191  79.8529321  34.9563427  26.6132990  80.1025216  36.4298323
  30.8796560  80.6238044  33.0131723  30.1947598  81.0036946  32.4628756
  30.9640409  81.2333371  33.7463671  26.1809029  71.7259391  40.9349801
  25.9369961  72.4801451  40.3984077  26.4568960  72.1044738  41.7697048
  28.1347492  78.2698003  39.6127066  28.3464387  78.9129763  38.9361448
  28.0877240  77.4360320  39.1448997  25.7373721  70.8815824  36.5163639
  24.8758200  71.1797077  36.8080376  25.7636155  71.0986223  35.5844671
  22.5535290  79.4258014  32.9237444  23.0173636  79.7045717  32.1342067
  22.2892088  78.5241459  32.7410535  19.4459371  78.9729496  35.8617208
  20.0160728  79.4016764  35.2234692  20.0367483  78.6912081  36.5601393
  21.4904176  75.5481167  29.7327009  22.1928220  76.0002211  30.2000936
  21.1584805  74.9064986  30.3606903  19.9384538  74.1392923  44.1078219
  19.3083198  74.8209204  44.3413616  19.8320626  74.0276005  43.1631357
  15.2329510  73.8064719  35.0344143  14.4428564  74.0622248  34.5584254
  15.7240758  74.6213057  35.1396184  29.2493320  81.1469959  37.7849424
  30.0710763  80.7450146  37.5032105  29.2455723  81.0438193  38.7365540
  17.1844256  74.1709299  31.9927620  16.3875419  74.2827993  32.5111115
  16.9569848  74.5095951  31.1268510  23.0149923  80.6954002  39.9410134
  23.0794356  81.1574409  40.7768306  22.3060847  80.0651367  40.0692444
  13.5167213  74.0595210  37.4659134  13.7675252  74.9442220  37.7316710
  14.0526762  73.8799811  36.6934226  37.3399313  77.4908707  34.1334395
  36.5863021  76.9216105  33.9778400  37.4746854  77.4571372  35.0805030
  22.7297941  82.3622109  29.8089115  22.5943616  83.2073645  30.2373962
  23.2707753  82.5641387  29.0455048  19.2165280  68.4413689  46.4703470
  18.8232226  67.8879888  47.1451114  20.0331421  68.7524268  46.8609987
  16.1827338  79.8797547  30.3817040  16.6951859  80.6740798  30.5322604
  16.8350051  79.1823838  30.3150641  17.9922223  82.9963304  32.4639793
  18.1688851  83.9181268  32.2760777  18.7879056  82.6821723  32.8934173
  22.1333241  69.8571568  44.0623726  22.8742955  70.4578722  43.9828189
  22.3651164  69.1149206  43.5041769  17.2774579  75.0427936  42.3401956
  17.1628095  74.1413193  42.6409055  16.4219097  75.2891632  41.9886773
  24.3566417  82.9845676  43.9389457  23.9130271  82.1982055  43.6210361
  25.0183631  83.1724826  43.2733348  19.1153538  84.5141478  38.4650135
  19.6660963  84.3858541  37.6927129  18.2765014  84.8136367  38.1145028
  26.4547655  83.2648476  41.9670858  26.4366131  84.0857357  41.4751127
  27.3767575  83.1402551  42.1920999  22.9120709  80.7792605  42.8094366
  23.4449046  80.0180894  42.5793674  22.3834791  80.4866257  43.5518521
  26.0790404  65.8852671  38.3388008  25.7354674  66.7754313  38.2627119
  26.4469367  65.6954329  37.4757593  14.1476255  78.2086202  31.1576610
  14.9851477  78.6183210  30.9410318  14.3254523  77.2685644  31.1276804
  26.0440687  75.8761282  26.8460443  25.5287311  76.6465887  27.0848831
  25.7717996  75.2026419  27.4693505  23.6287798  70.7210983  31.9045682
  22.7729394  70.3317834  31.7251320  24.0414750  70.8002944  31.0445467
  25.1586945  68.2557326  36.3037241  24.6551740  68.2187462  35.4905047
  25.4517552  69.1650069  36.3633898  21.4029831  68.3396056  35.3103423
  22.2682827  68.1438865  34.9509313  21.4707340  68.1106408  36.2372780
  31.0174961  78.6293637  28.7813617  30.2404404  78.2904797  28.3368779
  31.6966442  78.6346260  28.1068582  25.8326990  73.7488375  28.6720224
  25.5277126  74.0634524  29.5230368  26.7857432  73.8269794  28.7147557
  24.2773422  79.9078598  30.3213178  23.7494784  79.1731357  30.0086416
  23.7760925  80.6853274  30.0753147  29.2566268  78.1027618  35.4380225
  28.5989943  78.7926880  35.5260353  30.0606667  78.4924050  35.7814211
  19.0092150  70.5698264  32.6819790  19.5835902  70.3473446  31.9492983
  19.5963132  70.6386959  33.4348391  28.0671727  76.4571991  33.4884166
  28.5803609  77.0901983  33.9905876  28.7172951  75.8573187  33.1227526
  19.3361737  72.6002725  26.7015675  18.4999049  72.9377412  27.0224950
  19.1966506  72.4651705  25.7642812  21.3114817  67.4439513  31.4094859
  20.6579230  67.1288530  30.7851474  21.2695292  66.8215254  32.1354682
  22.4226022  77.7258808  23.3248151  21.5153084  77.4948062  23.5239300
  22.9197054  76.9296427  23.5122133  25.3294101  86.4356315  26.2444838
  24.6555800  86.7388012  26.8529795  25.7159923  87.2385396  25.8950295
  24.5452558  73.9321447  35.7342507  23.6275119  74.1536394  35.5764195
  24.9612701  74.0067757  34.8754214  25.3287606  75.3312862  30.8645187
  26.0759425  75.8434259  30.5552309  25.5979195  75.0096915  31.7249581
  23.6014256  77.8271403  27.8472142  22.6925475  77.5430436  27.9444611
  23.6309340  78.2470482  26.9875448  28.8333523  81.4377992  31.6163309
  28.3795850  80.5968902  31.6728500  28.2027490  82.0739391  31.9538089
  27.7766443  72.3669979  32.8463977  27.0389200  71.8547365  33.1774219
  28.0293216  71.9270360  32.0347253  27.2766462  83.2754489  32.5513127
  27.5689437  83.8359546  31.8325493  27.7865083  83.5683050  33.3066286
  27.8778070  65.1446231  33.4405746  28.1836947  64.2843594  33.1531661
  28.6030675  65.7363851  33.2404740  14.1702426  75.5476917  31.8287344
  13.9726826  74.9546278  31.1038410  13.6149090  75.2429127  32.5463282
  22.1499150  75.4400024  33.9481937  22.2047760  74.4873860  33.8724413
  21.3390352  75.5959463  34.4323235  23.2990344  79.3680147  25.1860220
  22.8609773  78.6516006  24.7265857  24.0400784  79.5956261  24.6245311
  20.0891510  74.0577083  31.7072316  19.2759375  74.3571254  32.1137508
  20.5850504  73.6632772  32.4246798  22.2400088  84.0534840  33.6406580
  22.1976266  84.2795687  32.7115112  23.1562786  83.8198215  33.7892382
  25.6865721  74.5218908  40.5387210  26.0415109  74.7490381  41.3981675
  26.3337853  74.8537285  39.9164465  31.4163458  77.6437344  31.2436539
  31.2781357  77.8338940  30.3157728  31.0599677  78.4056727  31.7004590
  19.5805584  71.6295439  37.3233551  20.2204964  71.4884198  36.6256514
  18.7483115  71.3429952  36.9472153  31.4432838  79.7113871  36.2547810
  31.8769345  79.6189160  37.1030864  32.1564419  79.6871371  35.6167826
  20.3565888  80.9297869  33.4368543  21.1506487  80.4348189  33.2351118
  19.6457581  80.4015732  33.0736249  25.1760733  83.3115965  37.7880911
  25.2297755  83.8806901  38.5558627  24.3075514  83.4817850  37.4234948
  16.6648652  75.0740951  29.5128296  15.7346240  75.0125407  29.7298258
  16.7606124  74.5516904  28.7164937  16.5834201  71.5995764  32.1006537
  16.8441018  72.5141097  31.9915698  17.4051373  71.1320206  32.2503150
  18.0559126  73.0133521  39.2705362  18.7282180  72.8050883  38.6218011
  17.2288913  72.8155607  38.8310594  32.3048388  79.7537571  38.7880696
  32.4984278  80.6583382  39.0339970  32.2049006  79.2944990  39.6219281
  23.9584698  69.6395462  41.2871023  23.3112613  70.3385412  41.1935499
  24.7285714  70.0731606  41.6547271  27.3663496  79.9044314  44.3621576
  27.2149003  79.6754866  43.4451660  27.3568176  80.8614916  44.3752921
  24.1348833  77.4776227  39.3467843  25.0640893  77.6287386  39.1736810
  23.7139863  77.5660248  38.4916489  22.9337164  81.5026891  37.1166380
  22.7948250  81.1345676  37.9892318  22.1451761  82.0174531  36.9450338
  23.5285316  86.6035988  28.4591917  23.7037072  86.1324031  29.2737539
  22.8418104  87.2301754  28.6873177  24.4842380  80.8808494  34.5055218
  24.1492212  80.8409264  35.4012868  23.9846325  80.2153210  34.0325628
  18.4586623  76.2876124  40.0307799  18.3206421  75.5556363  40.6319338
  19.3691547  76.1985024  39.7491987  27.4201571  78.2264528  24.7792278
  26.8030742  77.5011356  24.6825330  26.9518060  78.9873889  24.4359352
  21.0868924  75.9996083  39.5191479  21.7968543  75.3589276  39.4778097
  21.0438232  76.2508978  40.4417660  29.0755703  82.9363437  42.4398058
  29.0168249  82.2522657  41.7728641  29.4775221  83.6782427  41.9878684
  19.7997858  72.9861301  41.3387118  19.2635215  72.5352040  41.9908715
  19.2114567  73.1207210  40.5957583  18.0946402  89.7525351  35.2331777
  18.3343000  90.3843875  35.9110795  17.2515598  89.4013391  35.5197136
  19.2100117  72.4449953  23.9013582  18.3329583  72.3238753  23.5375829
  19.6857870  71.6536031  23.6492471  29.0773110  80.9003021  40.6712038
  28.1899889  80.5628942  40.7938437  29.6471661  80.1686052  40.9080803
  10.7302257  77.2327112  33.9955089  11.4173297  76.9188842  33.4076104
  10.5750386  78.1368477  33.7222341  15.5336979  72.1217309  38.4240113
  15.4495168  71.5142978  37.6890523  14.7119686  72.6126327  38.4249609
  22.6074263  85.5604473  37.6373281  22.5344435  86.3659444  38.1492585
  22.1651657  85.7596439  36.8121302  22.3964043  84.7976243  31.1476102
  21.6131565  85.3397923  31.2414327  23.0956788  85.3150223  31.5470344
  25.7060693  70.6070872  33.7910308  26.2029393  69.8540835  33.4711378
  24.9347675  70.6435189  33.2253517  33.5590451  76.3111238  35.4328599
  33.5480327  77.1935953  35.0622532  32.6907830  75.9582789  35.2383136
  25.0672947  85.4591307  39.7931440  25.7800919  86.0938772  39.7207341
  24.5762976  85.5555173  38.9771441  26.7890474  79.3642560  31.3648731
  25.8546753  79.4844022  31.1953436  26.9667142  78.4615026  31.1008741
  22.2895662  72.7488255  33.5181992  21.9193449  72.1959296  34.2062898
  22.7854754  72.1446389  32.9656992  30.1763025  75.2059879  31.8998765
  30.6423477  76.0387871  31.8259068  30.6270526  74.7404861  32.6044024
  20.1184861  83.2085750  40.6137010  20.8194320  83.8422233  40.7666405
  19.6479976  83.5500482  39.8532650  28.2439256  81.5503700  28.8984917
  28.5199100  81.4360295  29.8078791  27.3743755  81.1521185  28.8597090
  28.1479688  67.5740466  35.9389667  27.2342768  67.8044693  36.1071874
  28.5772789  67.6578910  36.7903699  27.9186147  75.7630358  38.4389561
  27.2657597  76.0106265  37.7842013  28.2966526  74.9494496  38.1052038
  24.8793320  85.7990051  32.5417731  25.0615715  84.9811707  33.0045483
  25.7026306  86.0157743  32.1042621  25.2135486  84.7258236  29.8032780
  25.7423252  84.2150691  29.1902942  25.4763705  84.4100766  30.6678313
  23.9673720  76.5050169  44.9255598  23.2914357  76.4044298  45.5957973
  24.7901353  76.3489383  45.3891595  15.7152579  82.7422105  37.5468113
  16.3006015  81.9965793  37.6796017  15.5177417  83.0526062  38.4304777
  18.5691234  85.7773353  32.5630555  17.9001609  86.2619481  32.0794595
  18.4304104  86.0242573  33.4773934  10.3070233  75.3127706  36.2672556
  10.3454333  74.7791296  37.0609674   9.8010526  74.7862911  35.6483533
  22.7096502  87.8117096  39.1613214  23.2614810  87.9748718  39.9262299
  23.0502696  88.4021534  38.4893239  17.6860996  70.1592246  39.7635099
  17.7502322  71.0207077  39.3512496  17.6228116  69.5466248  39.0307457
  17.1613268  72.2315379  43.4108133  17.7885307  71.8492456  44.0245657
  16.3041187  72.0129581  43.7763825  27.5607377  82.6378354  45.0161868
  28.1047281  83.2508312  44.5216823  26.9794222  83.1957932  45.5328881
  13.9378811  74.0391808  29.3426488  14.2332252  73.1302486  29.2893541
  13.0366847  74.0179547  29.0207490  25.8464890  85.7599072  36.1476896
  25.7216029  84.9588812  35.6387841  26.5043981  86.2545265  35.6590866
  17.4673058  72.1147804  35.3254036  16.7459644  72.7283772  35.1861510
  18.2566314  72.6505569  35.2470682  27.9099798  83.5608092  37.7756446
  26.9630134  83.4413443  37.7034773  28.2582571  82.6730590  37.8582707
  20.2699371  69.4502231  41.5994688  20.7933773  69.6964527  42.3620997
  20.0511705  70.2822266  41.1797825  15.6666653  71.7205906  29.4665813
  15.3379359  70.8403284  29.2840919  16.0206023  71.6653574  30.3542202
  24.9146231  83.3560808  33.9760798  24.7671194  82.4277516  34.1568368
  25.7399725  83.3780899  33.4917874  18.7808476  72.0078875  29.8341290
  19.1204548  72.5364797  29.1119899  19.2280596  72.3459281  30.6099857
  28.5180353  84.1789367  35.0625671  29.4426901  83.9732228  34.9250122
  28.3495657  83.9305768  35.9715013  21.4751916  70.3915926  39.2844358
  21.1348737  69.5923739  39.6865038  20.7690923  70.6917637  38.7121192
  22.1268388  67.4765238  37.7371682  22.9494458  67.0025717  37.6150572
  22.3706452  68.2555722  38.2370368  20.7676623  70.5053497  28.0334583
  21.4884985  70.8834750  27.5298300  20.1441927  71.2242374  28.1369561
  24.9107746  71.2098646  28.9692916  25.1271360  72.0923284  28.6681744
  24.4301813  70.8184859  28.2398558  19.6506967  74.1684359  35.5463660
  19.5051548  74.4824662  36.4387942  19.1732171  74.7869259  34.9934559
  21.5103350  71.1586907  35.5944550  21.4964919  70.2628000  35.2576848
  22.2275778  71.1657571  36.2282836  23.3629481  71.5924247  37.6397677
  23.1047258  72.5141318  37.6382008  22.8314521  71.1954682  38.3298141
  28.3075669  84.6975034  30.4187762  28.4812547  84.1321457  29.6661615
  28.8004561  85.4975929  30.2367252  14.1252629  76.7089703  38.4851321
  13.5806097  77.4849511  38.6171596  15.0031979  77.0560508  38.3270443
  20.9140246  70.0401287  30.8632120  21.0356157  69.1117934  31.0623007
  20.6242288  70.0539973  29.9510435  23.7831436  67.7256198  33.9998840
  23.8053133  67.7895531  33.0450819  24.1999495  66.8860706  34.1939346
  34.1615061  77.4611457  32.0378062  34.6046207  76.7118783  31.6397186
  33.2841571  77.4521594  31.6551794  29.2950842  84.0141799  27.5184661
  29.9901747  84.6348491  27.7371975  29.6373992  83.1637150  27.7937039
  14.9118651  75.8359600  41.3781478  14.1700387  75.9842235  41.9646109
  14.5911395  76.0967865  40.5148228  31.1942265  81.4641504  29.0471992
  31.7193589  81.8028777  28.3221312  31.1064618  80.5288520  28.8635126
  22.8562314  85.3775578  41.1761868  23.1649440  85.1324725  42.0484568
  23.6537796  85.5822216  40.6880738  22.8782926  87.5313488  33.4067245
  22.4387916  87.0389866  34.1000101  23.6291043  86.9886455  33.1659320
  15.3575265  83.7225028  33.4091873  16.1833285  83.4228800  33.0290516
  15.0069317  82.9532651  33.8581661  20.3256798  83.0751497  35.4789546
  19.7036807  82.4122202  35.1791774  20.9961665  83.1012629  34.7963194
  13.5583870  81.6411355  34.3680806  12.7215778  81.2133529  34.1864808
  13.5307515  81.8343798  35.3051598  20.3981325  71.5533285  45.0722052
  20.4469481  72.4295408  44.6899822  20.9403840  71.0110678  44.4993696
  30.8836171  82.0974408  44.3523190  30.0931715  82.0798547  43.8127689
  30.6469526  82.6362702  45.1072226  31.0034046  78.9466874  41.6655918
  31.0532051  78.7816882  42.6071441  30.8947969  78.0794133  41.2753799
  19.8870305  81.6255420  28.9548007  20.0358425  82.3090884  28.3014680
  20.6936748  81.6060510  29.4697463  28.2937809  74.9297802  42.9815225
  29.1947671  74.7904267  42.6899223  28.3685783  75.0952257  43.9213402
  22.6280614  72.3064657  41.8268411  21.7583923  72.5998223  41.5551000
  22.8640094  72.8905102  42.5475675  32.5052243  81.3663816  41.9097940
  32.2137051  81.7293796  42.7461401  31.8924374  80.6530824  41.7311272
  33.7047925  78.9316696  34.4300510  34.5394817  79.3706500  34.5938070
  33.8407054  78.4555349  33.6108756  30.7539431  76.4896430  40.3777998
  31.2293553  76.6824077  39.5696849  29.8304997  76.5455616  40.1321381
  17.6422938  77.6520598  29.9609076  17.3968980  76.7482928  30.1589286
  17.8118852  77.6537748  29.0188554  25.3319648  68.5244274  39.3433831
  25.8501592  69.2605301  39.0180320  24.9774780  68.8308267  40.1780591
  16.9118585  73.3848955  27.4595237  16.2187830  73.4593310  26.8035273
  16.6670337  72.6209299  27.9816754  25.5832242  64.9444557  34.8634728
  25.8633996  64.2767746  35.4895155  26.3682849  65.1373652  34.3509392
  23.3865710  84.1203550  26.4259754  22.8139677  84.7393738  25.9730226
  23.9598504  84.6702912  26.9599676  29.4541100  73.3662191  38.6106303
  30.4058523  73.4660288  38.6318527  29.2844551  72.5740459  39.1204388
  27.4755480  70.4517774  38.7965704  26.8805412  70.7322787  38.1012193
  27.1905176  70.9411675  39.5682445  26.6062970  84.4040701  27.5568337
  27.5393643  84.3386262  27.7601212  26.5186183  85.2396967  27.0982869
  29.2350987  83.7206571  24.5172284  29.1564618  83.3866435  25.4108042
  30.0560654  84.2128339  24.5163757  31.9329178  76.5868310  37.7248603
  31.9005498  75.6484311  37.9108287  32.5429802  76.6652347  36.9914428
  23.7712509  75.4564363  23.7675807  24.7171614  75.3270571  23.8364225
  23.3926754  74.7179025  24.2445235  32.0823666  73.3779354  37.7706886
  31.5662715  72.5937810  37.5836815  32.9663615  73.0498070  37.9353405
  29.7434393  67.1220369  33.7302699  29.5459215  66.8135457  34.6146031
  30.3534099  67.8482008  33.8600629  37.7505728  77.6484317  36.8654640
  38.4809116  77.3869605  37.4262343  37.1412673  76.9113039  36.9056708
  35.8321025  75.7892180  37.4629091  35.1054189  75.6548145  36.8545582
  35.4168312  76.0969008  38.2685809  23.6551201  79.5082109  45.2276464
  24.5754211  79.6860708  45.4216510  23.6200784  78.5638155  45.0756163
  21.9555426  73.3814340  23.7030692  21.0486881  73.0847452  23.7793406
  22.2331407  73.0844158  22.8364978  12.8733366  74.7020703  34.1529738
  12.5536151  73.8486011  33.8604112  12.3266795  74.9169281  34.9087706
  16.6513274  77.4183144  37.8699245  16.8699284  78.3500252  37.8887279
  17.0639048  77.0591118  38.6554049  23.5717492  67.9251229  29.8574933
  22.7618220  67.5798314  30.2330179  24.2601909  67.6158773  30.4462545
  25.5008040  67.0029276  31.4799230  26.0539079  67.4224730  32.1389253
  25.7378126  66.0765024  31.5222186  21.5241139  72.9916350  47.2601994
  21.4237866  73.9410707  47.1914085  21.3062681  72.6634589  46.3878064
  20.7254211  70.2401275  23.8442671  21.5873375  70.5656173  24.1038489
  20.9104555  69.4532771  23.3315737  12.7421626  78.3223615  36.1222860
  12.0485098  77.9077567  35.6092814  13.4894617  78.3644151  35.5256279
  28.8786847  69.1129801  30.9877894  28.2985516  69.7714605  30.6055947
  28.6122780  68.2907146  30.5765312  27.3290413  68.5134859  33.1899215
  27.8290192  68.6251394  32.3813533  27.9726021  68.2095912  33.8300023
  21.3872409  76.4213489  46.0767056  20.9039491  77.2213849  46.2830945
  21.4733348  76.4321434  45.1234500  14.6558369  78.2541868  33.9988875
  14.6329057  78.3529556  33.0470758  14.9659005  79.1007019  34.3206041
  17.3145747  80.3118023  38.1135489  18.2689000  80.2801966  38.0465421
  17.1158270  79.8508647  38.9285715  17.9045129  78.8819139  40.6806287
  18.7238018  79.3763218  40.7041124  18.1781937  77.9651108  40.6523855
  27.6611725  71.2729892  30.0434243  26.7737580  71.5579542  29.8254437
  28.0765714  71.1123655  29.1961519  31.0126261  71.2976413  33.7588582
  31.7886651  71.7872865  34.0313199  30.2874395  71.7234467  34.2160451
  33.4498820  72.0104032  34.8162522  34.0443311  71.7699768  34.1055831
  33.5225404  71.2911162  35.4436059  15.6695976  85.8537643  35.1305687
  15.5350444  85.0938044  34.5643685  15.2528038  86.5778543  34.6634476
  26.8054939  81.0374566  24.1382263  27.5090789  81.2424569  24.7539918
  26.0817587  81.6051328  24.4031346  27.6352749  76.7884428  30.2584533
  27.5787950  77.2452979  29.4192165  28.1881091  76.0275112  30.0807375
  31.4457555  72.5774159  31.0834652  31.1894489  72.1770795  31.9142860
  30.8210423  73.2917953  30.9584791  35.7569893  75.3170233  33.5905944
  35.1969451  75.3863422  34.3637506  35.1513396  75.1411217  32.8705440
  18.8265101  86.7506960  35.3424130  18.7097486  87.6952392  35.2402820
  18.0057548  86.4480521  35.7309929  28.7141636  81.4757096  26.1880723
  29.5487240  81.0438294  26.0058197  28.5525979  81.3039109  27.1157617
  28.3687528  77.9789209  27.5537062  28.3136332  77.8133480  26.6125506
  27.7433583  78.6865242  27.7099252  13.1580043  73.2157273  41.3798484
  13.8038907  72.7056227  41.8685709  12.9497194  73.9525955  41.9541909
  25.6833435  80.2838121  46.8790625  26.5524595  80.4578773  46.5177260
  25.2040187  81.1032538  46.7566354  21.6783654  67.4797318  27.1322380
  21.6662323  68.4239158  27.2890651  22.5707076  67.2967463  26.8381841
  19.8519616  87.4035222  38.5580058  20.7546862  87.4358832  38.8746553
  19.6256986  86.4735673  38.5726394  21.6073218  86.1566208  35.2190137
  20.6568849  86.1568070  35.1054509  21.9105704  85.4098943  34.7026172
  25.4935773  64.0740095  31.3868317  24.7268169  63.5198581  31.5324999
  25.9046478  64.1461963  32.2482469  17.4977534  70.3624890  45.4773498
  18.3608996  70.0061695  45.6876823  16.9242945  70.0238785  46.1648903
  37.3425911  91.9926747  36.2835899  37.9804321  91.8733494  35.5799239
  37.2246754  92.9407591  36.3423851  34.1515617  91.9454175  36.2197424
  33.8134129  91.8295239  35.3317959  35.0205386  91.5445340  36.1998430
  30.0102433  93.7989651  32.2094315  29.4467298  93.7079588  31.4410603
  29.8954828  92.9789556  32.6896807  34.6335400  93.0989027  42.1783630
  34.6224041  92.7041825  41.3064133  34.7956040  92.3655099  42.7717401
  27.5566865  95.2940843  35.0478535  28.3488157  94.9531667  34.6324835
  27.7963515  95.4035818  35.9680689  35.5901992  97.4660619  27.5208780
  34.9389972  98.0514699  27.1342794  36.3846355  97.9966814  27.5803817
  29.5157619  94.5549756  27.9195914  30.2888495  94.0078743  27.7808790
  29.8683018  95.4194005  28.1310376  31.3542662  95.8826138  41.1262814
  31.0632527  96.7871769  41.0109480  31.9899646  95.9242666  41.8406883
  32.2798868  93.2602987  37.7164173  32.8762441  93.0359009  37.0021136
  32.3373840  92.5187732  38.3189621  31.8523897  90.7142422  25.5514364
  32.1049417  90.1923943  24.7897827  30.9148456  90.5508568  25.6541048
  36.8967180  89.7178201  33.3589107  37.6830269  89.2997624  33.0079524
  37.1605884  90.6224293  33.5270756  37.0677257  95.1551051  28.0577764
  36.4323090  95.2285677  28.7698669  36.7374663  95.7444650  27.3796843
  42.2975607  89.6553434  34.2622086  43.0300779  89.0852651  34.4959915
  41.5414962  89.2675034  34.7028591  31.5720186  92.6170528  27.7538739
  31.4556444  91.9415432  28.4219823  31.6822445  92.1302902  26.9370892
  33.9151726  92.0780675  31.4585428  33.5509934  91.5511296  32.1698350
  34.7718842  91.6879144  31.2851914  39.8201027  83.3675008  38.7216694
  39.4884352  84.2370419  38.4977909  39.2246640  83.0511292  39.4010725
  33.5557213  87.1070575  26.4546777  33.7231616  87.9750811  26.8217248
  33.3654382  87.2697857  25.5308066  36.3132547  95.5687554  38.1212607
  36.0133270  96.4712593  38.0128414  35.9683606  95.3019737  38.9733760
  29.7645028  92.0201351  34.1549312  28.8395525  91.8877565  34.3627003
  30.0129441  92.7995570  34.6519254  39.7129690  88.0870094  35.8010045
  38.8046568  88.0185502  35.5068806  39.6617286  88.5642039  36.6291870
  33.5346434  89.5628232  27.4393444  33.4146059  90.0085283  28.2778924
  32.8399023  89.9113550  26.8806982  27.1253839  91.6634624  34.9893101
  27.2546220  91.9169103  35.9032512  26.4451290  92.2562332  34.6697756
  31.2953326 102.3331874  31.0883575  31.2177356 103.2839699  31.1672055
  30.6914970 101.9877747  31.7458501  33.7870556  89.5059740  43.7444942
  33.0103890  90.0653660  43.7347806  34.4261119  89.9916523  44.2659812
  41.5791337  86.2886532  37.5787918  40.9365717  86.5819066  36.9327713
  41.0746265  86.1739453  38.3841115  39.2331500  90.0349706  28.2673778
  40.1449357  90.2677092  28.0921475  38.7241148  90.6186750  27.7048856
  32.0416928  92.3145193  43.3062909  32.7831613  92.8530237  43.0297732
  31.3353914  92.9411482  43.4634461  37.5172268  94.4574333  41.9035070
  37.9255624  94.0156744  41.1589703  36.7949530  93.8826961  42.1569263
  33.8703338  89.3946940  39.2768627  34.7164533  89.8186354  39.4203276
  33.8101976  88.7380565  39.9707190  37.8401083  95.0175524  35.6587359
  37.2109945  95.1821238  34.9563427  37.4526745  95.4317134  36.4298323
  41.7190315  95.9529962  33.0131723  41.0341353  96.3328863  32.4628756
  41.8034164  96.5625289  33.7463671  37.0202783  87.0551309  40.9349801
  36.7763715  87.8093369  40.3984077  37.2962714  87.4336656  41.7697048
  38.9741246  93.5989921  39.6127066  39.1858141  94.2421681  38.9361448
  38.9270995  92.7652237  39.1448997  36.5767475  86.2107742  36.5163639
  35.7151954  86.5088995  36.8080376  36.6029910  86.4278140  35.5844671
  33.3929045  94.7549932  32.9237444  33.8567390  95.0337635  32.1342067
  33.1285843  93.8533377  32.7410535  30.2853126  94.3021414  35.8617208
  30.8554483  94.7308682  35.2234692  30.8761238  94.0203998  36.5601393
  32.3297931  90.8773085  29.7327009  33.0321974  91.3294128  30.2000936
  31.9978559  90.2356903  30.3606903  30.7778292  89.4684841  44.1078219
  30.1476953  90.1501122  44.3413616  30.6714380  89.3567923  43.1631357
  26.0723265  89.1356637  35.0344143  25.2822319  89.3914166  34.5584254
  26.5634512  89.9504975  35.1396184  40.0887074  96.4761876  37.7849424
  40.9104518  96.0742064  37.5032105  40.0849477  96.3730111  38.7365540
  28.0238010  89.5001216  31.9927620  27.2269173  89.6119911  32.5111115
  27.7963602  89.8387869  31.1268510  33.8543678  96.0245920  39.9410134
  33.9188110  96.4866327  40.7768306  33.1454602  95.3943285  40.0692444
  24.3560968  89.3887128  37.4659134  24.6069006  90.2734138  37.7316710
  24.8920516  89.2091729  36.6934226  48.1793067  92.8200625  34.1334395
  47.4256776  92.2508023  33.9778400  48.3140608  92.7863289  35.0805030
  33.5691695  97.6914027  29.8089115  33.4337370  98.5365563  30.2373962
  34.1101508  97.8933305  29.0455048  30.0559035  83.7705607  46.4703470
  29.6625981  83.2171806  47.1451114  30.8725175  84.0816185  46.8609987
  27.0221093  95.2089465  30.3817040  27.5345613  96.0032715  30.5322604
  27.6743806  94.5115756  30.3150641  28.8315977  98.3255221  32.4639793
  29.0082606  99.2473186  32.2760777  29.6272811  98.0113641  32.8934173
  32.9726996  85.1863486  44.0623726  33.7136709  85.7870639  43.9828189
  33.2044919  84.4441124  43.5041769  28.1168334  90.3719853  42.3401956
  28.0021849  89.4705111  42.6409055  27.2612852  90.6183550  41.9886773
  35.1960172  98.3137594  43.9389457  34.7524026  97.5273972  43.6210361
  35.8577385  98.5016744  43.2733348  29.9547293  99.8433395  38.4650135
  30.5054718  99.7150459  37.6927129  29.1158769 100.1428284  38.1145028
  37.2941410  98.5940394  41.9670858  37.2759885  99.4149275  41.4751127
  38.2161330  98.4694469  42.1920999  33.7514464  96.1084523  42.8094366
  34.2842801  95.3472811  42.5793674  33.2228545  95.8158175  43.5518521
  36.9184159  81.2144589  38.3388008  36.5748428  82.1046231  38.2627119
  37.2863121  81.0246247  37.4757593  24.9870009  93.5378119  31.1576610
  25.8245231  93.9475128  30.9410318  25.1648277  92.5977562  31.1276804
  36.8834442  91.2053200  26.8460443  36.3681065  91.9757805  27.0848831
  36.6111750  90.5318336  27.4693505  34.4681553  86.0502901  31.9045682
  33.6123149  85.6609751  31.7251320  34.8808504  86.1294862  31.0445467
  35.9980699  83.5849244  36.3037241  35.4945495  83.5479379  35.4905047
  36.2911306  84.4941987  36.3633898  32.2423585  83.6687974  35.3103423
  33.1076582  83.4730783  34.9509313  32.3101094  83.4398326  36.2372780
  41.8568716  93.9585555  28.7813617  41.0798158  93.6196714  28.3368779
  42.5360197  93.9638178  28.1068582  36.6720745  89.0780292  28.6720224
  36.3670880  89.3926441  29.5230368  37.6251187  89.1561712  28.7147557
  35.1167177  95.2370516  30.3213178  34.5888538  94.5023275  30.0086416
  34.6154679  96.0145192  30.0753147  40.0960023  93.4319536  35.4380225
  39.4383697  94.1218797  35.5260353  40.9000422  93.8215968  35.7814211
  29.8485904  85.8990182  32.6819790  30.4229656  85.6765363  31.9492983
  30.4356887  85.9678876  33.4348391  38.9065481  91.7863909  33.4884166
  39.4197363  92.4193901  33.9905876  39.5566705  91.1865104  33.1227526
  30.1755491  87.9294643  26.7015675  29.3392804  88.2669329  27.0224950
  30.0360261  87.7943623  25.7642812  32.1508572  82.7731431  31.4094859
  31.4972984  82.4580448  30.7851474  32.1089046  82.1507171  32.1354682
  33.2619777  93.0550726  23.3248151  32.3546839  92.8239979  23.5239300
  33.7590809  92.2588345  23.5122133  36.1687856 101.7648233  26.2444838
  35.4949554 102.0679930  26.8529795  36.5553678 102.5677313  25.8950295
  35.3846312  89.2613364  35.7342507  34.4668874  89.4828311  35.5764195
  35.8006456  89.3359675  34.8754214  36.1681360  90.6604780  30.8645187
  36.9153179  91.1726177  30.5552309  36.4372950  90.3388833  31.7249581
  34.4408010  93.1563321  27.8472142  33.5319229  92.8722353  27.9444611
  34.4703094  93.5762399  26.9875448  39.6727278  96.7669910  31.6163309
  39.2189605  95.9260820  31.6728500  39.0421244  97.4031309  31.9538089
  38.6160197  87.6961896  32.8463977  37.8782954  87.1839282  33.1774219
  38.8686971  87.2562278  32.0347253  38.1160217  98.6046407  32.5513127
  38.4083191  99.1651464  31.8325493  38.6258837  98.8974968  33.3066286
  38.7171825  80.4738148  33.4405746  39.0230701  79.6135512  33.1531661
  39.4424429  81.0655768  33.2404740  25.0096181  90.8768835  31.8287344
  24.8120580  90.2838195  31.1038410  24.4542845  90.5721045  32.5463282
  32.9892904  90.7691941  33.9481937  33.0441514  89.8165778  33.8724413
  32.1784106  90.9251380  34.4323235  34.1384098  94.6972064  25.1860220
  33.7003528  93.9807923  24.7265857  34.8794539  94.9248179  24.6245311
  30.9285264  89.3869001  31.7072316  30.1153130  89.6863172  32.1137508
  31.4244258  88.9924690  32.4246798  33.0793842  99.3826758  33.6406580
  33.0370021  99.6087604  32.7115112  33.9956541  99.1490133  33.7892382
  36.5259476  89.8510825  40.5387210  36.8808864  90.0782299  41.3981675
  37.1731607  90.1829202  39.9164465  42.2557213  92.9729261  31.2436539
  42.1175111  93.1630857  30.3157728  41.8993432  93.7348644  31.7004590
  30.4199339  86.9587357  37.3233551  31.0598718  86.8176116  36.6256514
  29.5876870  86.6721870  36.9472153  42.2826592  95.0405788  36.2547810
  42.7163099  94.9481077  37.1030864  42.9958173  95.0163289  35.6167826
  31.1959643  96.2589787  33.4368543  31.9900241  95.7640107  33.2351118
  30.4851335  95.7307650  33.0736249  36.0154487  98.6407882  37.7880911
  36.0691510  99.2098819  38.5558627  35.1469269  98.8109768  37.4234948
  27.5042406  90.4032869  29.5128296  26.5739994  90.3417324  29.7298258
  27.5999878  89.8808821  28.7164937  27.4227955  86.9287682  32.1006537
  27.6834773  87.8433015  31.9915698  28.2445128  86.4612124  32.2503150
  28.8952881  88.3425439  39.2705362  29.5675934  88.1342801  38.6218011
  28.0682667  88.1447525  38.8310594  43.1442142  95.0829489  38.7880696
  43.3378032  95.9875300  39.0339970  43.0442760  94.6236908  39.6219281
  34.7978453  84.9687380  41.2871023  34.1506368  85.6677329  41.1935499
  35.5679468  85.4023524  41.6547271  38.2057251  95.2336232  44.3621576
  38.0542757  95.0046783  43.4451660  38.1961930  96.1906833  44.3752921
  34.9742587  92.8068145  39.3467843  35.9034647  92.9579304  39.1736810
  34.5533617  92.8952165  38.4916489  33.7730919  96.8318809  37.1166380
  33.6342005  96.4637593  37.9892318  32.9845515  97.3466448  36.9450338
  34.3679071 101.9327905  28.4591917  34.5430827 101.4615949  29.2737539
  33.6811859 102.5593672  28.6873177  35.3236134  96.2100412  34.5055218
  34.9885967  96.1701182  35.4012868  34.8240080  95.5445128  34.0325628
  29.2980378  91.6168042  40.0307799  29.1600176  90.8848280  40.6319338
  30.2085301  91.5276942  39.7491987  38.2595326  93.5556446  24.7792278
  37.6424496  92.8303274  24.6825330  37.7911814  94.3165806  24.4359352
  31.9262679  91.3288001  39.5191479  32.6362297  90.6881193  39.4778097
  31.8831987  91.5800896  40.4417660  39.9149457  98.2655354  42.4398058
  39.8562003  97.5814574  41.7728641  40.3168976  99.0074344  41.9878684
  30.6391613  88.3153219  41.3387118  30.1028970  87.8643957  41.9908715
  30.0508321  88.4499128  40.5957583  28.9340156 105.0817268  35.2331777
  29.1736754 105.7135792  35.9110795  28.0909353 104.7305308  35.5197136
  30.0493872  87.7741870  23.9013582  29.1723338  87.6530671  23.5375829
  30.5251625  86.9827949  23.6492471  39.9166865  96.2294938  40.6712038
  39.0293643  95.8920860  40.7938437  40.4865416  95.4977970  40.9080803
  21.5696012  92.5619030  33.9955089  22.2567052  92.2480760  33.4076104
  21.4144140  93.4660395  33.7222341  26.3730734  87.4509227  38.4240113
  26.2888923  86.8434896  37.6890523  25.5513440  87.9418245  38.4249609
  33.4468018 100.8896391  37.6373281  33.3738189 101.6951362  38.1492585
  33.0045411 101.0888356  36.8121302  33.2357798 100.1268161  31.1476102
  32.4525319 100.6689841  31.2414327  33.9350543 100.6442140  31.5470344
  36.5454448  85.9362790  33.7910308  37.0423147  85.1832752  33.4711378
  35.7741429  85.9727107  33.2253517  44.3984205  91.6403156  35.4328599
  44.3874081  92.5227871  35.0622532  43.5301585  91.2874706  35.2383136
  35.9066701 100.7883225  39.7931440  36.6194674 101.4230689  39.7207341
  35.4156730 100.8847091  38.9771441  37.6284228  94.6934477  31.3648731
  36.6940507  94.8135940  31.1953436  37.8060897  93.7906944  31.1008741
  33.1289416  88.0780173  33.5181992  32.7587204  87.5251213  34.2062898
  33.6248509  87.4738307  32.9656992  41.0156780  90.5351797  31.8998765
  41.4817232  91.3679788  31.8259068  41.4664280  90.0696778  32.6044024
  30.9578615  98.5377668  40.6137010  31.6588075  99.1714151  40.7666405
  30.4873730  98.8792400  39.8532650  39.0833011  96.8795618  28.8984917
  39.3592855  96.7652212  29.8078791  38.2137510  96.4813103  28.8597090
  38.9873442  82.9032384  35.9389667  38.0736522  83.1336610  36.1071874
  39.4166544  82.9870828  36.7903699  38.7579901  91.0922276  38.4389561
  38.1051351  91.3398183  37.7842013  39.1360281  90.2786414  38.1052038
  35.7187075 101.1281969  32.5417731  35.9009469 100.3103625  33.0045483
  36.5420061 101.3449661  32.1042621  36.0529240 100.0550154  29.8032780
  36.5817007  99.5442608  29.1902942  36.3157460  99.7392684  30.6678313
  34.8067474  91.8342087  44.9255598  34.1308111  91.7336216  45.5957973
  35.6295108  91.6781300  45.3891595  26.5546333  98.0714023  37.5468113
  27.1399770  97.3257711  37.6796017  26.3571172  98.3817980  38.4304777
  29.4084988 101.1065271  32.5630555  28.7395364 101.5911398  32.0794595
  29.2697858 101.3534491  33.4773934  21.1463988  90.6419623  36.2672556
  21.1848087  90.1083214  37.0609674  20.6404281  90.1154829  35.6483533
  33.5490257 103.1409014  39.1613214  34.1008565 103.3040636  39.9262299
  33.8896450 103.7313452  38.4893239  28.5254750  85.4884164  39.7635099
  28.5896077  86.3498995  39.3512496  28.4621870  84.8758166  39.0307457
  28.0007023  87.5607296  43.4108133  28.6279061  87.1784374  44.0245657
  27.1434942  87.3421498  43.7763825  38.4001131  97.9670272  45.0161868
  38.9441035  98.5800230  44.5216823  37.8187976  98.5249850  45.5328881
  24.7772565  89.3683726  29.3426488  25.0726006  88.4594404  29.2893541
  23.8760601  89.3471465  29.0207490  36.6858644 101.0890990  36.1476896
  36.5609784 100.2880729  35.6387841  37.3437735 101.5837183  35.6590866
  28.3066812  87.4439722  35.3254036  27.5853398  88.0575690  35.1861510
  29.0960068  87.9797487  35.2470682  38.7493553  98.8900010  37.7756446
  37.8023888  98.7705361  37.7034773  39.0976326  98.0022508  37.8582707
  31.1093126  84.7794149  41.5994688  31.6327528  85.0256445  42.3620997
  30.8905459  85.6114183  41.1797825  26.5060407  87.0497823  29.4665813
  26.1773113  86.1695202  29.2840919  26.8599778  86.9945492  30.3542202
  35.7539986  98.6852726  33.9760798  35.6064948  97.7569433  34.1568368
  36.5793479  98.7072817  33.4917874  29.6202230  87.3370793  29.8341290
  29.9598303  87.8656714  29.1119899  30.0674351  87.6751199  30.6099857
  39.3574108  99.5081285  35.0625671  40.2820655  99.3024146  34.9250122
  39.1889411  99.2597686  35.9715013  32.3145671  85.7207844  39.2844358
  31.9742491  84.9215657  39.6865038  31.6084677  86.0209555  38.7121192
  32.9662143  82.8057156  37.7371682  33.7888212  82.3317634  37.6150572
  33.2100206  83.5847640  38.2370368  31.6070377  85.8345415  28.0334583
  32.3278740  86.2126667  27.5298300  30.9835681  86.5534291  28.1369561
  35.7501500  86.5390564  28.9692916  35.9665115  87.4215201  28.6681744
  35.2695567  86.1476777  28.2398558  30.4900722  89.4976277  35.5463660
  30.3445302  89.8116580  36.4387942  30.0125925  90.1161177  34.9934559
  32.3497104  86.4878825  35.5944550  32.3358673  85.5919918  35.2576848
  33.0669533  86.4949489  36.2282836  34.2023235  86.9216165  37.6397677
  33.9441013  87.8433236  37.6382008  33.6708276  86.5246599  38.3298141
  39.1469424 100.0266952  30.4187762  39.3206301  99.4613375  29.6661615
  39.6398315 100.8267847  30.2367252  24.9646384  92.0381621  38.4851321
  24.4199852  92.8141429  38.6171596  25.8425734  92.3852426  38.3270443
  31.7534000  85.3693205  30.8632120  31.8749912  84.4409851  31.0623007
  31.4636043  85.3831891  29.9510435  34.6225191  83.0548115  33.9998840
  34.6446888  83.1187449  33.0450819  35.0393250  82.2152624  34.1939346
  45.0008815  92.7903375  32.0378062  45.4439961  92.0410700  31.6397186
  44.1235325  92.7813511  31.6551794  40.1344596  99.3433716  27.5184661
  40.8295501  99.9640409  27.7371975  40.4767747  98.4929068  27.7937039
  25.7512406  91.1651517  41.3781478  25.0094142  91.3134153  41.9646109
  25.4305150  91.4259783  40.5148228  42.0336020  96.7933422  29.0471992
  42.5587344  97.1320695  28.3221312  41.9458372  95.8580437  28.8635126
  33.6956068 100.7067496  41.1761868  34.0043195 100.4616642  42.0484568
  34.4931550 100.9114134  40.6880738  33.7176680 102.8605405  33.4067245
  33.2781671 102.3681784  34.1000101  34.4684797 102.3178373  33.1659320
  26.1969019  99.0516946  33.4091873  27.0227039  98.7520718  33.0290516
  25.8463071  98.2824569  33.8581661  31.1650552  98.4043414  35.4789546
  30.5430562  97.7414119  35.1791774  31.8355419  98.4304546  34.7963194
  24.3977624  96.9703273  34.3680806  23.5609533  96.5425447  34.1864808
  24.3701270  97.1635716  35.3051598  31.2375080  86.8825202  45.0722052
  31.2863235  87.7587325  44.6899822  31.7797594  86.3402595  44.4993696
  41.7229926  97.4266326  44.3523190  40.9325469  97.4090465  43.8127689
  41.4863280  97.9654619  45.1072226  41.8427801  94.2758792  41.6655918
  41.8925806  94.1108799  42.6071441  41.7341724  93.4086051  41.2753799
  30.7264059  96.9547338  28.9548007  30.8752180  97.6382802  28.3014680
  31.5330503  96.9352428  29.4697463  39.1331563  90.2589720  42.9815225
  40.0341426  90.1196185  42.6899223  39.2079538  90.4244175  43.9213402
  33.4674368  87.6356575  41.8268411  32.5977678  87.9290141  41.5551000
  33.7033849  88.2197020  42.5475675  43.3445997  96.6955734  41.9097940
  43.0530806  97.0585714  42.7461401  42.7318129  95.9822742  41.7311272
  44.5441680  94.2608613  34.4300510  45.3788571  94.6998417  34.5938070
  44.6800809  93.7847267  33.6108756  41.5933186  91.8188348  40.3777998
  42.0687307  92.0115994  39.5696849  40.6698751  91.8747534  40.1321381
  28.4816692  92.9812515  29.9609076  28.2362734  92.0774845  30.1589286
  28.6512607  92.9829666  29.0188554  36.1713402  83.8536192  39.3433831
  36.6895346  84.5897219  39.0180320  35.8168535  84.1600185  40.1780591
  27.7512340  88.7140873  27.4595237  27.0581585  88.7885228  26.8035273
  27.5064092  87.9501217  27.9816754  36.4225996  80.2736474  34.8634728
  36.7027750  79.6059663  35.4895155  37.2076603  80.4665570  34.3509392
  34.2259465  99.4495468  26.4259754  33.6533432 100.0685655  25.9730226
  34.7992259  99.9994830  26.9599676  40.2934855  88.6954108  38.6106303
  41.2452278  88.7952206  38.6318527  40.1238305  87.9032377  39.1204388
  38.3149234  85.7809691  38.7965704  37.7199166  86.0614704  38.1012193
  38.0298931  86.2703592  39.5682445  37.4456725  99.7332618  27.5568337
  38.3787398  99.6678180  27.7601212  37.3579937 100.5688885  27.0982869
  40.0744741  99.0498489  24.5172284  39.9958373  98.7158352  25.4108042
  40.8954408  99.5420257  24.5163757  42.7722932  91.9160228  37.7248603
  42.7399253  90.9776229  37.9108287  43.3823556  91.9944265  36.9914428
  34.6106263  90.7856281  23.7675807  35.5565368  90.6562489  23.8364225
  34.2320508  90.0470943  24.2445235  42.9217421  88.7071271  37.7706886
  42.4056470  87.9229728  37.5836815  43.8057369  88.3789988  37.9353405
  40.5828148  82.4512287  33.7302699  40.3852969  82.1427375  34.6146031
  41.1927853  83.1773926  33.8600629  48.5899482  92.9776235  36.8654640
  49.3202871  92.7161523  37.4262343  47.9806428  92.2404957  36.9056708
  46.6714779  91.1184097  37.4629091  45.9447943  90.9840062  36.8545582
  46.2562066  91.4260926  38.2685809  34.4944956  94.8374027  45.2276464
  35.4147965  95.0152626  45.4216510  34.4594539  93.8930072  45.0756163
  32.7949181  88.7106257  23.7030692  31.8880636  88.4139370  23.7793406
  33.0725162  88.4136075  22.8364978  23.7127121  90.0312621  34.1529738
  23.3929905  89.1777929  33.8604112  23.1660549  90.2461199  34.9087706
  27.4907028  92.7475062  37.8699245  27.7093038  93.6792170  37.8887279
  27.9032802  92.3883036  38.6554049  34.4111246  83.2543147  29.8574933
  33.6011975  82.9090232  30.2330179  35.0995663  82.9450691  30.4462545
  36.3401795  82.3321194  31.4799230  36.8932833  82.7516647  32.1389253
  36.5771881  81.4056942  31.5222186  32.3634894  88.3208267  47.2601994
  32.2631621  89.2702624  47.1914085  32.1456436  87.9926506  46.3878064
  31.5647965  85.5693193  23.8442671  32.4267129  85.8948091  24.1038489
  31.7498309  84.7824688  23.3315737  23.5815381  93.6515532  36.1222860
  22.8878852  93.2369485  35.6092814  24.3288372  93.6936069  35.5256279
  39.7180602  84.4421719  30.9877894  39.1379271  85.1006523  30.6055947
  39.4516534  83.6199064  30.5765312  38.1684168  83.8426777  33.1899215
  38.6683946  83.9543311  32.3813533  38.8119776  83.5387830  33.8300023
  32.2266164  91.7505406  46.0767056  31.7433246  92.5505766  46.2830945
  32.3127103  91.7613351  45.1234500  25.4952123  93.5833786  33.9988875
  25.4722812  93.6821473  33.0470758  25.8052760  94.4298937  34.3206041
  28.1539501  95.6409941  38.1135489  29.1082755  95.6093883  38.0465421
  27.9552025  95.1800565  38.9285715  28.7438883  94.2111057  40.6806287
  29.5631772  94.7055136  40.7041124  29.0175691  93.2943025  40.6523855
  38.5005480  86.6021809  30.0434243  37.6131335  86.8871460  29.8254437
  38.9159469  86.4415573  29.1961519  41.8520016  86.6268330  33.7588582
  42.6280406  87.1164783  34.0313199  41.1268150  87.0526385  34.2160451
  44.2892574  87.3395950  34.8162522  44.8837065  87.0991686  34.1055831
  44.3619158  86.6203080  35.4436059  26.5089730 101.1829561  35.1305687
  26.3744198 100.4229961  34.5643685  26.0921792 101.9070460  34.6634476
  37.6448693  96.3666484  24.1382263  38.3484543  96.5716487  24.7539918
  36.9211342  96.9343246  24.4031346  38.4746503  92.1176345  30.2584533
  38.4181705  92.5744897  29.4192165  39.0274846  91.3567030  30.0807375
  42.2851309  87.9066077  31.0834652  42.0288244  87.5062713  31.9142860
  41.6604177  88.6209871  30.9584791  46.5963647  90.6462150  33.5905944
  46.0363205  90.7155340  34.3637506  45.9907150  90.4703135  32.8705440
  29.6658856 102.0798878  35.3424130  29.5491240 103.0244310  35.2402820
  28.8451302 101.7772439  35.7309929  39.5535390  96.8049013  26.1880723
  40.3880994  96.3730212  26.0058197  39.3919733  96.6331027  27.1157617
  39.2081283  93.3081127  27.5537062  39.1530086  93.1425398  26.6125506
  38.5827338  94.0157159  27.7099252  23.9973798  88.5449191  41.3798484
  24.6432661  88.0348145  41.8685709  23.7890949  89.2817873  41.9541909
  36.5227190  95.6130038  46.8790625  37.3918349  95.7870691  46.5177260
  36.0433941  96.4324455  46.7566354  32.5177408  82.8089236  27.1322380
  32.5056078  83.7531075  27.2890651  33.4100830  82.6259381  26.8381841
  30.6913370 102.7327139  38.5580058  31.5940617 102.7650750  38.8746553
  30.4650740 101.8027590  38.5726394  32.4466972 101.4858126  35.2190137
  31.4962603 101.4859988  35.1054509  32.7499458 100.7390861  34.7026172
  36.3329528  79.4032012  31.3868317  35.5661923  78.8490499  31.5324999
  36.7440233  79.4753881  32.2482469  28.3371289  85.6916808  45.4773498
  29.2002750  85.3353613  45.6876823  27.7636699  85.3530703  46.1648903
  48.1819666 107.3218664  36.2835899  48.8198076 107.2025412  35.5799239
  48.0640508 108.2699508  36.3423851  44.9909372 107.2746092  36.2197424
  44.6527883 107.1587157  35.3317959  45.8599140 106.8737258  36.1998430
  40.8496188 109.1281569  32.2094315  40.2861053 109.0371506  31.4410603
  40.7348583 108.3081473  32.6896807  45.4729155 108.4280944  42.1783630
  45.4617796 108.0333742  41.3064133  45.6349794 107.6947017  42.7717401
  38.3960619 110.6232760  35.0478535  39.1881911 110.2823585  34.6324835
  38.6357270 110.7327736  35.9680689  46.4295746 112.7952537  27.5208780
  45.7783726 113.3806617  27.1342794  47.2240109 113.3258731  27.5803817
  40.3551373 109.8841674  27.9195914  41.1282249 109.3370661  27.7808790
  40.7076772 110.7485923  28.1310376  42.1936416 111.2118056  41.1262814
  41.9026282 112.1163687  41.0109480  42.8293400 111.2534584  41.8406883
  43.1192623 108.5894905  37.7164173  43.7156195 108.3650927  37.0021136
  43.1767594 107.8479650  38.3189621  42.6917651 106.0434340  25.5514364
  42.9443172 105.5215861  24.7897827  41.7542210 105.8800485  25.6541048
  47.7360934 105.0470118  33.3589107  48.5224023 104.6289541  33.0079524
  47.9999638 105.9516210  33.5270756  47.9071011 110.4842969  28.0577764
  47.2716844 110.5577595  28.7698669  47.5768418 111.0736567  27.3796843
  53.1369361 104.9845351  34.2622086  53.8694533 104.4144568  34.4959915
  52.3808717 104.5966952  34.7028591  42.4113940 107.9462446  27.7538739
  42.2950198 107.2707349  28.4219823  42.5216200 107.4594820  26.9370892
  44.7545481 107.4072593  31.4585428  44.3903688 106.8803214  32.1698350
  45.6112597 107.0171062  31.2851914  50.6594782  98.6966926  38.7216694
  50.3278106  99.5662336  38.4977909  50.0640395  98.3803210  39.4010725
  44.3950968 102.4362493  26.4546777  44.5625370 103.3042729  26.8217248
  44.2048137 102.5989774  25.5308066  47.1526301 110.8979472  38.1212607
  46.8527024 111.8004510  38.0128414  46.8077361 110.6311655  38.9733760
  40.6038783 107.3493268  34.1549312  39.6789279 107.2169482  34.3627003
  40.8523196 108.1287488  34.6519254  50.5523445 103.4162012  35.8010045
  49.6440322 103.3477420  35.5068806  50.5011041 103.8933957  36.6291870
  44.3740189 104.8920150  27.4393444  44.2539814 105.3377201  28.2778924
  43.6792777 105.2405468  26.8806982  37.9647594 106.9926542  34.9893101
  38.0939975 107.2461021  35.9032512  37.2845045 107.5854250  34.6697756
  42.1347081 117.6623792  31.0883575  42.0571111 118.6131617  31.1672055
  41.5308724 117.3169664  31.7458501  44.6264311 104.8351657  43.7444942
  43.8497645 105.3945577  43.7347806  45.2654874 105.3208440  44.2659812
  52.4185091 101.6178450  37.5787918  51.7759472 101.9110983  36.9327713
  51.9140020 101.5031370  38.3841115  50.0725255 105.3641623  28.2673778
  50.9843111 105.5969010  28.0921475  49.5634902 105.9478667  27.7048856
  42.8810683 107.6437111  43.3062909  43.6225367 108.1822155  43.0297732
  42.1747668 108.2703399  43.4634461  48.3566023 109.7866251  41.9035070
  48.7649379 109.3448662  41.1589703  47.6343284 109.2118879  42.1569263
  44.7097093 104.7238858  39.2768627  45.5558288 105.1478271  39.4203276
  44.6495730 104.0672482  39.9707190  48.6794837 110.3467442  35.6587359
  48.0503700 110.5113156  34.9563427  48.2920499 110.7609051  36.4298323
  52.5584069 111.2821880  33.0131723  51.8735107 111.6620781  32.4628756
  52.6427918 111.8917206  33.7463671  47.8596538 102.3843226  40.9349801
  47.6157470 103.1385287  40.3984077  48.1356468 102.7628574  41.7697048
  49.8135001 108.9281839  39.6127066  50.0251896 109.5713598  38.9361448
  49.7664749 108.0944155  39.1448997  47.4161230 101.5399659  36.5163639
  46.5545709 101.8380913  36.8080376  47.4423664 101.7570058  35.5844671
  44.2322799 110.0841850  32.9237444  44.6961145 110.3629553  32.1342067
  43.9679597 109.1825294  32.7410535  41.1246880 109.6313331  35.8617208
  41.6948237 110.0600600  35.2234692  41.7154992 109.3495916  36.5601393
  43.1691685 106.2065002  29.7327009  43.8715729 106.6586046  30.2000936
  42.8372314 105.5648821  30.3606903  41.6172047 104.7976759  44.1078219
  40.9870707 105.4793040  44.3413616  41.5108135 104.6859840  43.1631357
  36.9117019 104.4648555  35.0344143  36.1216073 104.7206083  34.5584254
  37.4028267 105.2796893  35.1396184  50.9280829 111.8053794  37.7849424
  51.7498272 111.4033981  37.5032105  50.9243232 111.7022028  38.7365540
  38.8631765 104.8293134  31.9927620  38.0662928 104.9411828  32.5111115
  38.6357357 105.1679786  31.1268510  44.6937432 111.3537837  39.9410134
  44.7581865 111.8158245  40.7768306  43.9848356 110.7235202  40.0692444
  35.1954722 104.7179045  37.4659134  35.4462761 105.6026055  37.7316710
  35.7314271 104.5383647  36.6934226  59.0186822 108.1492543  34.1334395
  58.2650530 107.5799941  33.9778400  59.1534363 108.1155207  35.0805030
  44.4085450 113.0205945  29.8089115  44.2731125 113.8657481  30.2373962
  44.9495262 113.2225222  29.0455048  40.8952789  99.0997525  46.4703470
  40.5019735  98.5463723  47.1451114  41.7118930  99.4108103  46.8609987
  37.8614847 110.5381383  30.3817040  38.3739368 111.3324633  30.5322604
  38.5137560 109.8407673  30.3150641  39.6709732 113.6547139  32.4639793
  39.8476360 114.5765104  32.2760777  40.4666565 113.3405558  32.8934173
  43.8120750 100.5155404  44.0623726  44.5530464 101.1162557  43.9828189
  44.0438673  99.7733042  43.5041769  38.9562088 105.7011771  42.3401956
  38.8415604 104.7997028  42.6409055  38.1006606 105.9475468  41.9886773
  46.0353926 113.6429511  43.9389457  45.5917780 112.8565890  43.6210361
  46.6971140 113.8308662  43.2733348  40.7941047 115.1725313  38.4650135
  41.3448472 115.0442376  37.6927129  39.9552523 115.4720202  38.1145028
  48.1335164 113.9232311  41.9670858  48.1153640 114.7441192  41.4751127
  49.0555084 113.7986386  42.1920999  44.5908218 111.4376441  42.8094366
  45.1236555 110.6764729  42.5793674  44.0622299 111.1450093  43.5518521
  47.7577913  96.5436507  38.3388008  47.4142183  97.4338148  38.2627119
  48.1256876  96.3538164  37.4757593  35.8263764 108.8670037  31.1576610
  36.6638986 109.2767046  30.9410318  36.0042032 107.9269479  31.1276804
  47.7228196 106.5345118  26.8460443  47.2074820 107.3049722  27.0848831
  47.4505505 105.8610254  27.4693505  45.3075307 101.3794819  31.9045682
  44.4516903 100.9901669  31.7251320  45.7202259 101.4586779  31.0445467
  46.8374454  98.9141162  36.3037241  46.3339249  98.8771297  35.4905047
  47.1305061  99.8233905  36.3633898  43.0817340  98.9979892  35.3103423
  43.9470336  98.8022700  34.9509313  43.1494849  98.7690243  36.2372780
  52.6962470 109.2877472  28.7813617  51.9191913 108.9488632  28.3368779
  53.3753951 109.2930096  28.1068582  47.5114499 104.4072210  28.6720224
  47.2064635 104.7218359  29.5230368  48.4644941 104.4853630  28.7147557
  45.9560931 110.5662433  30.3213178  45.4282293 109.8315193  30.0086416
  45.4548434 111.3437110  30.0753147  50.9353777 108.7611454  35.4380225
  50.2777452 109.4510715  35.5260353  51.7394176 109.1507886  35.7814211
  40.6879659 101.2282099  32.6819790  41.2623411 101.0057281  31.9492983
  41.2750641 101.2970794  33.4348391  49.7459236 107.1155826  33.4884166
  50.2591118 107.7485818  33.9905876  50.3960460 106.5157022  33.1227526
  41.0149246 103.2586561  26.7015675  40.1786558 103.5961247  27.0224950
  40.8754015 103.1235540  25.7642812  42.9902326  98.1023348  31.4094859
  42.3366739  97.7872366  30.7851474  42.9482801  97.4799089  32.1354682
  44.1013531 108.3842643  23.3248151  43.1940593 108.1531897  23.5239300
  44.5984563 107.5880263  23.5122133  47.0081610 117.0940151  26.2444838
  46.3343309 117.3971847  26.8529795  47.3947432 117.8969231  25.8950295
  46.2240067 104.5905282  35.7342507  45.3062628 104.8120229  35.5764195
  46.6400210 104.6651592  34.8754214  47.0075115 105.9896698  30.8645187
  47.7546933 106.5018095  30.5552309  47.2766704 105.6680750  31.7249581
  45.2801765 108.4855238  27.8472142  44.3712984 108.2014271  27.9444611
  45.3096849 108.9054317  26.9875448  50.5121032 112.0961828  31.6163309
  50.0583359 111.2552738  31.6728500  49.8814999 112.7323226  31.9538089
  49.4553952 103.0253814  32.8463977  48.7176708 102.5131200  33.1774219
  49.7080725 102.5854195  32.0347253  48.9553971 113.9338325  32.5513127
  49.2476946 114.4943382  31.8325493  49.4652592 114.2266886  33.3066286
  49.5565579  95.8030066  33.4405746  49.8624456  94.9427429  33.1531661
  50.2818184  96.3947686  33.2404740  35.8489935 106.2060752  31.8287344
  35.6514335 105.6130113  31.1038410  35.2936599 105.9012963  32.5463282
  43.8286659 106.0983859  33.9481937  43.8835269 105.1457695  33.8724413
  43.0177861 106.2543298  34.4323235  44.9777853 110.0263982  25.1860220
  44.5397282 109.3099841  24.7265857  45.7188293 110.2540097  24.6245311
  41.7679019 104.7160919  31.7072316  40.9546884 105.0155089  32.1137508
  42.2638013 104.3216607  32.4246798  43.9187597 114.7118676  33.6406580
  43.8763775 114.9379522  32.7115112  44.8350295 114.4782050  33.7892382
  47.3653230 105.1802743  40.5387210  47.7202618 105.4074216  41.3981675
  48.0125362 105.5121120  39.9164465  53.0950967 108.3021179  31.2436539
  52.9568866 108.4922775  30.3157728  52.7387186 109.0640562  31.7004590
  41.2593093 102.2879274  37.3233551  41.8992473 102.1468033  36.6256514
  40.4270624 102.0013788  36.9472153  53.1220347 110.3697706  36.2547810
  53.5556854 110.2772995  37.1030864  53.8351928 110.3455207  35.6167826
  42.0353397 111.5881705  33.4368543  42.8293996 111.0932025  33.2351118
  41.3245090 111.0599568  33.0736249  46.8548242 113.9699800  37.7880911
  46.9085264 114.5390736  38.5558627  45.9863023 114.1401685  37.4234948
  38.3436161 105.7324786  29.5128296  37.4133749 105.6709242  29.7298258
  38.4393633 105.2100739  28.7164937  38.2621710 102.2579599  32.1006537
  38.5228527 103.1724932  31.9915698  39.0838882 101.7904042  32.2503150
  39.7346635 103.6717356  39.2705362  40.4069689 103.4634719  38.6218011
  38.9076422 103.4739442  38.8310594  53.9835896 110.4121407  38.7880696
  54.1771787 111.3167217  39.0339970  53.8836515 109.9528826  39.6219281
  45.6372207 100.2979297  41.2871023  44.9900122 100.9969247  41.1935499
  46.4073223 100.7315441  41.6547271  49.0451005 110.5628149  44.3621576
  48.8936512 110.3338701  43.4451660  49.0355685 111.5198751  44.3752921
  45.8136342 108.1360062  39.3467843  46.7428402 108.2871222  39.1736810
  45.3927372 108.2244083  38.4916489  44.6124673 112.1610727  37.1166380
  44.4735759 111.7929511  37.9892318  43.8239270 112.6758366  36.9450338
  45.2072825 117.2619823  28.4591917  45.3824581 116.7907866  29.2737539
  44.5205613 117.8885589  28.6873177  46.1629888 111.5392329  34.5055218
  45.8279721 111.4993099  35.4012868  45.6633834 110.8737045  34.0325628
  40.1374132 106.9459959  40.0307799  39.9993930 106.2140198  40.6319338
  41.0479056 106.8568859  39.7491987  49.0989080 108.8848364  24.7792278
  48.4818251 108.1595192  24.6825330  48.6305569 109.6457724  24.4359352
  42.7656433 106.6579919  39.5191479  43.4756052 106.0173111  39.4778097
  42.7225741 106.9092814  40.4417660  50.7543212 113.5947272  42.4398058
  50.6955758 112.9106492  41.7728641  51.1562730 114.3366262  41.9878684
  41.4785367 103.6445137  41.3387118  40.9422724 103.1935875  41.9908715
  40.8902076 103.7791045  40.5957583  40.8887626 103.1033788  23.9013582
  40.0117092 102.9822589  23.5375829  41.3645379 102.3119866  23.6492471
  50.7560619 111.5586856  40.6712038  49.8687398 111.2212778  40.7938437
  51.3259170 110.8269887  40.9080803  32.4089766 107.8910948  33.9955089
  33.0960806 107.5772678  33.4076104  32.2537895 108.7952312  33.7222341
  37.2124488 102.7801144  38.4240113  37.1282677 102.1726814  37.6890523
  36.3907195 103.2710163  38.4249609  44.2861772 116.2188308  37.6373281
  44.2131944 117.0243280  38.1492585  43.8439166 116.4180274  36.8121302
  44.0751552 115.4560078  31.1476102  43.2919074 115.9981759  31.2414327
  44.7744297 115.9734058  31.5470344  47.3848202 101.2654708  33.7910308
  47.8816902 100.5124670  33.4711378  46.6135184 101.3019024  33.2253517
  55.2377960 106.9695073  35.4328599  55.2267836 107.8519789  35.0622532
  54.3695339 106.6166624  35.2383136  46.7460456 116.1175142  39.7931440
  47.4588428 116.7522607  39.7207341  46.2550485 116.2139008  38.9771441
  48.4677983 110.0226395  31.3648731  47.5334262 110.1427857  31.1953436
  48.6454651 109.1198862  31.1008741  43.9683171 103.4072091  33.5181992
  43.5980958 102.8543131  34.2062898  44.4642263 102.8030224  32.9656992
  51.8550534 105.8643714  31.8998765  52.3210986 106.6971706  31.8259068
  52.3058035 105.3988696  32.6044024  41.7972370 113.8669586  40.6137010
  42.4981829 114.5006069  40.7666405  41.3267485 114.2084317  39.8532650
  49.9226765 112.2087536  28.8984917  50.1986609 112.0944130  29.8078791
  49.0531264 111.8105020  28.8597090  49.8267197  98.2324301  35.9389667
  48.9130277  98.4628528  36.1071874  50.2560298  98.3162745  36.7903699
  49.5973655 106.4214193  38.4389561  48.9445106 106.6690101  37.7842013
  49.9754035 105.6078331  38.1052038  46.5580829 116.4573886  32.5417731
  46.7403224 115.6395542  33.0045483  47.3813815 116.6741579  32.1042621
  46.8922995 115.3842072  29.8032780  47.4210761 114.8734526  29.1902942
  47.1551214 115.0684602  30.6678313  45.6461229 107.1634004  44.9255598
  44.9701866 107.0628134  45.5957973  46.4688862 107.0073218  45.3891595
  37.3940088 113.4005941  37.5468113  37.9793524 112.6549629  37.6796017
  37.1964926 113.7109898  38.4304777  40.2478743 116.4357188  32.5630555
  39.5789118 116.9203316  32.0794595  40.1091612 116.6826409  33.4773934
  31.9857742 105.9711541  36.2672556  32.0241842 105.4375132  37.0609674
  31.4798035 105.4446747  35.6483533  44.3884011 118.4700932  39.1613214
  44.9402319 118.6332553  39.9262299  44.7290205 119.0605370  38.4893239
  39.3648505 100.8176082  39.7635099  39.4289831 101.6790912  39.3512496
  39.3015625 100.2050083  39.0307457  38.8400777 102.8899214  43.4108133
  39.4672816 102.5076291  44.0245657  37.9828696 102.6713416  43.7763825
  49.2394886 113.2962189  45.0161868  49.7834790 113.9092148  44.5216823
  48.6581731 113.8541768  45.5328881  35.6166320 104.6975643  29.3426488
  35.9119761 103.7886322  29.2893541  34.7154356 104.6763383  29.0207490
  47.5252399 116.4182907  36.1476896  47.4003538 115.6172647  35.6387841
  48.1831490 116.9129101  35.6590866  39.1460567 102.7731640  35.3254036
  38.4247153 103.3867607  35.1861510  39.9353823 103.3089405  35.2470682
  49.5887307 114.2191927  37.7756446  48.6417643 114.0997279  37.7034773
  49.9370080 113.3314425  37.8582707  41.9486880 100.1086066  41.5994688
  42.4721282 100.3548363  42.3620997  41.7299214 100.9406101  41.1797825
  37.3454161 102.3789741  29.4665813  37.0166868 101.4987120  29.2840919
  37.6993532 102.3237410  30.3542202  46.5933740 114.0144644  33.9760798
  46.4458703 113.0861351  34.1568368  47.4187234 114.0364734  33.4917874
  40.4595985 102.6662711  29.8341290  40.7992057 103.1948632  29.1119899
  40.9068105 103.0043117  30.6099857  50.1967862 114.8373202  35.0625671
  51.1214410 114.6316064  34.9250122  50.0283166 114.5889603  35.9715013
  43.1539425 101.0499761  39.2844358  42.8136246 100.2507574  39.6865038
  42.4478432 101.3501472  38.7121192  43.8055897  98.1349074  37.7371682
  44.6281967  97.6609552  37.6150572  44.0493961  98.9139558  38.2370368
  42.4464132 101.1637332  28.0334583  43.1672494 101.5418585  27.5298300
  41.8229436 101.8826209  28.1369561  46.5895255 101.8682481  28.9692916
  46.8058869 102.7507119  28.6681744  46.1089322 101.4768695  28.2398558
  41.3294476 104.8268194  35.5463660  41.1839057 105.1408498  36.4387942
  40.8519680 105.4453095  34.9934559  43.1890859 101.8170742  35.5944550
  43.1752428 100.9211836  35.2576848  43.9063287 101.8241406  36.2282836
  45.0416990 102.2508083  37.6397677  44.7834767 103.1725153  37.6382008
  44.5102030 101.8538517  38.3298141  49.9863178 115.3558870  30.4187762
  50.1600056 114.7905292  29.6661615  50.4792070 116.1559765  30.2367252
  35.8040138 107.3673539  38.4851321  35.2593606 108.1433347  38.6171596
  36.6819488 107.7144343  38.3270443  42.5927755 100.6985123  30.8632120
  42.7143666  99.7701769  31.0623007  42.3029797 100.7123809  29.9510435
  45.4618945  98.3840033  33.9998840  45.4840642  98.4479366  33.0450819
  45.8787004  97.5444542  34.1939346  55.8402570 108.1195293  32.0378062
  56.2833716 107.3702618  31.6397186  54.9629080 108.1105429  31.6551794
  50.9738351 114.6725634  27.5184661  51.6689256 115.2932327  27.7371975
  51.3161501 113.8220985  27.7937039  36.5906160 106.4943435  41.3781478
  35.8487896 106.6426070  41.9646109  36.2698904 106.7551701  40.5148228
  52.8729774 112.1225340  29.0471992  53.3981098 112.4612612  28.3221312
  52.7852127 111.1872355  28.8635126  44.5349823 116.0359413  41.1761868
  44.8436949 115.7908560  42.0484568  45.3325305 116.2406052  40.6880738
  44.5570435 118.1897323  33.4067245  44.1175425 117.6973702  34.1000101
  45.3078552 117.6470291  33.1659320  37.0362774 114.3808864  33.4091873
  37.8620794 114.0812636  33.0290516  36.6856826 113.6116486  33.8581661
  42.0044307 113.7335332  35.4789546  41.3824316 113.0706037  35.1791774
  42.6749174 113.7596464  34.7963194  35.2371379 112.2995190  34.3680806
  34.4003287 111.8717365  34.1864808  35.2095024 112.4927634  35.3051598
  42.0768834 102.2117120  45.0722052  42.1256990 103.0879243  44.6899822
  42.6191349 101.6694513  44.4993696  52.5623680 112.7558243  44.3523190
  51.7719224 112.7382382  43.8127689  52.3257035 113.2946537  45.1072226
  52.6821555 109.6050710  41.6655918  52.7319560 109.4400717  42.6071441
  52.5735478 108.7377969  41.2753799  41.5657814 112.2839255  28.9548007
  41.7145934 112.9674720  28.3014680  42.3724257 112.2644345  29.4697463
  49.9725318 105.5881638  42.9815225  50.8735180 105.4488103  42.6899223
  50.0473292 105.7536093  43.9213402  44.3068123 102.9648492  41.8268411
  43.4371432 103.2582059  41.5551000  44.5427603 103.5488937  42.5475675
  54.1839752 112.0247651  41.9097940  53.8924560 112.3877632  42.7461401
  53.5711883 111.3114660  41.7311272  55.3835434 109.5900531  34.4300510
  56.2182326 110.0290335  34.5938070  55.5194563 109.1139184  33.6108756
  52.4326940 107.1480266  40.3777998  52.9081062 107.3407912  39.5696849
  51.5092506 107.2039452  40.1321381  39.3210447 108.3104433  29.9609076
  39.0756489 107.4066763  30.1589286  39.4906361 108.3121583  29.0188554
  47.0107157  99.1828109  39.3433831  47.5289101  99.9189136  39.0180320
  46.6562289  99.4892103  40.1780591  38.5906094 104.0432791  27.4595237
  37.8975339 104.1177146  26.8035273  38.3457846 103.2793134  27.9816754
  47.2619751  95.6028392  34.8634728  47.5421505  94.9351581  35.4895155
  48.0470358  95.7957488  34.3509392  45.0653219 114.7787386  26.4259754
  44.4927186 115.3977573  25.9730226  45.6386013 115.3286748  26.9599676
  51.1328609 104.0246026  38.6106303  52.0846032 104.1244124  38.6318527
  50.9632060 103.2324294  39.1204388  49.1542989 101.1101609  38.7965704
  48.5592921 101.3906622  38.1012193  48.8692685 101.5995510  39.5682445
  48.2850479 115.0624536  27.5568337  49.2181152 114.9970098  27.7601212
  48.1973692 115.8980803  27.0982869  50.9138496 114.3790406  24.5172284
  50.8352127 114.0450270  25.4108042  51.7348163 114.8712174  24.5163757
  53.6116687 107.2452146  37.7248603  53.5793007 106.3068146  37.9108287
  54.2217311 107.3236182  36.9914428  45.4500018 106.1148199  23.7675807
  46.3959123 105.9854407  23.8364225  45.0714263 105.3762861  24.2445235
  53.7611175 104.0363189  37.7706886  53.2450224 103.2521646  37.5836815
  54.6451124 103.7081906  37.9353405  51.4221902  97.7804205  33.7302699
  51.2246724  97.4719293  34.6146031  52.0321608  98.5065844  33.8600629
  59.4293237 108.3068152  36.8654640  60.1596625 108.0453441  37.4262343
  58.8200182 107.5696874  36.9056708  57.5108534 106.4476015  37.4629091
  56.7841698 106.3131980  36.8545582  57.0955821 106.7552844  38.2685809
  45.3338710 110.1665945  45.2276464  46.2541720 110.3444544  45.4216510
  45.2988293 109.2221990  45.0756163  43.6342935 104.0398175  23.7030692
  42.7274390 103.7431288  23.7793406  43.9118916 103.7427993  22.8364978
  34.5520875 105.3604538  34.1529738  34.2323660 104.5069847  33.8604112
  34.0054304 105.5753117  34.9087706  38.3300783 108.0766979  37.8699245
  38.5486793 109.0084087  37.8887279  38.7426557 107.7174954  38.6554049
  45.2505001  98.5835065  29.8574933  44.4405729  98.2382150  30.2330179
  45.9389418  98.2742608  30.4462545  47.1795549  97.6613112  31.4799230
  47.7326588  98.0808565  32.1389253  47.4165635  96.7348860  31.5222186
  43.2028648 103.6500185  47.2601994  43.1025375 104.5994542  47.1914085
  42.9850190 103.3218424  46.3878064  42.4041720 100.8985110  23.8442671
  43.2660884 101.2240009  24.1038489  42.5892064 100.1116606  23.3315737
  34.4209135 108.9807450  36.1222860  33.7272607 108.5661403  35.6092814
  35.1682126 109.0227986  35.5256279  50.5574356  99.7713637  30.9877894
  49.9773025 100.4298441  30.6055947  50.2910289  98.9490981  30.5765312
  49.0077922  99.1718694  33.1899215  49.5077701  99.2835229  32.3813533
  49.6513530  98.8679747  33.8300023  43.0659918 107.0797324  46.0767056
  42.5827000 107.8797684  46.2830945  43.1520857 107.0905269  45.1234500
  36.3345878 108.9125704  33.9988875  36.3116566 109.0113391  33.0470758
  36.6446514 109.7590854  34.3206041  38.9933256 110.9701859  38.1135489
  39.9476509 110.9385801  38.0465421  38.7945779 110.5092482  38.9285715
  39.5832638 109.5402975  40.6806287  40.4025527 110.0347053  40.7041124
  39.8569446 108.6234943  40.6523855  49.3399234 101.9313727  30.0434243
  48.4525089 102.2163378  29.8254437  49.7553223 101.7707490  29.1961519
  52.6913770 101.9560248  33.7588582  53.4674160 102.4456700  34.0313199
  51.9661904 102.3818302  34.2160451  55.1286329 102.6687867  34.8162522
  55.7230820 102.4283603  34.1055831  55.2012913 101.9494998  35.4436059
  37.3483485 116.5121478  35.1305687  37.2137952 115.7521879  34.5643685
  36.9315547 117.2362378  34.6634476  48.4842448 111.6958402  24.1382263
  49.1878298 111.9008404  24.7539918  47.7605096 112.2635164  24.4031346
  49.3140258 107.4468263  30.2584533  49.2575459 107.9036814  29.4192165
  49.8668600 106.6858948  30.0807375  53.1245064 103.2357995  31.0834652
  52.8681998 102.8354631  31.9142860  52.4997932 103.9501789  30.9584791
  57.4357402 105.9754068  33.5905944  56.8756960 106.0447257  34.3637506
  56.8300905 105.7995053  32.8705440  40.5052610 117.4090795  35.3424130
  40.3884995 118.3536228  35.2402820  39.6845057 117.1064357  35.7309929
  50.3929145 112.1340931  26.1880723  51.2274749 111.7022129  26.0058197
  50.2313488 111.9622945  27.1157617  50.0475037 108.6373044  27.5537062
  49.9923841 108.4717316  26.6125506  49.4221092 109.3449077  27.7099252
  34.8367552 103.8741109  41.3798484  35.4826416 103.3640063  41.8685709
  34.6284703 104.6109790  41.9541909  47.3620944 110.9421956  46.8790625
  48.2312104 111.1162608  46.5177260  46.8827696 111.7616373  46.7566354
  43.3571163  98.1381153  27.1322380  43.3449832  99.0822993  27.2890651
  44.2494584  97.9551299  26.8381841  41.5307125 118.0619057  38.5580058
  42.4334371 118.0942667  38.8746553  41.3044495 117.1319508  38.5726394
  43.2860727 116.8150044  35.2190137  42.3356358 116.8151905  35.1054509
  43.5893213 116.0682778  34.7026172  47.1723282  94.7323930  31.3868317
  46.4055678  94.1782417  31.5324999  47.5833987  94.8045799  32.2482469
  39.1765043 101.0208726  45.4773498  40.0396505 100.6645531  45.6876823
  38.6030454 100.6822621  46.1648903  59.0213420 122.6510582  36.2835899
  59.6591830 122.5317329  35.5799239  58.9034263 123.5991426  36.3423851
  55.8303126 122.6038010  36.2197424  55.4921638 122.4879075  35.3317959
  56.6992895 122.2029175  36.1998430  56.3122909 123.7572862  42.1783630
  56.3011550 123.3625660  41.3064133  56.4743549 123.0238934  42.7717401
  53.5311406 121.3726258  25.5514364  53.7836926 120.8507779  24.7897827
  52.5935965 121.2092403  25.6541048  58.5754689 120.3762036  33.3589107
  59.3617778 119.9581459  33.0079524  58.8393393 121.2808128  33.5270756
  63.9763116 120.3137269  34.2622086  64.7088288 119.7436486  34.4959915
  63.2202471 119.9258870  34.7028591  55.5939235 122.7364511  31.4585428
  55.2297443 122.2095132  32.1698350  56.4506351 122.3462980  31.2851914
  61.4988536 114.0258843  38.7216694  61.1671861 114.8954254  38.4977909
  60.9034149 113.7095127  39.4010725  55.2344722 117.7654410  26.4546777
  55.4019125 118.6334647  26.8217248  55.0441891 117.9281692  25.5308066
  61.3917199 118.7453929  35.8010045  60.4834077 118.6769338  35.5068806
  61.3404795 119.2225874  36.6291870  55.2133943 120.2212068  27.4393444
  55.0933568 120.6669119  28.2778924  54.5186532 120.5697385  26.8806982
  55.4658065 120.1643575  43.7444942  54.6891399 120.7237495  43.7347806
  56.1048628 120.6500358  44.2659812  63.2578846 116.9470368  37.5787918
  62.6153226 117.2402901  36.9327713  62.7533774 116.8323288  38.3841115
  60.9119009 120.6933541  28.2673778  61.8236866 120.9260928  28.0921475
  60.4028656 121.2770585  27.7048856  59.1959777 125.1158169  41.9035070
  59.6043133 124.6740579  41.1589703  58.4737039 124.5410796  42.1569263
  55.5490847 120.0530776  39.2768627  56.3952042 120.4770189  39.4203276
  55.4889485 119.3964400  39.9707190  58.6990292 117.7135144  40.9349801
  58.4551224 118.4677204  40.3984077  58.9750223 118.0920492  41.7697048
  60.6528755 124.2573756  39.6127066  60.8645650 124.9005516  38.9361448
  60.6058503 123.4236073  39.1448997  58.2554984 116.8691577  36.5163639
  57.3939463 117.1672830  36.8080376  58.2817419 117.0861976  35.5844671
  54.0085440 121.5356920  29.7327009  54.7109483 121.9877964  30.2000936
  53.6766068 120.8940739  30.3606903  52.4565801 120.1268676  44.1078219
  51.8264462 120.8084957  44.3413616  52.3501889 120.0151758  43.1631357
  47.7510774 119.7940473  35.0344143  46.9609828 120.0498001  34.5584254
  48.2422021 120.6088810  35.1396184  49.7025519 120.1585052  31.9927620
  48.9056682 120.2703746  32.5111115  49.4751111 120.4971704  31.1268510
  69.8580576 123.4784460  34.1334395  69.1044285 122.9091858  33.9778400
  69.9928117 123.4447125  35.0805030  51.7346544 114.4289442  46.4703470
  51.3413489 113.8755641  47.1451114  52.5512684 114.7400021  46.8609987
  54.6514505 115.8447321  44.0623726  55.3924218 116.4454475  43.9828189
  54.8832428 115.1024959  43.5041769  49.7955843 121.0303689  42.3401956
  49.6809358 120.1288946  42.6409055  48.9400361 121.2767385  41.9886773
  58.5971668 111.8728424  38.3388008  58.2535937 112.7630066  38.2627119
  58.9650630 111.6830082  37.4757593  58.5621951 121.8637035  26.8460443
  58.0468574 122.6341640  27.0848831  58.2899259 121.1902172  27.4693505
  56.1469062 116.7086736  31.9045682  55.2910658 116.3193587  31.7251320
  56.5596013 116.7878697  31.0445467  57.6768208 114.2433080  36.3037241
  57.1733004 114.2063215  35.4905047  57.9698815 115.1525822  36.3633898
  53.9211094 114.3271809  35.3103423  54.7864091 114.1314618  34.9509313
  53.9888603 114.0982161  36.2372780  63.5356225 124.6169390  28.7813617
  62.7585667 124.2780550  28.3368779  64.2147706 124.6222013  28.1068582
  58.3508254 119.7364128  28.6720224  58.0458389 120.0510277  29.5230368
  59.3038696 119.8145547  28.7147557  61.7747532 124.0903371  35.4380225
  61.1171206 124.7802633  35.5260353  62.5787931 124.4799803  35.7814211
  51.5273413 116.5574017  32.6819790  52.1017165 116.3349199  31.9492983
  52.1144396 116.6262712  33.4348391  60.5852990 122.4447744  33.4884166
  61.0984872 123.0777736  33.9905876  61.2354214 121.8448940  33.1227526
  51.8543000 118.5878478  26.7015675  51.0180313 118.9253165  27.0224950
  51.7147770 118.4527458  25.7642812  53.8296081 113.4315266  31.4094859
  53.1760493 113.1164283  30.7851474  53.7876555 112.8091007  32.1354682
  54.9407286 123.7134561  23.3248151  54.0334348 123.4823815  23.5239300
  55.4378318 122.9172180  23.5122133  57.0633821 119.9197200  35.7342507
  56.1456383 120.1412147  35.5764195  57.4793965 119.9943510  34.8754214
  57.8468869 121.3188615  30.8645187  58.5940688 121.8310013  30.5552309
  58.1160459 120.9972668  31.7249581  56.1195519 123.8147156  27.8472142
  55.2106738 123.5306189  27.9444611  56.1490603 124.2346235  26.9875448
  60.2947706 118.3545732  32.8463977  59.5570463 117.8423118  33.1774219
  60.5474480 117.9146113  32.0347253  60.3959334 111.1321984  33.4405746
  60.7018210 110.2719347  33.1531661  61.1211938 111.7239604  33.2404740
  54.6680413 121.4275777  33.9481937  54.7229023 120.4749613  33.8724413
  53.8571615 121.5835216  34.4323235  52.6072773 120.0452836  31.7072316
  51.7940639 120.3447007  32.1137508  53.1031767 119.6508525  32.4246798
  58.2046985 120.5094661  40.5387210  58.5596373 120.7366134  41.3981675
  58.8519116 120.8413038  39.9164465  63.9344722 123.6313097  31.2436539
  63.7962620 123.8214693  30.3157728  63.5780941 124.3932480  31.7004590
  52.0986848 117.6171192  37.3233551  52.7386227 117.4759951  36.6256514
  51.2664378 117.3305705  36.9472153  63.9614101 125.6989624  36.2547810
  64.3950608 125.6064913  37.1030864  64.6745682 125.6747124  35.6167826
  49.1829915 121.0616704  29.5128296  48.2527503 121.0001160  29.7298258
  49.2787387 120.5392657  28.7164937  49.1015464 117.5871517  32.1006537
  49.3622282 118.5016850  31.9915698  49.9232637 117.1195959  32.2503150
  50.5740390 119.0009274  39.2705362  51.2463443 118.7926636  38.6218011
  49.7470176 118.8031360  38.8310594  64.8229651 125.7413324  38.7880696
  65.0165541 126.6459135  39.0339970  64.7230269 125.2820743  39.6219281
  56.4765962 115.6271215  41.2871023  55.8293877 116.3261165  41.1935499
  57.2466977 116.0607359  41.6547271  56.6530096 123.4651980  39.3467843
  57.5822156 123.6163139  39.1736810  56.2321126 123.5536001  38.4916489
  50.9767887 122.2751877  40.0307799  50.8387685 121.5432116  40.6319338
  51.8872810 122.1860777  39.7491987  59.9382835 124.2140281  24.7792278
  59.3212005 123.4887109  24.6825330  59.4699323 124.9749642  24.4359352
  53.6050188 121.9871836  39.5191479  54.3149806 121.3465029  39.4778097
  53.5619496 122.2384731  40.4417660  52.3179122 118.9737054  41.3387118
  51.7816479 118.5227793  41.9908715  51.7295830 119.1082963  40.5957583
  51.7281381 118.4325706  23.9013582  50.8510847 118.3114506  23.5375829
  52.2039134 117.6411784  23.6492471  48.0518243 118.1093062  38.4240113
  47.9676432 117.5018731  37.6890523  47.2300949 118.6002080  38.4249609
  58.2241957 116.5946625  33.7910308  58.7210656 115.8416588  33.4711378
  57.4528938 116.6310942  33.2253517  66.0771714 122.2986991  35.4328599
  66.0661590 123.1811706  35.0622532  65.2089094 121.9458542  35.2383136
  54.8076925 118.7364008  33.5181992  54.4374713 118.1835049  34.2062898
  55.3036018 118.1322142  32.9656992  62.6944289 121.1935632  31.8998765
  63.1604741 122.0263624  31.8259068  63.1451789 120.7280614  32.6044024
  60.6660951 113.5616219  35.9389667  59.7524031 113.7920446  36.1071874
  61.0954053 113.6454663  36.7903699  60.4367410 121.7506111  38.4389561
  59.7838860 121.9982018  37.7842013  60.8147790 120.9370249  38.1052038
  56.4854983 122.4925922  44.9255598  55.8095620 122.3920051  45.5957973
  57.3082617 122.3365136  45.3891595  50.2042259 116.1467999  39.7635099
  50.2683586 117.0082830  39.3512496  50.1409379 115.5342001  39.0307457
  49.6794532 118.2191132  43.4108133  50.3066570 117.8368209  44.0245657
  48.8222450 118.0005334  43.7763825  46.4560074 120.0267561  29.3426488
  46.7513515 119.1178239  29.2893541  45.5548110 120.0055300  29.0207490
  49.9854321 118.1023557  35.3254036  49.2640907 118.7159525  35.1861510
  50.7747577 118.6381322  35.2470682  52.7880635 115.4377984  41.5994688
  53.3115037 115.6840280  42.3620997  52.5692968 116.2698019  41.1797825
  48.1847916 117.7081659  29.4665813  47.8560622 116.8279037  29.2840919
  48.5387287 117.6529327  30.3542202  51.2989739 117.9954628  29.8341290
  51.6385812 118.5240550  29.1119899  51.7461860 118.3335034  30.6099857
  53.9933180 116.3791679  39.2844358  53.6530000 115.5799492  39.6865038
  53.2872186 116.6793390  38.7121192  54.6449652 113.4640991  37.7371682
  55.4675721 112.9901470  37.6150572  54.8887715 114.2431475  38.2370368
  53.2857886 116.4929250  28.0334583  54.0066249 116.8710503  27.5298300
  52.6623190 117.2118127  28.1369561  57.4289009 117.1974399  28.9692916
  57.6452624 118.0799037  28.6681744  56.9483076 116.8060612  28.2398558
  52.1688231 120.1560112  35.5463660  52.0232811 120.4700415  36.4387942
  51.6913434 120.7745012  34.9934559  54.0284613 117.1462660  35.5944550
  54.0146182 116.2503753  35.2576848  54.7457042 117.1533324  36.2282836
  55.8810744 117.5800000  37.6397677  55.6228522 118.5017071  37.6382008
  55.3495785 117.1830435  38.3298141  53.4321509 116.0277040  30.8632120
  53.5537421 115.0993687  31.0623007  53.1423552 116.0415726  29.9510435
  56.3012700 113.7131951  33.9998840  56.3234397 113.7771284  33.0450819
  56.7180759 112.8736459  34.1939346  66.6796324 123.4487210  32.0378062
  67.1227470 122.6994536  31.6397186  65.8022834 123.4397347  31.6551794
  52.9162589 117.5409038  45.0722052  52.9650744 118.4171161  44.6899822
  53.4585103 116.9986431  44.4993696  63.5215310 124.9342627  41.6655918
  63.5713315 124.7692635  42.6071441  63.4129233 124.0669886  41.2753799
  60.8119072 120.9173555  42.9815225  61.7128935 120.7780020  42.6899223
  60.8867047 121.0828010  43.9213402  55.1461877 118.2940410  41.8268411
  54.2765187 118.5873976  41.5551000  55.3821358 118.8780855  42.5475675
  66.2229189 124.9192449  34.4300510  67.0576080 125.3582253  34.5938070
  66.3588318 124.4431102  33.6108756  63.2720695 122.4772184  40.3777998
  63.7474816 122.6699830  39.5696849  62.3486260 122.5331369  40.1321381
  57.8500911 114.5120027  39.3433831  58.3682855 115.2481054  39.0180320
  57.4956044 114.8184020  40.1780591  49.4299849 119.3724708  27.4595237
  48.7369094 119.4469063  26.8035273  49.1851601 118.6085052  27.9816754
  58.1013505 110.9320310  34.8634728  58.3815259 110.2643499  35.4895155
  58.8864112 111.1249405  34.3509392  61.9722364 119.3537944  38.6106303
  62.9239787 119.4536041  38.6318527  61.8025814 118.5616212  39.1204388
  59.9936743 116.4393527  38.7965704  59.3986675 116.7198540  38.1012193
  59.7086440 116.9287428  39.5682445  64.4510441 122.5744063  37.7248603
  64.4186762 121.6360064  37.9108287  65.0611065 122.6528100  36.9914428
  56.2893772 121.4440116  23.7675807  57.2352877 121.3146324  23.8364225
  55.9108017 120.7054778  24.2445235  64.6004930 119.3655107  37.7706886
  64.0843979 118.5813563  37.5836815  65.4844878 119.0373823  37.9353405
  62.2615657 113.1096122  33.7302699  62.0640478 112.8011210  34.6146031
  62.8715362 113.8357761  33.8600629  70.2686991 123.6360070  36.8654640
  70.9990380 123.3745358  37.4262343  69.6593937 122.8988792  36.9056708
  68.3502288 121.7767933  37.4629091  67.6235452 121.6423898  36.8545582
  67.9349575 122.0844761  38.2685809  54.4736689 119.3690093  23.7030692
  53.5668145 119.0723205  23.7793406  54.7512670 119.0719911  22.8364978
  56.0898755 113.9126982  29.8574933  55.2799484 113.5674067  30.2330179
  56.7783172 113.6034526  30.4462545  58.0189303 112.9905029  31.4799230
  58.5720342 113.4100483  32.1389253  58.2559390 112.0640777  31.5222186
  54.0422403 118.9792103  47.2601994  53.9419130 119.9286460  47.1914085
  53.8243945 118.6510342  46.3878064  53.2435474 116.2277028  23.8442671
  54.1054638 116.5531926  24.1038489  53.4285818 115.4408524  23.3315737
  61.3968111 115.1005554  30.9877894  60.8166780 115.7590358  30.6055947
  61.1304043 114.2782899  30.5765312  59.8471677 114.5010612  33.1899215
  60.3471455 114.6127147  32.3813533  60.4907285 114.1971665  33.8300023
  53.9053673 122.4089242  46.0767056  53.4220754 123.2089602  46.2830945
  53.9914612 122.4197187  45.1234500  60.1792989 117.2605645  30.0434243
  59.2918844 117.5455295  29.8254437  60.5946978 117.0999408  29.1961519
  63.5307525 117.2852166  33.7588582  64.3067915 117.7748618  34.0313199
  62.8055659 117.7110220  34.2160451  65.9680083 117.9979785  34.8162522
  66.5624574 117.7575521  34.1055831  66.0406667 117.2786915  35.4436059
  60.1534012 122.7760181  30.2584533  60.0969214 123.2328732  29.4192165
  60.7062355 122.0150865  30.0807375  63.9638818 118.5649913  31.0834652
  63.7075752 118.1646548  31.9142860  63.3391686 119.2793706  30.9584791
  68.2751156 121.3045986  33.5905944  67.7150714 121.3739175  34.3637506
  67.6694659 121.1286970  32.8705440  60.8868792 123.9664962  27.5537062
  60.8317595 123.8009233  26.6125506  60.2614847 124.6740995  27.7099252
  45.6761307 119.2033026  41.3798484  46.3220170 118.6931980  41.8685709
  45.4678458 119.9401708  41.9541909  54.1964917 113.4673071  27.1322380
  54.1843587 114.4114911  27.2890651  55.0888339 113.2843216  26.8381841
  58.0117037 110.0615848  31.3868317  57.2449432 109.5074334  31.5324999
  58.4227742 110.1337716  32.2482469  50.0158798 116.3500643  45.4773498
  50.8790259 115.9937448  45.6876823  49.4424208 116.0114538  46.1648903
  69.4365422 127.2020342  38.3388008  69.0929692 128.0921984  38.2627119
  69.8044385 127.0122000  37.4757593  71.2353088 126.4613901  33.4405746
  71.5411965 125.6011265  33.1531661  71.9605693 127.0531521  33.2404740
  71.5054706 128.8908137  35.9389667  70.5917786 129.1212363  36.1071874
  71.9347807 128.9746581  36.7903699  68.9407260 126.2612227  34.8634728
  69.2209014 125.5935416  35.4895155  69.7257867 126.4541323  34.3509392
  73.1009411 128.4388040  33.7302699  72.9034232 128.1303128  34.6146031
  73.7109117 129.1649679  33.8600629  68.8583058 128.3196947  31.4799230
  69.4114097 128.7392400  32.1389253  69.0953144 127.3932695  31.5222186
  68.8510791 125.3907765  31.3868317  68.0843187 124.8366252  31.5324999
  69.2621496 125.4629634  32.2482469   2.6778909  29.3323963  30.6634763
   2.2342764  28.5460342  30.3455668   3.3396123  29.5203114  29.9978654
   4.7760148  29.6126763  28.6916165   4.7578623  30.4335644  28.1996434
   5.6980068  29.4880838  28.9166306   5.6875988  26.2522601  31.0866883
   5.5361495  26.0233153  30.1696966   5.6780668  27.2093203  31.0998228
   7.3968195  29.2841724  29.1643365   7.3380741  28.6000944  28.4973948
   7.7987713  30.0260714  28.7123991   5.8819869  28.9856641  31.7407175
   6.4259773  29.5986599  31.2462130   5.3006714  29.5436220  32.2574188
   9.2048663  28.4452695  31.0768496   8.4144207  28.4276834  30.5372996
   8.9682018  28.9840989  31.8317533  10.8264735  27.7142103  28.6343246
  10.5349544  28.0772084  29.4706707  10.2136867  27.0009111  28.4556578
   4.0045928  26.6316408  33.6035931   4.8737087  26.8057060  33.2422566
   3.5252679  27.4510825  33.4811661  15.6638403  38.3405034  23.0081206
  16.3016813  38.2211781  22.3044546  15.5459246  39.2885878  23.0669158
  12.4728110  38.2932462  22.9442731  12.1346621  38.1773527  22.0563266
  13.3417878  37.8923627  22.9243737  12.9547893  39.4467314  28.9028936
  12.9436533  39.0520112  28.0309440  13.1168532  38.7133386  29.4962708
   5.8779357  41.6419130  21.7723842   6.6700649  41.3009955  21.3570141
   6.1176007  41.7514105  22.6925995   9.6755154  42.2304426  27.8508120
   9.3845020  43.1350056  27.7354786  10.3112138  42.2720953  28.5652190
  10.6011361  39.6081274  24.4409480  11.1974933  39.3837296  23.7266443
  10.6586332  38.8666020  25.0434928  20.6188099  36.0031721  20.9867393
  21.3513271  35.4330938  21.2205222  19.8627455  35.6153321  21.4273898
  18.1413519  29.7153295  25.4462001  17.8096844  30.5848706  25.2223216
  17.5459133  29.3989579  26.1256032  14.6345039  41.9165841  24.8457914
  14.3345762  42.8190880  24.7373721  14.2896098  41.6498024  25.6979067
  18.0342183  34.4348381  22.5255351  17.1259060  34.3663790  22.2314112
  17.9829778  34.9120326  23.3537177   9.6165819  48.6810161  17.8128882
   9.5389848  49.6317987  17.8917362   9.0127462  48.3356034  18.4703808
  12.1083048  35.8538027  30.4690248  11.3316383  36.4131947  30.4593113
  12.7473611  36.3394810  30.9905119  19.9003829  32.6364820  24.3033225
  19.2578209  32.9297353  23.6573020  19.3958758  32.5217740  25.1086422
  10.3629421  38.6623480  30.0308215  11.1044105  39.2008524  29.7543039
   9.6566406  39.2889769  30.1879767  15.8384760  40.8052621  28.6280377
  16.2468116  40.3635031  27.8835009  15.1162022  40.2305248  28.8814570
  12.1915830  35.7425227  26.0013934  13.0377026  36.1664641  26.1448583
  12.1314468  35.0858852  26.6952497  16.1613575  41.3653811  22.3832666
  15.5322437  41.5299525  21.6808734  15.7739237  41.7795421  23.1543630
  20.0402807  42.3008249  19.7377030  19.3553845  42.6807151  19.1874063
  20.1246656  42.9103576  20.4708977  15.3415276  33.4029596  27.6595108
  15.0976208  34.1571656  27.1229383  15.6175206  33.7814943  28.4942355
  17.2953739  39.9468208  26.3372373  17.5070634  40.5899968  25.6606754
  17.2483487  39.1130525  25.8694303  11.7141537  41.1028219  19.6482751
  12.1779882  41.3815922  18.8587373  11.4498335  40.2011664  19.4655842
   8.6065618  40.6499701  22.5862514   9.1766975  41.0786969  21.9479999
   9.1973730  40.3682286  23.2846700   9.0990784  35.8163128  30.8323525
   8.4689445  36.4979409  31.0658922   8.9926872  35.7046210  29.8876664
  18.4099566  42.8240164  24.5094730  19.2317010  42.4220351  24.2277412
  18.4061969  42.7208398  25.4610846  12.1756170  42.3724207  26.6655441
  12.2400602  42.8344614  27.5013613  11.4667094  41.7421572  26.7937751
  26.5005560  39.1678912  20.8579702  25.7469268  38.5986310  20.7023706
  26.6353101  39.1341577  21.8050337   8.3771527  30.1183894  33.1948776
   7.9838473  29.5650093  33.8696421   9.1937668  30.4294473  33.5855294
   7.1528470  44.6733509  19.1885100   7.3295098  45.5951473  19.0006083
   7.9485303  44.3591928  19.6179479  11.2939488  31.5341773  30.7869033
  12.0349202  32.1348926  30.7073496  11.5257411  30.7919411  30.2287076
   6.4380826  36.7198141  29.0647263   6.3234341  35.8183398  29.3654362
   5.5825344  36.9661837  28.7132079  13.5172664  44.6615881  30.6634763
  13.0736518  43.8752259  30.3455668  14.1789878  44.8495031  29.9978654
   8.2759785  46.1911682  25.1895442   8.8267210  46.0628746  24.4172436
   7.4371261  46.4906571  24.8390335  15.6153902  44.9418681  28.6916165
  15.5972377  45.7627562  28.1996434  16.5373822  44.8172756  28.9166306
  12.0726956  42.4562810  29.5339673  12.6055293  41.6951098  29.3038981
  11.5441037  42.1636462  30.2763827  18.4172515  39.7797823  22.1625531
  17.7596189  40.4697085  22.2505660  19.2212914  40.1694255  22.5059518
  17.2277974  38.1342196  20.2129473  17.7409855  38.7672188  20.7151183
  17.8779198  37.5343391  19.8472833  13.7058805  35.6091652  22.4587814
  12.7881366  35.8306599  22.3009502  14.1218948  35.6837962  21.5999521
  17.9939770  43.1148197  18.3408616  17.5402097  42.2739107  18.3973806
  17.3633737  43.7509596  18.6783396  16.4372709  44.9524694  19.2758434
  16.7295684  45.5129751  18.5570799  16.9471330  45.2453255  20.0311593
  11.4006334  45.7305045  20.3651887  11.3582513  45.9565891  19.4360419
  12.3169033  45.4968420  20.5137688  14.8471968  36.1989113  27.2632516
  15.2021356  36.4260586  28.1226982  15.4944099  36.5307490  26.6409772
  20.5769705  39.3207549  17.9681845  20.4387604  39.5109145  17.0403035
  20.2205924  40.0826931  18.4249896  20.6039085  41.3884076  22.9793117
  21.0375591  41.2959365  23.8276171  21.3170665  41.3641576  22.3413133
   9.5172135  42.6068074  20.1613850  10.3112734  42.1118394  19.9596425
   8.8063828  42.0785937  19.7981555  14.3366980  44.9886170  24.5126217
  14.3904002  45.5577106  25.2803933  13.4681761  45.1588055  24.1480255
   7.2165373  34.6903726  25.9950669   7.8888426  34.4821088  25.3463318
   6.3895160  34.4925812  25.5555901  21.4654634  41.4307776  25.5126002
  21.6590524  42.3353587  25.7585277  21.3655252  40.9715195  26.3464587
  13.1190945  31.3165667  28.0116330  12.4718860  32.0155617  27.9180806
  13.8891960  31.7501811  28.3792578  16.5269743  41.5814519  31.0866883
  16.3755249  41.3525071  30.1696966  16.5174422  42.5385120  31.0998228
  13.2955079  39.1546432  26.0713149  14.2247139  39.3057591  25.8982117
  12.8746109  39.2430453  25.2161796  12.0943411  43.1797096  23.8411687
  11.9554497  42.8115881  24.7137625  11.3058007  43.6944736  23.6695645
  12.6891563  48.2806193  15.1837223  12.8643319  47.8094236  15.9982846
  12.0024351  48.9071959  15.4118484  13.6448626  42.5578699  21.2300525
  13.3098459  42.5179469  22.1258175  13.1452572  41.8923415  20.7570935
   7.6192870  37.9646329  26.7553106   7.4812668  37.2326568  27.3564645
   8.5297794  37.8755229  26.4737294  10.2475171  37.6766288  26.2436785
  10.9574789  37.0359480  26.2023404  10.2044479  37.9279183  27.1662966
  18.2361950  44.6133642  29.1643365  18.1774496  43.9292862  28.4973948
  18.6381468  45.3552632  28.7123991   8.9604105  34.6631506  28.0632425
   8.4241462  34.2122245  28.7154021   8.3720813  34.7977415  27.3202889
   7.2552648  51.4295555  21.9577084   7.4949247  52.0614080  22.6356102
   6.4121845  51.0783595  22.2442443  18.2379357  42.5773226  27.3957344
  17.3506136  42.2399147  27.5183743  18.8077908  41.8456257  27.6326110
  11.7680510  47.2374678  24.3618588  11.6950682  48.0429649  24.8737892
  11.3257903  47.4366644  23.5366609  11.5570290  46.4746448  17.8721409
  10.7737812  47.0168128  17.9659634  12.2563035  46.9920428  18.2715650
  22.7196697  37.9881443  22.1573906  22.7086574  38.8706158  21.7867839
  21.8514077  37.6352994  21.9628443  14.2279194  47.1361512  26.5176746
  14.9407166  47.7708977  26.4452648  13.7369222  47.2325378  25.7016748
  15.9496721  41.0412765  18.0894038  15.0152999  41.1614227  17.9198742
  16.1273389  40.1385231  17.8254048  19.3369272  36.8830084  18.6244072
  19.8029724  37.7158075  18.5504375  19.7876773  36.4175065  19.3289331
   9.2791107  44.8855955  27.3382317   9.9800567  45.5192438  27.4911711
   8.8086222  45.2270687  26.5777956  17.0792393  37.4400563  25.1634867
  16.4263844  37.6876470  24.5087320  17.4572773  36.6264701  24.8297345
  14.0399567  47.4760256  19.2663038  14.2221962  46.6581912  19.7290790
  14.8632553  47.6927948  18.8287928  14.3741733  46.4028441  16.5278086
  14.9029499  45.8920896  15.9148248  14.6369952  46.0870971  17.3923619
  13.1279966  38.1820374  31.6500904  12.4520603  38.0814503  32.3203280
  13.9507600  38.0259588  32.1136902   4.8758825  44.4192310  24.2713420
   5.4612262  43.6735998  24.4041324   4.6783664  44.7296267  25.1550084
   7.7297481  47.4543558  19.2875862   7.0607856  47.9389685  18.8039902
   7.5910350  47.7012778  20.2019241  11.8702749  49.4887301  25.8858520
  12.4221057  49.6518923  26.6507606  12.2108943  50.0791739  25.2138545
   6.3219515  33.9085584  30.1353439   6.9491554  33.5262661  30.7490964
   5.4647434  33.6899786  30.5009132  16.7213623  44.3148559  31.7407175
  17.2653527  44.9278517  31.2462130  16.1400468  44.8728137  32.2574188
  15.0071136  47.4369277  22.8722203  14.8822276  46.6359017  22.3633148
  15.6650228  47.9315470  22.3836173  17.0706045  45.2378297  24.5001753
  16.1236380  45.1183648  24.4280079  17.4188818  44.3500795  24.5828014
   9.4305618  31.1272436  28.3239995   9.9540020  31.3734732  29.0866304
   9.2117951  31.9592471  27.9043132  14.0752478  45.0331013  20.7006105
  13.9277441  44.1047721  20.8813675  14.9005972  45.0551104  20.2163180
  17.6786600  45.8559572  21.7870978  18.6033147  45.6502433  21.6495429
  17.5101903  45.6075973  22.6960319  10.6358163  32.0686131  26.0089665
  10.2954984  31.2693944  26.4110345   9.9297170  32.3687842  25.4366498
  12.5235727  33.2694452  24.3642984  12.2653505  34.1911523  24.3627314
  11.9920768  32.8724887  25.0543448  17.4681916  46.3745239  17.1433069
  17.6418794  45.8091662  16.3906922  17.9610807  47.1746134  16.9612559
   3.2858876  38.3859908  25.2096628   2.7412344  39.1619716  25.3416902
   4.1638226  38.7330713  25.0515749  23.3221307  39.1381662  18.7623369
  23.7652453  38.3888987  18.3642492  22.4447818  39.1291799  18.3797101
  18.4557089  45.6912004  14.2429967  19.1507993  46.3118696  14.4617282
  18.7980239  44.8407355  14.5182345   4.0724898  37.5129805  28.1026785
   3.3306634  37.6612440  28.6891415   3.7517642  37.7738070  27.2393534
  20.3548512  43.1411709  15.7717298  20.8799836  43.4798982  15.0466618
  20.2670864  42.2058725  15.5880433  12.0168560  47.0545783  27.9007175
  12.3255687  46.8094930  28.7729874  12.8144043  47.2592421  27.4126045
  12.0389173  49.2083693  20.1312551  11.5994163  48.7160071  20.8245408
  12.7897289  48.6656660  19.8904627   4.5181512  45.3995233  20.1337179
   5.3439531  45.0999005  19.7535823   4.1675564  44.6302856  20.5826968
   9.4863045  44.7521702  22.2034853   8.8643054  44.0892407  21.9037081
  10.1567912  44.7782834  21.5208501   9.5587572  33.2303490  31.7967359
   9.6075728  34.1065612  31.4145129  10.1010086  32.6880883  31.2239002
  20.0442418  43.7744613  31.0768496  19.2537962  43.7568752  30.5372996
  19.8075772  44.3132907  31.8317533  20.1640293  40.6237079  28.3901225
  20.2138298  40.4587087  29.3316747  20.0554216  39.7564338  27.9999105
  17.4544055  36.6068007  29.7060531  18.3553918  36.4674472  29.4144529
  17.5292030  36.7722462  30.6458709  11.7886861  33.9834862  28.5513718
  10.9190170  34.2768428  28.2796306  12.0246341  34.5675307  29.2720981
  21.6658490  43.0434021  28.6343246  21.3743298  43.4064001  29.4706707
  21.0530621  42.3301029  28.4556578  22.8654172  40.6086901  21.1545816
  23.7001063  41.0476705  21.3183377  23.0013301  40.1325554  20.3354062
  19.9145678  38.1666635  27.1023304  20.3899800  38.3594282  26.2942156
  18.9911243  38.2225821  26.8566688  14.4925894  30.2014479  26.0679138
  15.0107838  30.9375506  25.7425627  14.1381027  30.5078472  26.9025897
  18.6147347  35.0432396  25.3351610  19.5664770  35.1430493  25.3563834
  18.4450797  34.2510664  25.8449694  16.6361726  32.1287979  25.5211011
  16.0411659  32.4092991  24.8257499  16.3511423  32.6181880  26.2927752
  21.0935425  38.2638515  24.4493909  21.0611745  37.3254516  24.6353593
  21.7036048  38.3422552  23.7159734  21.2429913  35.0549559  24.4952193
  20.7268962  34.2708015  24.3082121  22.1269862  34.7268275  24.6598712
  26.9111975  39.3254522  23.5899946  27.6415363  39.0639810  24.1507650
  26.3018920  38.5883244  23.6302014  24.9927272  37.4662385  24.1874397
  24.2660435  37.3318350  23.5790889  24.5774559  37.7739213  24.9931115
  12.8157448  41.1852314  31.9521770  13.7360458  41.3630913  32.1461817
  12.7807031  40.2408360  31.8001470   5.8119521  39.0953349  24.5944552
   6.0305530  40.0270457  24.6132585   6.2245295  38.7361323  25.3799355
  10.6847386  34.6686555  33.9847301  10.5844113  35.6180912  33.9159392
  10.4668928  34.3404794  33.1123371  10.5478656  38.0983694  32.8012362
  10.0645738  38.8984054  33.0076251  10.6339595  38.1091638  31.8479806
   6.4751994  41.9888228  24.8380796   7.4295247  41.9572171  24.7710728
   6.2764517  41.5278852  25.6531022   7.0651376  40.5589344  27.4051594
   7.8844265  41.0533423  27.4286431   7.3388183  39.6421312  27.3769161
  20.1732508  32.9746618  20.4833888  20.9492898  33.4643070  20.7558505
  19.4480642  33.4004672  20.9405758  22.6105067  33.6874237  21.5407829
  23.2049557  33.4469973  20.8301137  22.6831650  32.9681367  22.1681365
   4.8302222  47.5307848  21.8550994   4.6956690  46.7708249  21.2888992
   4.4134285  48.2548748  21.3879783  24.9176139  36.9940438  20.3151250
  24.3575697  37.0633627  21.0882812  24.3119643  36.8181422  19.5950746
   7.9871348  48.4277165  22.0669437   7.8703732  49.3722597  21.9648127
   7.1663795  48.1250726  22.4555236   2.3186290  34.8927478  28.1043791
   2.9645154  34.3826432  28.5931016   2.1103441  35.6296160  28.6787216
  14.8439682  41.9608326  33.6035931  15.7130842  42.1348978  33.2422566
  14.3646434  42.7802742  33.4811661   9.0125862  49.0805427  25.2825365
   9.9153109  49.1129037  25.5991860   8.7863232  48.1505878  25.2971701
  10.7679464  47.8336413  21.9435444   9.8175095  47.8338275  21.8299816
  11.0711951  47.0869148  21.4271478   6.6583781  32.0395095  32.2018805
   7.5215242  31.6831900  32.4122130   6.0849192  31.7008990  32.8894209
  26.5032158  53.6696952  23.0081206  27.1410568  53.5503699  22.3044546
  26.3853001  54.6177796  23.0669158  23.3121864  53.6224380  22.9442731
  22.9740376  53.5065444  22.0563266  24.1811632  53.2215545  22.9243737
  19.1708680  55.4759856  18.9339622  18.6073545  55.3849793  18.1655909
  19.0561075  54.6559761  19.4142114  23.7941647  54.7759231  28.9028936
  23.7830288  54.3812030  28.0309440  23.9562287  54.0425304  29.4962708
  16.7173112  56.9711048  21.7723842  17.5094404  56.6301872  21.3570141
  16.9569762  57.0806023  22.6925995  24.7508239  59.1430824  14.2454087
  24.0996218  59.7284904  13.8588100  25.5452601  59.6737019  14.3049124
  18.6763866  56.2319961  14.6441221  19.4494742  55.6848948  14.5054097
  19.0289265  57.0964210  14.8555682  20.5148908  57.5596343  27.8508120
  20.2238774  58.4641974  27.7354786  21.1505893  57.6012871  28.5652190
  21.4405115  54.9373192  24.4409480  22.0368687  54.7129214  23.7266443
  21.4980087  54.1957937  25.0434928  21.0130144  52.3912627  12.2759671
  21.2655664  51.8694148  11.5143134  20.0754703  52.2278773  12.3786354
  26.0573426  51.3948405  20.0834414  26.8436516  50.9767829  19.7324831
  26.3212131  52.2994498  20.2516062  26.2283504  56.8321256  14.7823071
  25.5929337  56.9055882  15.4943975  25.8980910  57.4214855  14.1042150
  31.4581853  51.3323639  20.9867393  32.1907025  50.7622855  21.2205222
  30.7021209  50.9445239  21.4273898  20.7326432  54.2940733  14.4784046
  20.6162690  53.6185636  15.1465130  20.8428692  53.8073107  13.6616199
  23.0757973  53.7550880  18.1830735  22.7116180  53.2281501  18.8943656
  23.9325089  53.3649349  18.0097220  28.9807274  45.0445213  25.4462001
  28.6490599  45.9140624  25.2223216  28.3852887  44.7281497  26.1256032
  22.7163460  48.7840780  13.1792083  22.8837863  49.6521016  13.5462555
  22.5260629  48.9468062  12.2553373  25.4738793  57.2457759  24.8457914
  25.1739516  58.1482798  24.7373721  25.1289853  56.9789942  25.6979067
  18.9251275  53.6971556  20.8794618  18.0001771  53.5647770  21.0872310
  19.1735688  54.4765775  21.3764561  28.8735937  49.7640299  22.5255351
  27.9652814  49.6955707  22.2314112  28.8223533  50.2412244  23.3537177
  22.6952681  51.2398437  14.1638750  22.5752306  51.6855488  15.0024231
  22.0005269  51.5883755  13.6052288  16.2860086  53.3404829  21.7138407
  16.4152467  53.5939308  22.6277819  15.6057537  53.9332537  21.3943062
  20.4559573  64.0102079  17.8128882  20.3783603  64.9609904  17.8917362
  19.8521217  63.6647952  18.4703808  22.9476803  51.1829945  30.4690248
  22.1710137  51.7423865  30.4593113  23.5867366  51.6686728  30.9905119
  30.7397584  47.9656737  24.3033225  30.0971964  48.2589270  23.6573020
  30.2352512  47.8509658  25.1086422  28.3937747  51.7119911  14.9919084
  29.3055603  51.9447297  14.8166782  27.8847394  52.2956955  14.4294163
  21.2023175  53.9915398  30.0308215  21.9437860  54.5300442  29.7543039
  20.4960161  54.6181687  30.1879767  26.6778515  56.1344538  28.6280377
  27.0861871  55.6926949  27.8835009  25.9555776  55.5597166  28.8814570
  23.0309585  51.0717145  26.0013934  23.8770780  51.4956559  26.1448583
  22.9708223  50.4150769  26.6952497  27.0007330  56.6945729  22.3832666
  26.3716192  56.8591443  21.6808734  26.6132992  57.1087339  23.1543630
  30.8796561  57.6300167  19.7377030  30.1947600  58.0099068  19.1874063
  30.9640411  58.2395493  20.4708977  26.1809030  48.7321513  27.6595108
  25.9369962  49.4863574  27.1229383  26.4568961  49.1106861  28.4942355
  28.1347493  55.2760126  26.3372373  28.3464388  55.9191886  25.6606754
  28.0877241  54.4422442  25.8694303  25.7373722  47.8877946  23.2408945
  24.8758201  48.1859200  23.5325683  25.7636157  48.1048345  22.3089978
  22.5535291  56.4320137  19.6482751  23.0173637  56.7107840  18.8587373
  22.2892090  55.5303582  19.4655842  19.4459372  55.9791619  22.5862514
  20.0160730  56.4078887  21.9479999  20.0367484  55.6974203  23.2846700
  21.4904177  52.5543289  16.4572316  22.1928221  53.0064333  16.9246242
  21.1584806  51.9127108  17.0852209  19.9384539  51.1455046  30.8323525
  19.3083200  51.8271327  31.0658922  19.8320627  51.0338128  29.8876664
  15.2329511  50.8126842  21.7589450  14.4428565  51.0684371  21.2829560
  15.7240759  51.6275180  21.8641490  29.2493321  58.1532081  24.5094730
  30.0710765  57.7512269  24.2277412  29.2455724  58.0500315  25.4610846
  17.1844257  51.1771421  18.7172926  16.3875420  51.2890116  19.2356422
  16.9569849  51.5158074  17.8513817  23.0149924  57.7016125  26.6655441
  23.0794357  58.1636532  27.5013613  22.3060848  57.0713489  26.7937751
  13.5167214  51.0657333  24.1904440  13.7675253  51.9504342  24.4562016
  14.0526763  50.8861934  23.4179532  37.3399314  54.4970830  20.8579702
  36.5863022  53.9278228  20.7023706  37.4746855  54.4633494  21.8050337
  22.7297942  59.3684232  16.5334421  22.5943617  60.2135768  16.9619269
  23.2707755  59.5703510  15.7700355  19.2165282  45.4475812  33.1948776
  18.8232227  44.8942010  33.8696421  20.0331422  45.7586390  33.5855294
  16.1827339  56.8859670  17.1062346  16.6951860  57.6802920  17.2567911
  16.8350052  56.1885961  17.0395948  17.9922224  60.0025426  19.1885100
  18.1688853  60.9243391  19.0006083  18.7879058  59.6883846  19.6179479
  22.1333243  46.8633691  30.7869033  22.8742956  47.4640844  30.7073496
  22.3651166  46.1211329  30.2287076  17.2774581  52.0490058  29.0647263
  17.1628096  51.1475315  29.3654362  16.4219098  52.2953755  28.7132079
  24.3566418  59.9907799  30.6634763  23.9130273  59.2044177  30.3455668
  25.0183632  60.1786949  29.9978654  19.1153540  61.5203600  25.1895442
  19.6660965  61.3920664  24.4172436  18.2765016  61.8198489  24.8390335
  26.4547657  60.2710598  28.6916165  26.4366132  61.0919480  28.1996434
  27.3767577  60.1464674  28.9166306  22.9120711  57.7854728  29.5339673
  23.4449047  57.0243016  29.3038981  22.3834792  57.4928380  30.2763827
  26.0790406  42.8914794  25.0633315  25.7354675  43.7816436  24.9872425
  26.4469368  42.7016452  24.2002900  14.1476256  55.2148324  17.8821917
  14.9851478  55.6245333  17.6655625  14.3254524  54.2747767  17.8522111
  26.0440688  52.8823405  13.5705750  25.5287312  53.6528010  13.8094137
  25.7717997  52.2088541  14.1938811  23.6287799  47.7273106  18.6290988
  22.7729396  47.3379956  18.4496627  24.0414751  47.8065067  17.7690774
  25.1586946  45.2619449  23.0282548  24.6551742  45.2249584  22.2150353
  25.4517553  46.1712192  23.0879205  21.4029832  45.3458179  22.0348730
  22.2682829  45.1500987  21.6754619  21.4707341  45.1168531  22.9618086
  31.0174962  55.6355760  15.5058923  30.2404405  55.2966919  15.0614085
  31.6966443  55.6408383  14.8313888  25.8326992  50.7550497  15.3965531
  25.5277127  51.0696646  16.2475674  26.7857434  50.8331917  15.4392864
  24.2773423  56.9140720  17.0458485  23.7494785  56.1793480  16.7331722
  23.7760926  57.6915397  16.7998453  29.2566269  55.1089741  22.1625531
  28.5989944  55.7989002  22.2505660  30.0606669  55.4986173  22.5059518
  19.0092151  47.5760387  19.4065097  19.5835903  47.3535568  18.6738289
  19.5963133  47.6449081  20.1593698  28.0671728  53.4634114  20.2129473
  28.5803610  54.0964105  20.7151183  28.7172952  52.8635309  19.8472833
  19.3361738  49.6064848  13.4260982  18.4999050  49.9439534  13.7470257
  19.1966508  49.4713828  12.4888119  21.3114819  44.4501636  18.1340166
  20.6579231  44.1350653  17.5096781  21.2695293  43.8277376  18.8599989
  22.4226024  54.7320931  10.0493458  21.5153085  54.5010184  10.2484607
  22.9197056  53.9358550  10.2367440  25.3294102  63.4418438  12.9690144
  24.6555801  63.7450135  13.5775102  25.7159924  64.2447518  12.6195601
  24.5452559  50.9383569  22.4587814  23.6275120  51.1598516  22.3009502
  24.9612703  51.0129880  21.5999521  25.3287607  52.3374985  17.5890494
  26.0759426  52.8496382  17.2797616  25.5979196  52.0159038  18.4494887
  23.6014257  54.8333526  14.5717448  22.6925476  54.5492558  14.6689918
  23.6309341  55.2532604  13.7120755  28.8333524  58.4440115  18.3408616
  28.3795852  57.6031025  18.3973806  28.2027491  59.0801513  18.6783396
  27.7766444  49.3732101  19.5709283  27.0389201  48.8609487  19.9019526
  28.0293218  48.9332483  18.7592560  27.2766464  60.2816612  19.2758434
  27.5689438  60.8421669  18.5570799  27.7865084  60.5745173  20.0311593
  27.8778071  42.1508353  20.1651052  28.1836948  41.2905717  19.8776968
  28.6030676  42.7425973  19.9650046  14.1702427  52.5539040  18.5532650
  13.9726827  51.9608400  17.8283717  13.6149091  52.2491250  19.2708589
  22.1499151  52.4462146  20.6727243  22.2047761  51.4935983  20.5969720
  21.3390353  52.6021585  21.1568542  23.2990345  56.3742269  11.9105527
  22.8609775  55.6578128  11.4511164  24.0400786  56.6018384  11.3490618
  20.0891511  51.0639206  18.4317622  19.2759376  51.3633376  18.8382814
  20.5850505  50.6694895  19.1492105  22.2400089  61.0596963  20.3651887
  22.1976268  61.2857809  19.4360419  23.1562788  60.8260337  20.5137688
  25.6865723  51.5281030  27.2632516  26.0415110  51.7552504  28.1226982
  26.3337854  51.8599407  26.6409772  31.4163460  54.6499466  17.9681845
  31.2781358  54.8401062  17.0403035  31.0599678  55.4118849  18.4249896
  19.5805586  48.6357561  24.0478857  20.2204965  48.4946321  23.3501821
  18.7483116  48.3492075  23.6717459  31.4432839  56.7175993  22.9793117
  31.8769346  56.6251282  23.8276171  32.1564420  56.6933494  22.3413133
  20.3565890  57.9359992  20.1613850  21.1506488  57.4410312  19.9596425
  19.6457582  57.4077855  19.7981555  25.1760734  60.3178087  24.5126217
  25.2297756  60.8869024  25.2803933  24.3075515  60.4879972  24.1480255
  16.6648653  52.0803074  16.2373602  15.7346241  52.0187529  16.4543565
  16.7606125  51.5579026  15.4410244  16.5834202  48.6057886  18.8251844
  16.8441019  49.5203220  18.7161005  17.4051374  48.1382329  18.9748457
  18.0559127  50.0195644  25.9950669  18.7282181  49.8113006  25.3463318
  17.2288914  49.8217730  25.5555901  32.3048389  56.7599694  25.5126002
  32.4984279  57.6645504  25.7585277  32.2049007  56.3007113  26.3464587
  23.9584699  46.6457585  28.0116330  23.3112615  47.3447534  27.9180806
  24.7285715  47.0793728  28.3792578  27.3663497  56.9106437  31.0866883
  27.2149004  56.6816988  30.1696966  27.3568177  57.8677038  31.0998228
  24.1348834  54.4838349  26.0713149  25.0640894  54.6349509  25.8982117
  23.7139864  54.5722370  25.2161796  22.9337166  58.5089014  23.8411687
  22.7948251  58.1407798  24.7137625  22.1451762  59.0236653  23.6695645
  23.5285318  63.6098110  15.1837223  23.7037073  63.1386154  15.9982846
  22.8418106  64.2363877  15.4118484  24.4842381  57.8870617  21.2300525
  24.1492213  57.8471387  22.1258175  23.9846326  57.2215332  20.7570935
  18.4586625  53.2938247  26.7553106  18.3206423  52.5618485  27.3564645
  19.3691548  53.2047147  26.4737294  27.4201572  55.2326651  11.5037584
  26.8030743  54.5073479  11.4070637  26.9518061  55.9936011  11.1604659
  21.0868925  53.0058206  26.2436785  21.7968544  52.3651398  26.2023404
  21.0438234  53.2571101  27.1662966  29.0755704  59.9425559  29.1643365
  29.0168250  59.2584779  28.4973948  29.4775222  60.6844549  28.7123991
  19.7997859  49.9923424  28.0632425  19.2635216  49.5414162  28.7154021
  19.2114568  50.1269333  27.3202889  18.0946403  66.7587473  21.9577084
  18.3343001  67.3905997  22.6356102  17.2515599  66.4075513  22.2442443
  29.0773111  57.9065143  27.3957344  28.1899890  57.5691065  27.5183743
  29.6471662  57.1748174  27.6326110  10.7302258  54.2389235  20.7200396
  11.4173298  53.9250965  20.1321411  10.5750387  55.1430600  20.4467647
  15.5336981  49.1279431  25.1485419  15.4495169  48.5205101  24.4135829
  14.7119687  49.6188450  25.1494916  22.6074265  62.5666596  24.3618588
  22.5344436  63.3721567  24.8737892  22.1651658  62.7658561  23.5366609
  22.3964044  61.8038366  17.8721409  21.6131566  62.3460046  17.9659634
  23.0956790  62.3212345  18.2715650  25.7060694  47.6132995  20.5155614
  26.2029394  46.8602957  20.1956685  24.9347676  47.6497312  19.9498824
  33.5590452  53.3173361  22.1573906  33.5480328  54.1998076  21.7867839
  32.6907831  52.9644911  21.9628443  25.0672948  62.4653430  26.5176746
  25.7800920  63.1000894  26.4452648  24.5762977  62.5617296  25.7016748
  26.7890475  56.3704682  18.0894038  25.8546754  56.4906145  17.9198742
  26.9667144  55.4677149  17.8254048  22.2895663  49.7550378  20.2427299
  21.9193451  49.2021418  20.9308205  22.7854756  49.1508511  19.6902299
  30.1763027  52.2122002  18.6244072  30.6423479  53.0449993  18.5504375
  30.6270527  51.7466983  19.3289331  20.1184862  60.2147873  27.3382317
  20.8194321  60.8484356  27.4911711  19.6479977  60.5562605  26.5777956
  28.2439258  58.5565823  15.6230224  28.5199102  58.4422417  16.5324098
  27.3743756  58.1583308  15.5842397  28.1479689  44.5802589  22.6634973
  27.2342769  44.8106815  22.8317180  28.5772791  44.6641033  23.5149006
  27.9186148  52.7692480  25.1634867  27.2657598  53.0168388  24.5087320
  28.2966528  51.9556619  24.8297345  24.8793322  62.8052174  19.2663038
  25.0615716  61.9873830  19.7290790  25.7026308  63.0219866  18.8287928
  25.2135487  61.7320359  16.5278086  25.7423254  61.2212813  15.9148248
  25.4763707  61.4162889  17.3923619  23.9673721  53.5112292  31.6500904
  23.2914358  53.4106421  32.3203280  24.7901355  53.3551505  32.1136902
  15.7152580  59.7484228  24.2713420  16.3006017  59.0027916  24.4041324
  15.5177418  60.0588185  25.1550084  18.5691235  62.7835475  19.2875862
  17.9001610  63.2681603  18.8039902  18.4304105  63.0304696  20.2019241
  10.3070235  52.3189828  22.9917863  10.3454334  51.7853419  23.7854981
   9.8010527  51.7925034  22.3728840  22.7096504  64.8179219  25.8858520
  23.2614812  64.9810840  26.6507606  23.0502697  65.4083657  25.2138545
  17.6860997  47.1654369  26.4880405  17.7502323  48.0269200  26.0757803
  17.6228117  46.5528370  25.7552764  17.1613269  49.2377501  30.1353439
  17.7885308  48.8554579  30.7490964  16.3041188  49.0191703  30.5009132
  27.5607378  59.6440477  31.7407175  28.1047282  60.2570435  31.2462130
  26.9794223  60.2020055  32.2574188  13.9378812  51.0453930  16.0671794
  14.2332253  50.1364609  16.0138848  13.0366848  51.0241670  15.7452797
  25.8464891  62.7661195  22.8722203  25.7216030  61.9650934  22.3633148
  26.5043982  63.2607388  22.3836173  17.4673059  49.1209927  22.0499343
  16.7459645  49.7345895  21.9106816  18.2566315  49.6567692  21.9715989
  27.9099799  60.5670215  24.5001753  26.9630135  60.4475566  24.4280079
  28.2582572  59.6792713  24.5828014  20.2699373  46.4564354  28.3239995
  20.7933775  46.7026650  29.0866304  20.0511706  47.2884388  27.9043132
  15.6666654  48.7268028  16.1911119  15.3379360  47.8465407  16.0086225
  16.0206024  48.6715697  17.0787509  24.9146233  60.3622931  20.7006105
  24.7671195  59.4339638  20.8813675  25.7399726  60.3843022  20.2163180
  18.7808477  49.0140998  16.5586597  19.1204549  49.5426919  15.8365205
  19.2280597  49.3521404  17.3345164  28.5180354  61.1851490  21.7870978
  29.4426902  60.9794351  21.6495429  28.3495658  60.9367891  22.6960319
  21.4751918  47.3978049  26.0089665  21.1348738  46.5985862  26.4110345
  20.7690924  47.6979759  25.4366498  22.1268390  44.4827361  24.4616988
  22.9494459  44.0087839  24.3395878  22.3706453  45.2617845  24.9615674
  20.7676624  47.5115619  14.7579890  21.4884987  47.8896872  14.2543607
  20.1441928  48.2304496  14.8614868  24.9107747  48.2160768  15.6938222
  25.1271361  49.0985406  15.3927050  24.4301814  47.8246982  14.9643864
  19.6506968  51.1746482  22.2708967  19.5051549  51.4886785  23.1633248
  19.1732172  51.7931382  21.7179865  21.5103351  48.1649030  22.3189856
  21.4964920  47.2690123  21.9822154  22.2275779  48.1719693  22.9528142
  23.3629482  48.5986370  24.3642984  23.1047260  49.5203441  24.3627314
  22.8314522  48.2016804  25.0543448  28.3075671  61.7037157  17.1433069
  28.4812548  61.1383579  16.3906922  28.8004562  62.5038052  16.9612559
  14.1252630  53.7151826  25.2096628  13.5806099  54.4911634  25.3416902
  15.0031980  54.0622631  25.0515749  20.9140247  47.0463410  17.5877426
  21.0356158  46.1180056  17.7868314  20.6242290  47.0602096  16.6755742
  23.7831438  44.7318320  20.7244146  23.8053134  44.7957653  19.7696126
  24.1999497  43.8922829  20.9184652  34.1615062  54.4673580  18.7623369
  34.6046208  53.7180905  18.3642492  33.2841572  54.4583716  18.3797101
  29.2950843  61.0203921  14.2429967  29.9901748  61.6410614  14.4617282
  29.6373993  60.1699273  14.5182345  14.9118652  52.8421722  28.1026785
  14.1700388  52.9904358  28.6891415  14.5911397  53.1029988  27.2393534
  31.1942266  58.4703627  15.7717298  31.7193590  58.8090900  15.0466618
  31.1064619  57.5350642  15.5880433  22.8562315  62.3837701  27.9007175
  23.1649441  62.1386847  28.7729874  23.6537797  62.5884339  27.4126045
  22.8782927  64.5375610  20.1312551  22.4387917  64.0451989  20.8245408
  23.6291044  63.9948578  19.8904627  15.3575266  60.7287151  20.1337179
  16.1833286  60.4290923  19.7535823  15.0069318  59.9594774  20.5826968
  20.3256799  60.0813619  22.2034853  19.7036808  59.4184324  21.9037081
  20.9961666  60.1074751  21.5208501  13.5583871  58.6473478  21.0926113
  12.7215779  58.2195652  20.9110114  13.5307516  58.8405921  22.0296904
  20.3981327  48.5595407  31.7967359  20.4469482  49.4357530  31.4145129
  20.9403841  48.0172800  31.2239002  30.8836172  59.1036531  31.0768496
  30.0931716  59.0860669  30.5372996  30.6469527  59.6424824  31.8317533
  31.0034047  55.9528997  28.3901225  31.0532052  55.7879004  29.3316747
  30.8947971  55.0856256  27.9999105  19.8870306  58.6317543  15.6793314
  20.0358426  59.3153007  15.0259986  20.6936750  58.6122633  16.1942769
  28.2937810  51.9359925  29.7060531  29.1947673  51.7966390  29.4144529
  28.3685784  52.1014380  30.6458709  22.6280615  49.3126780  28.5513718
  21.7583925  49.6060346  28.2796306  22.8640095  49.8967225  29.2720981
  32.5052244  58.3725938  28.6343246  32.2137053  58.7355919  29.4706707
  31.8924376  57.6592947  28.4556578  33.7047927  55.9378818  21.1545816
  34.5394818  56.3768622  21.3183377  33.8407055  55.4617471  20.3354062
  30.7539432  53.4958553  27.1023304  31.2293554  53.6886199  26.2942156
  29.8304998  53.5517739  26.8566688  17.6422939  54.6582720  16.6854382
  17.3968981  53.7545050  16.8834593  17.8118854  54.6599871  15.7433860
  25.3319649  45.5306397  26.0679138  25.8501593  46.2667424  25.7425627
  24.9774782  45.8370390  26.9025897  16.9118587  50.3911078  14.1840544
  16.2187832  50.4655433  13.5280580  16.6670339  49.6271421  14.7062061
  25.5832243  41.9506679  21.5880035  25.8633997  41.2829868  22.2140461
  26.3682850  42.1435775  21.0754699  23.3865712  61.1265673  13.1505061
  22.8139679  61.7455860  12.6975533  23.9598505  61.6765035  13.6844983
  29.4541101  50.3724313  25.3351610  30.4058524  50.4722411  25.3563834
  29.2844552  49.5802582  25.8449694  27.4755481  47.4579896  25.5211011
  26.8805413  47.7384909  24.8257499  27.1905178  47.9473797  26.2927752
  26.6062971  61.4102823  14.2813643  27.5393645  61.3448385  14.4846519
  26.5186184  62.2459090  13.8228176  29.2350988  60.7268694  11.2417591
  29.1564620  60.3928557  12.1353349  30.0560655  61.2190461  11.2409063
  31.9329179  53.5930433  24.4493909  31.9005499  52.6546434  24.6353593
  32.5429803  53.6714470  23.7159734  23.7712510  52.4626486  10.4921113
  24.7171615  52.3332694  10.5609532  23.3926755  51.7241148  10.9690542
  32.0823668  50.3841476  24.4952193  31.5662716  49.5999933  24.3082121
  32.9663616  50.0560193  24.6598712  29.7434395  44.1282492  20.4548005
  29.5459216  43.8197580  21.3391337  30.3534100  44.8544131  20.5845935
  37.7505729  54.6546440  23.5899946  38.4809118  54.3931728  24.1507650
  37.1412675  53.9175162  23.6302014  35.8321026  52.7954302  24.1874397
  35.1054190  52.6610267  23.5790889  35.4168313  53.1031131  24.9931115
  23.6551203  56.5144232  31.9521770  24.5754212  56.6922831  32.1461817
  23.6200786  55.5700277  31.8001470  21.9555427  50.3876462  10.4275999
  21.0486883  50.0909575  10.5038712  22.2331408  50.0906280   9.5610285
  12.8733368  51.7082826  20.8775045  12.5536152  50.8548134  20.5849419
  12.3266796  51.9231404  21.6333012  16.6513275  54.4245267  24.5944552
  16.8699285  55.3562374  24.6132585  17.0639049  54.0653241  25.3799355
  23.5717493  44.9313352  16.5820240  22.7618221  44.5860437  16.9575486
  24.2601910  44.6220896  17.1707852  25.5008041  44.0091399  18.2044537
  26.0539080  44.4286852  18.8634560  25.7378128  43.0827147  18.2467493
  21.5241141  49.9978472  33.9847301  21.4237867  50.9472829  33.9159392
  21.3062683  49.6696711  33.1123371  12.7421628  55.3285737  22.8468167
  12.0485099  54.9139690  22.3338121  13.4894619  55.3706274  22.2501586
  28.8786848  46.1191924  17.7123201  28.2985517  46.7776728  17.3301253
  28.6122781  45.2969269  17.3010618  27.3290415  45.5196982  19.9144521
  27.8290193  45.6313516  19.1058840  27.9726023  45.2158034  20.5545330
  21.3872411  53.4275611  32.8012362  20.9039492  54.2275971  33.0076251
  21.4733350  53.4383556  31.8479806  14.6558370  55.2603991  20.7234182
  14.6329058  55.3591678  19.7716065  14.9659007  56.1069142  21.0451348
  17.3145748  57.3180146  24.8380796  18.2689002  57.2864088  24.7710728
  17.1158272  56.8570770  25.6531022  17.9045130  55.8881262  27.4051594
  18.7238019  56.3825341  27.4286431  18.1781938  54.9713230  27.3769161
  27.6611726  48.2792014  16.7679549  26.7737581  48.5641665  16.5499744
  28.0765715  48.1185778  15.9206826  31.0126263  48.3038535  20.4833888
  31.7886653  48.7934988  20.7558505  30.2874397  48.7296589  20.9405758
  33.4498821  49.0166154  21.5407829  34.0443312  48.7761890  20.8301137
  33.5225405  48.2973285  22.1681365  15.6695977  62.8599765  21.8550994
  15.5350445  62.1000166  21.2888992  15.2528039  63.5840665  21.3879783
  26.8054940  58.0436689  10.8627569  27.5090790  58.2486691  11.4785225
  26.0817589  58.6113451  11.1276653  27.6352750  53.7946550  16.9829839
  27.5787952  54.2515102  16.1437472  28.1881093  53.0337235  16.8052682
  31.4457556  49.5836282  17.8079959  31.1894490  49.1832918  18.6388167
  30.8210424  50.2980076  17.6830098  35.7569894  52.3232355  20.3151250
  35.1969452  52.3925545  21.0882812  35.1513397  52.1473340  19.5950746
  18.8265103  63.7569082  22.0669437  18.7097487  64.7014515  21.9648127
  18.0057549  63.4542644  22.4555236  28.7141637  58.4819218  12.9126029
  29.5487241  58.0500417  12.7303504  28.5525980  58.3101232  13.8402924
  28.3687529  54.9851331  14.2782369  28.3136333  54.8195603  13.3370813
  27.7433585  55.6927364  14.4344558  13.1580044  50.2219396  28.1043791
  13.8038908  49.7118350  28.5931016  12.9497196  50.9588077  28.6787216
  25.6833437  57.2900243  33.6035931  26.5524596  57.4640896  33.2422566
  25.2040188  58.1094660  33.4811661  21.6783655  44.4859440  13.8567687
  21.6662325  45.4301280  14.0135958  22.5707077  44.3029586  13.5627148
  19.8519617  64.4097344  25.2825365  20.7546864  64.4420955  25.5991860
  19.6256987  63.4797795  25.2971701  21.6073219  63.1628331  21.9435444
  20.6568850  63.1630192  21.8299816  21.9105705  62.4161065  21.4271478
  25.4935774  41.0802217  18.1113624  24.7268170  40.5260704  18.2570306
  25.9046479  41.1524086  18.9727775  17.4977535  47.3687013  32.2018805
  18.3608997  47.0123818  32.4122130  16.9242946  47.0300908  32.8894209
  37.3425912  68.9988869  23.0081206  37.9804322  68.8795617  22.3044546
  37.2246755  69.9469713  23.0669158  34.1515619  68.9516297  22.9442731
  33.8134130  68.8357362  22.0563266  35.0205387  68.5507462  22.9243737
  30.0102434  70.8051774  18.9339622  29.4467299  70.7141711  18.1655909
  29.8954829  69.9851678  19.4142114  34.6335402  70.1051149  28.9028936
  34.6224042  69.7103947  28.0309440  34.7956041  69.3717222  29.4962708
  27.5566866  72.3002965  21.7723842  28.3488158  71.9593790  21.3570141
  27.7963516  72.4097940  22.6925995  35.5901993  74.4722741  14.2454087
  34.9389973  75.0576822  13.8588100  36.3846356  75.0028936  14.3049124
  29.5157620  71.5611879  14.6441221  30.2888496  71.0140866  14.5054097
  29.8683019  72.4256128  14.8555682  31.3542663  72.8888261  27.8508120
  31.0632529  73.7933892  27.7354786  31.9899647  72.9304789  28.5652190
  32.2798870  70.2665109  24.4409480  32.8762442  70.0421132  23.7266443
  32.3373841  69.5249855  25.0434928  31.8523898  67.7204545  12.2759671
  32.1049419  67.1986066  11.5143134  30.9148457  67.5570690  12.3786354
  36.8967181  66.7240323  20.0834414  37.6830270  66.3059746  19.7324831
  37.1605885  67.6286415  20.2516062  37.0677258  72.1613173  14.7823071
  36.4323091  72.2347800  15.4943975  36.7374665  72.7506772  14.1042150
  42.2975608  66.6615556  20.9867393  43.0300780  66.0914773  21.2205222
  41.5414964  66.2737157  21.4273898  31.5720187  69.6232651  14.4784046
  31.4556445  68.9477554  15.1465130  31.6822447  69.1365025  13.6616199
  33.9151728  69.0842798  18.1830735  33.5509935  68.5573419  18.8943656
  34.7718844  68.6941267  18.0097220  39.8201028  60.3737130  25.4462001
  39.4884353  61.2432541  25.2223216  39.2246642  60.0573414  26.1256032
  33.5557215  64.1132698  13.1792083  33.7231617  64.9812934  13.5462555
  33.3654384  64.2759979  12.2553373  36.3132548  72.5749676  24.8457914
  36.0133271  73.4774715  24.7373721  35.9683607  72.3081860  25.6979067
  29.7645029  69.0263473  20.8794618  28.8395526  68.8939687  21.0872310
  30.0129443  69.8057693  21.3764561  39.7129692  65.0932217  22.5255351
  38.8046569  65.0247625  22.2314112  39.6617287  65.5704162  23.3537177
  33.5346436  66.5690355  14.1638750  33.4146061  67.0147406  15.0024231
  32.8399024  66.9175673  13.6052288  27.1253840  68.6696747  21.7138407
  27.2546222  68.9231226  22.6277819  26.4451292  69.2624455  21.3943062
  31.2953328  79.3393997  17.8128882  31.2177357  80.2901822  17.8917362
  30.6914971  78.9939869  18.4703808  33.7870557  66.5121862  30.4690248
  33.0103891  67.0715782  30.4593113  34.4261120  66.9978645  30.9905119
  41.5791338  63.2948655  24.3033225  40.9365718  63.5881188  23.6573020
  41.0746267  63.1801575  25.1086422  39.2331502  67.0411828  14.9919084
  40.1449358  67.2739215  14.8166782  38.7241149  67.6248872  14.4294163
  32.0416930  69.3207316  30.0308215  32.7831614  69.8592360  29.7543039
  31.3353915  69.9473604  30.1879767  37.5172269  71.4636456  28.6280377
  37.9255625  71.0218867  27.8835009  36.7949531  70.8889084  28.8814570
  33.8703339  66.4009063  26.0013934  34.7164535  66.8248476  26.1448583
  33.8101977  65.7442687  26.6952497  37.8401084  72.0237647  22.3832666
  37.2109946  72.1883361  21.6808734  37.4526746  72.4379256  23.1543630
  41.7190316  72.9592085  19.7377030  41.0341354  73.3390986  19.1874063
  41.8034165  73.5687411  20.4708977  37.0202785  64.0613431  27.6595108
  36.7763717  64.8155492  27.1229383  37.2962715  64.4398779  28.4942355
  38.9741248  70.6052044  26.3372373  39.1858143  71.2483803  25.6606754
  38.9270996  69.7714360  25.8694303  36.5767476  63.2169864  23.2408945
  35.7151956  63.5151118  23.5325683  36.6029911  63.4340263  22.3089978
  33.3929046  71.7612055  19.6482751  33.8567391  72.0399758  18.8587373
  33.1285844  70.8595499  19.4655842  30.2853127  71.3083536  22.5862514
  30.8554484  71.7370805  21.9479999  30.8761239  71.0266121  23.2846700
  32.3297932  67.8835207  16.4572316  33.0321975  68.3356251  16.9246242
  31.9978560  67.2419026  17.0852209  30.7778293  66.4746964  30.8323525
  30.1476954  67.1563245  31.0658922  30.6714381  66.3630045  29.8876664
  26.0723266  66.1418760  21.7589450  25.2822320  66.3976288  21.2829560
  26.5634513  66.9567098  21.8641490  40.0887075  73.4823999  24.5094730
  40.9104519  73.0804186  24.2277412  40.0849478  73.3792233  25.4610846
  28.0238011  66.5063339  18.7172926  27.2269175  66.6182033  19.2356422
  27.7963603  66.8449991  17.8513817  33.8543679  73.0308042  26.6655441
  33.9188111  73.4928449  27.5013613  33.1454603  72.4005407  26.7937751
  24.3560969  66.3949250  24.1904440  24.6069007  67.2796260  24.4562016
  24.8920517  66.2153852  23.4179532  48.1793069  69.8262747  20.8579702
  47.4256777  69.2570145  20.7023706  48.3140610  69.7925412  21.8050337
  33.5691697  74.6976150  16.5334421  33.4337371  75.5427685  16.9619269
  34.1101509  74.8995427  15.7700355  30.0559036  60.7767730  33.1948776
  29.6625982  60.2233928  33.8696421  30.8725177  61.0878308  33.5855294
  27.0221094  72.2151588  17.1062346  27.5345615  73.0094838  17.2567911
  27.6743807  71.5177878  17.0395948  28.8315979  75.3317344  19.1885100
  29.0082607  76.2535309  19.0006083  29.6272812  75.0175763  19.6179479
  32.9726997  62.1925609  30.7869033  33.7136711  62.7932762  30.7073496
  33.2044920  61.4503246  30.2287076  28.1168335  67.3781976  29.0647263
  28.0021850  66.4767233  29.3654362  27.2612853  67.6245673  28.7132079
  35.1960173  75.3199716  30.6634763  34.7524027  74.5336095  30.3455668
  35.8577387  75.5078867  29.9978654  29.9547294  76.8495518  25.1895442
  30.5054719  76.7212581  24.4172436  29.1158770  77.1490407  24.8390335
  37.2941411  75.6002516  28.6916165  37.2759886  76.4211397  28.1996434
  38.2161331  75.4756591  28.9166306  33.7514465  73.1146646  29.5339673
  34.2842802  72.3534934  29.3038981  33.2228546  72.8220297  30.2763827
  36.9184160  58.2206712  25.0633315  36.5748430  59.1108353  24.9872425
  37.2863123  58.0308369  24.2002900  24.9870011  70.5440242  17.8821917
  25.8245233  70.9537250  17.6655625  25.1648278  69.6039684  17.8522111
  36.8834443  68.2115323  13.5705750  36.3681066  68.9819927  13.8094137
  36.6111751  67.5380459  14.1938811  34.4681554  63.0565023  18.6290988
  33.6123150  62.6671874  18.4496627  34.8808506  63.1356984  17.7690774
  35.9980701  60.5911367  23.0282548  35.4945496  60.5541502  22.2150353
  36.2911307  61.5004109  23.0879205  32.2423586  60.6750096  22.0348730
  33.1076583  60.4792905  21.6754619  32.3101095  60.4460448  22.9618086
  41.8568717  70.9647677  15.5058923  41.0798160  70.6258837  15.0614085
  42.5360198  70.9700301  14.8313888  36.6720746  66.0842415  15.3965531
  36.3670882  66.3988564  16.2475674  37.6251188  66.1623835  15.4392864
  35.1167178  72.2432638  17.0458485  34.5888539  71.5085398  16.7331722
  34.6154681  73.0207314  16.7998453  40.0960024  70.4381659  22.1625531
  39.4383698  71.1280920  22.2505660  40.9000423  70.8278091  22.5059518
  29.8485905  62.9052304  19.4065097  30.4229657  62.6827486  18.6738289
  30.4356888  62.9740999  20.1593698  38.9065483  68.7926031  20.2129473
  39.4197364  69.4256023  20.7151183  39.5566707  68.1927227  19.8472833
  30.1755493  64.9356765  13.4260982  29.3392805  65.2731452  13.7470257
  30.0360262  64.8005745  12.4888119  32.1508573  59.7793553  18.1340166
  31.4972986  59.4642570  17.5096781  32.1089047  59.1569294  18.8599989
  33.2619778  70.0612848  10.0493458  32.3546840  69.8302102  10.2484607
  33.7590810  69.2650468  10.2367440  36.1687857  78.7710356  12.9690144
  35.4949556  79.0742052  13.5775102  36.5553679  79.5739436  12.6195601
  35.3846314  66.2675487  22.4587814  34.4668875  66.4890434  22.3009502
  35.8006457  66.3421797  21.5999521  36.1681361  67.6666903  17.5890494
  36.9153180  68.1788300  17.2797616  36.4372951  67.3450955  18.4494887
  34.4408011  70.1625443  14.5717448  33.5319231  69.8784476  14.6689918
  34.4703095  70.5824522  13.7120755  39.6727279  73.7732033  18.3408616
  39.2189606  72.9322943  18.3973806  39.0421246  74.4093431  18.6783396
  38.6160198  64.7024019  19.5709283  37.8782955  64.1901405  19.9019526
  38.8686972  64.2624400  18.7592560  38.1160218  75.6108529  19.2758434
  38.4083193  76.1713587  18.5570799  38.6258839  75.9037090  20.0311593
  38.7171826  57.4800271  20.1651052  39.0230703  56.6197634  19.8776968
  39.4424431  58.0717891  19.9650046  25.0096182  67.8830957  18.5532650
  24.8120582  67.2900318  17.8283717  24.4542846  67.5783168  19.2708589
  32.9892906  67.7754064  20.6727243  33.0441515  66.8227900  20.5969720
  32.1784108  67.9313503  21.1568542  34.1384099  71.7034187  11.9105527
  33.7003529  70.9870046  11.4511164  34.8794540  71.9310302  11.3490618
  30.9285265  66.3931124  18.4317622  30.1153131  66.6925294  18.8382814
  31.4244260  65.9986812  19.1492105  33.0793843  76.3888881  20.3651887
  33.0370022  76.6149727  19.4360419  33.9956542  76.1552255  20.5137688
  36.5259477  66.8572948  27.2632516  36.8808865  67.0844421  28.1226982
  37.1731608  67.1891325  26.6409772  42.2557214  69.9791384  17.9681845
  42.1175113  70.1692980  17.0403035  41.8993433  70.7410767  18.4249896
  30.4199340  63.9649479  24.0478857  31.0598720  63.8238238  23.3501821
  29.5876871  63.6783993  23.6717459  42.2826594  72.0467911  22.9793117
  42.7163100  71.9543200  23.8276171  42.9958174  72.0225411  22.3413133
  31.1959644  73.2651910  20.1613850  31.9900243  72.7702230  19.9596425
  30.4851337  72.7369773  19.7981555  36.0154489  75.6470005  24.5126217
  36.0691511  76.2160941  25.2803933  35.1469270  75.8171890  24.1480255
  27.5042408  67.4094991  16.2373602  26.5739996  67.3479447  16.4543565
  27.5999880  66.8870944  15.4410244  27.4227957  63.9349804  18.8251844
  27.6834774  64.8495137  18.7161005  28.2445129  63.4674247  18.9748457
  28.8952882  65.3487561  25.9950669  29.5675935  65.1404923  25.3463318
  28.0682668  65.1509647  25.5555901  43.1442143  72.0891612  25.5126002
  43.3378033  72.9937422  25.7585277  43.0442761  71.6299031  26.3464587
  34.7978454  61.9749502  28.0116330  34.1506369  62.6739452  27.9180806
  35.5679469  62.4085646  28.3792578  38.2057252  72.2398354  31.0866883
  38.0542758  72.0108906  30.1696966  38.1961931  73.1968956  31.0998228
  34.9742588  69.8130267  26.0713149  35.9034648  69.9641427  25.8982117
  34.5533618  69.9014288  25.2161796  33.7730920  73.8380932  23.8411687
  33.6342006  73.4699716  24.7137625  32.9845516  74.3528571  23.6695645
  34.3679072  78.9390028  15.1837223  34.5430828  78.4678071  15.9982846
  33.6811860  79.5655794  15.4118484  35.3236135  73.2162534  21.2300525
  34.9885968  73.1763304  22.1258175  34.8240081  72.5507250  20.7570935
  29.2980379  68.6230164  26.7553106  29.1600177  67.8910403  27.3564645
  30.2085303  68.5339064  26.4737294  38.2595327  70.5618569  11.5037584
  37.6424498  69.8365397  11.4070637  37.7911815  71.3227929  11.1604659
  31.9262680  68.3350124  26.2436785  32.6362298  67.6943316  26.2023404
  31.8831988  68.5863018  27.1662966  39.9149459  75.2717477  29.1643365
  39.8562005  74.5876697  28.4973948  40.3168977  76.0136467  28.7123991
  30.6391614  65.3215341  28.0632425  30.1028971  64.8706080  28.7154021
  30.0508322  65.4561250  27.3202889  28.9340157  82.0879391  21.9577084
  29.1736756  82.7197915  22.6356102  28.0909354  81.7367431  22.2442443
  30.0493873  64.7803993  10.6258889  29.1723339  64.6592794  10.2621135
  30.5251626  63.9890071  10.3737777  39.9166866  73.2357061  27.3957344
  39.0293645  72.8982983  27.5183743  40.4865417  72.5040092  27.6326110
  21.5696013  69.5681153  20.7200396  22.2567053  69.2542883  20.1321411
  21.4144142  70.4722517  20.4467647  26.3730735  64.4571349  25.1485419
  26.2888924  63.8497019  24.4135829  25.5513442  64.9480367  25.1494916
  33.4468019  77.8958513  24.3618588  33.3738191  78.7013485  24.8737892
  33.0045412  78.0950479  23.5366609  33.2357799  77.1330283  17.8721409
  32.4525321  77.6751963  17.9659634  33.9350544  77.6504263  18.2715650
  36.5454449  62.9424913  20.5155614  37.0423149  62.1894875  20.1956685
  35.7741430  62.9789229  19.9498824  44.3984206  68.6465278  22.1573906
  44.3874083  69.5289994  21.7867839  43.5301586  68.2936829  21.9628443
  35.9066703  77.7945347  26.5176746  36.6194675  78.4292812  26.4452648
  35.4156731  77.8909213  25.7016748  37.6284230  71.6996600  18.0894038
  36.6940508  71.8198062  17.9198742  37.8060898  70.7969067  17.8254048
  33.1289418  65.0842296  20.2427299  32.7587205  64.5313336  20.9308205
  33.6248510  64.4800429  19.6902299  41.0156781  67.5413919  18.6244072
  41.4817233  68.3741911  18.5504375  41.4664282  67.0758901  19.3289331
  30.9578616  75.5439791  27.3382317  31.6588076  76.1776274  27.4911711
  30.4873731  75.8854522  26.5777956  39.0833012  73.8857740  15.6230224
  39.3592856  73.7714335  16.5324098  38.2137511  73.4875225  15.5842397
  38.9873444  59.9094506  22.6634973  38.0736524  60.1398733  22.8317180
  39.4166545  59.9932950  23.5149006  38.7579902  68.0984398  25.1634867
  38.1051352  68.3460306  24.5087320  39.1360282  67.2848536  24.8297345
  35.7187076  78.1344091  19.2663038  35.9009471  77.3165747  19.7290790
  36.5420062  78.3511784  18.8287928  36.0529242  77.0612276  16.5278086
  36.5817008  76.5504731  15.9148248  36.3157461  76.7454807  17.3923619
  34.8067475  68.8404209  31.6500904  34.1308112  68.7398339  32.3203280
  35.6295109  68.6843423  32.1136902  26.5546334  75.0776146  24.2713420
  27.1399771  74.3319834  24.4041324  26.3571173  75.3880102  25.1550084
  29.4084990  78.1127393  19.2875862  28.7395365  78.5973521  18.8039902
  29.2697859  78.3596614  20.2019241  21.1463989  67.6481746  22.9917863
  21.1848089  67.1145337  23.7854981  20.6404282  67.1216951  22.3728840
  33.5490258  80.1471137  25.8858520  34.1008566  80.3102758  26.6507606
  33.8896452  80.7375574  25.2138545  28.5254751  62.4946286  26.4880405
  28.5896078  63.3561117  26.0757803  28.4621872  61.8820288  25.7552764
  28.0007024  64.5669419  30.1353439  28.6279063  64.1846496  30.7490964
  27.1434943  64.3483621  30.5009132  38.4001132  74.9732394  31.7407175
  38.9441036  75.5862352  31.2462130  37.8187977  75.5311973  32.2574188
  24.7772567  66.3745848  16.0671794  25.0726008  65.4656527  16.0138848
  23.8760602  66.3533588  15.7452797  36.6858645  78.0953112  22.8722203
  36.5609785  77.2942852  22.3633148  37.3437737  78.5899306  22.3836173
  28.3066814  64.4501845  22.0499343  27.5853399  65.0637812  21.9106816
  29.0960069  64.9859610  21.9715989  38.7493554  75.8962132  24.5001753
  37.8023889  75.7767483  24.4280079  39.0976327  75.0084630  24.5828014
  31.1093127  61.7856271  28.3239995  31.6327529  62.0318568  29.0866304
  30.8905460  62.6176306  27.9043132  26.5060408  64.0559946  16.1911119
  26.1773114  63.1757325  16.0086225  26.8599779  64.0007614  17.0787509
  35.7539987  75.6914848  20.7006105  35.6064950  74.7631556  20.8813675
  36.5793481  75.7134939  20.2163180  29.6202231  64.3432916  16.5586597
  29.9598304  64.8718837  15.8365205  30.0674352  64.6813322  17.3345164
  39.3574109  76.5143407  21.7870978  40.2820656  76.3086269  21.6495429
  39.1889412  76.2659808  22.6960319  32.3145672  62.7269966  26.0089665
  31.9742493  61.9277779  26.4110345  31.6084678  63.0271677  25.4366498
  32.9662144  59.8119279  24.4616988  33.7888213  59.3379757  24.3395878
  33.2100208  60.5909762  24.9615674  31.6070379  62.8407537  14.7579890
  32.3278741  63.2188790  14.2543607  30.9835683  63.5596414  14.8614868
  35.7501501  63.5452686  15.6938222  35.9665116  64.4277324  15.3927050
  35.2695569  63.1538900  14.9643864  30.4900723  66.5038399  22.2708967
  30.3445304  66.8178702  23.1633248  30.0125926  67.1223300  21.7179865
  32.3497106  63.4940947  22.3189856  32.3358674  62.5982041  21.9822154
  33.0669534  63.5011611  22.9528142  34.2023236  63.9278288  24.3642984
  33.9441014  64.8495358  24.3627314  33.6708277  63.5308722  25.0543448
  39.1469425  77.0329075  17.1433069  39.3206303  76.4675497  16.3906922
  39.6398316  77.8329970  16.9612559  24.9646385  69.0443744  25.2096628
  24.4199853  69.8203552  25.3416902  25.8425735  69.3914548  25.0515749
  31.7534002  62.3755328  17.5877426  31.8749913  61.4471974  17.7868314
  31.4636044  62.3894014  16.6755742  34.6225192  60.0610238  20.7244146
  34.6446889  60.1249571  19.7696126  35.0393251  59.2214747  20.9184652
  45.0008816  69.7965498  18.7623369  45.4439962  69.0472823  18.3642492
  44.1235327  69.7875634  18.3797101  40.1344598  76.3495839  14.2429967
  40.8295502  76.9702532  14.4617282  40.4767748  75.4991190  14.5182345
  25.7512407  68.1713640  28.1026785  25.0094143  68.3196275  28.6891415
  25.4305151  68.4321906  27.2393534  42.0336021  73.7995545  15.7717298
  42.5587345  74.1382817  15.0466618  41.9458373  72.8642560  15.5880433
  33.6956069  77.7129618  27.9007175  34.0043196  77.4678765  28.7729874
  34.4931551  77.9176257  27.4126045  33.7176682  79.8667528  20.1312551
  33.2781672  79.3743907  20.8245408  34.4684798  79.3240496  19.8904627
  26.1969021  76.0579069  20.1337179  27.0227040  75.7582841  19.7535823
  25.8463072  75.2886691  20.5826968  31.1650554  75.4105537  22.2034853
  30.5430563  74.7476242  21.9037081  31.8355421  75.4366669  21.5208501
  24.3977626  73.9765395  21.0926113  23.5609534  73.5487570  20.9110114
  24.3701271  74.1697839  22.0296904  31.2375081  63.8887325  31.7967359
  31.2863237  64.7649448  31.4145129  31.7797595  63.3464718  31.2239002
  41.7229927  74.4328448  31.0768496  40.9325471  74.4152587  30.5372996
  41.4863281  74.9716742  31.8317533  41.8427802  71.2820915  28.3901225
  41.8925807  71.1170922  29.3316747  41.7341725  70.4148174  27.9999105
  30.7264061  73.9609460  15.6793314  30.8752181  74.6444925  15.0259986
  31.5330504  73.9414550  16.1942769  39.1331564  67.2651843  29.7060531
  40.0341427  67.1258308  29.4144529  39.2079539  67.4306297  30.6458709
  33.4674370  64.6418697  28.5513718  32.5977679  64.9352263  28.2796306
  33.7033850  65.2259142  29.2720981  43.3445999  73.7017856  28.6343246
  43.0530807  74.0647837  29.4706707  42.7318130  72.9884864  28.4556578
  44.5441681  71.2670736  21.1545816  45.3788572  71.7060540  21.3183377
  44.6800810  70.7909389  20.3354062  41.5933187  68.8250471  27.1023304
  42.0687309  69.0178117  26.2942156  40.6698752  68.8809657  26.8566688
  28.4816694  69.9874638  16.6854382  28.2362736  69.0836968  16.8834593
  28.6512608  69.9891788  15.7433860  36.1713403  60.8598314  26.0679138
  36.6895347  61.5959341  25.7425627  35.8168536  61.1662308  26.9025897
  27.7512341  65.7202996  14.1840544  27.0581586  65.7947351  13.5280580
  27.5064093  64.9563339  14.7062061  36.4225998  57.2798597  21.5880035
  36.7027751  56.6121786  22.2140461  37.2076605  57.4727692  21.0754699
  34.2259466  76.4557591  13.1505061  33.6533433  77.0747778  12.6975533
  34.7992260  77.0056952  13.6844983  40.2934856  65.7016231  25.3351610
  41.2452279  65.8014329  25.3563834  40.1238306  64.9094499  25.8449694
  38.3149235  62.7871814  25.5211011  37.7199168  63.0676827  24.8257499
  38.0298932  63.2765715  26.2927752  37.4456726  76.7394741  14.2813643
  38.3787399  76.6740303  14.4846519  37.3579939  77.5751008  13.8228176
  40.0744743  76.0560611  11.2417591  39.9958374  75.7220475  12.1353349
  40.8954409  76.5482379  11.2409063  42.7722934  68.9222351  24.4493909
  42.7399254  67.9838351  24.6353593  43.3823557  69.0006387  23.7159734
  34.6106265  67.7918404  10.4921113  35.5565369  67.6624612  10.5609532
  34.2320510  67.0533065  10.9690542  42.9217422  65.7133394  24.4952193
  42.4056471  64.9291851  24.3082121  43.8057371  65.3852111  24.6598712
  40.5828149  59.4574410  20.4548005  40.3852970  59.1489498  21.3391337
  41.1927855  60.1836048  20.5845935  48.5899484  69.9838357  23.5899946
  49.3202872  69.7223646  24.1507650  47.9806429  69.2467079  23.6302014
  46.6714781  68.1246220  24.1874397  45.9447944  67.9902185  23.5790889
  46.2562068  68.4323049  24.9931115  34.4944957  71.8436150  31.9521770
  35.4147967  72.0214749  32.1461817  34.4594540  70.8992195  31.8001470
  32.7949182  65.7168380  10.4275999  31.8880637  65.4201493  10.5038712
  33.0725163  65.4198198   9.5610285  23.7127122  67.0374743  20.8775045
  23.3929906  66.1840052  20.5849419  23.1660550  67.2523321  21.6333012
  27.4907030  69.7537184  24.5944552  27.7093039  70.6854292  24.6132585
  27.9032804  69.3945159  25.3799355  34.4111247  60.2605270  16.5820240
  33.6011976  59.9152355  16.9575486  35.0995664  59.9512813  17.1707852
  36.3401796  59.3383316  18.2044537  36.8932834  59.7578770  18.8634560
  36.5771882  58.4119065  18.2467493  32.3634895  65.3270390  33.9847301
  32.2631622  66.2764747  33.9159392  32.1456437  64.9988629  33.1123371
  31.5647966  62.5755315  10.5687978  32.4267130  62.9010213  10.8283795
  31.7498311  61.7886811  10.0561044  23.5815382  70.6577655  22.8468167
  22.8878854  70.2431608  22.3338121  24.3288373  70.6998191  22.2501586
  39.7180603  61.4483842  17.7123201  39.1379272  62.1068646  17.3301253
  39.4516536  60.6261186  17.3010618  38.1684169  60.8488899  19.9144521
  38.6683948  60.9605434  19.1058840  38.8119777  60.5449952  20.5545330
  32.2266165  68.7567529  32.8012362  31.7433247  69.5567889  33.0076251
  32.3127104  68.7675474  31.8479806  25.4952125  70.5895909  20.7234182
  25.4722813  70.6883596  19.7716065  25.8052761  71.4361059  21.0451348
  28.1539503  72.6472064  24.8380796  29.1082756  72.6156006  24.7710728
  27.9552026  72.1862687  25.6531022  28.7438885  71.2173180  27.4051594
  29.5631774  71.7117258  27.4286431  29.0175692  70.3005148  27.3769161
  38.5005481  63.6083932  16.7679549  37.6131336  63.8933583  16.5499744
  38.9159470  63.4477695  15.9206826  41.8520017  63.6330453  20.4833888
  42.6280407  64.1226905  20.7558505  41.1268151  64.0588507  20.9405758
  44.2892576  64.3458072  21.5407829  44.8837066  64.1053808  20.8301137
  44.3619159  63.6265203  22.1681365  26.5089731  78.1891683  21.8550994
  26.3744199  77.4292084  21.2888992  26.0921794  78.9132583  21.3879783
  37.6448694  73.3728607  10.8627569  38.3484544  73.5778609  11.4785225
  36.9211343  73.9405369  11.1276653  38.4746505  69.1238468  16.9829839
  38.4181706  69.5807019  16.1437472  39.0274847  68.3629153  16.8052682
  42.2851311  64.9128200  17.8079959  42.0288245  64.5124835  18.6388167
  41.6604179  65.6271994  17.6830098  46.5963648  67.6524273  20.3151250
  46.0363206  67.7217462  21.0882812  45.9907152  67.4765258  19.5950746
  29.6658857  79.0861000  22.0669437  29.5491241  80.0306433  21.9648127
  28.8451303  78.7834562  22.4555236  39.5535392  73.8111136  12.9126029
  40.3880996  73.3792334  12.7303504  39.3919735  73.6393150  13.8402924
  39.2081284  70.3143249  14.2782369  39.1530088  70.1487521  13.3370813
  38.5827339  71.0219282  14.4344558  23.9973799  65.5511314  28.1043791
  24.6432663  65.0410268  28.5931016  23.7890950  66.2879995  28.6787216
  36.5227191  72.6192161  33.6035931  37.3918351  72.7932813  33.2422566
  36.0433943  73.4386578  33.4811661  32.5177409  59.8151358  13.8567687
  32.5056079  60.7593198  14.0135958  33.4100831  59.6321504  13.5627148
  30.6913371  79.7389262  25.2825365  31.5940618  79.7712872  25.5991860
  30.4650741  78.8089713  25.2971701  32.4466973  78.4920249  21.9435444
  31.4962604  78.4922110  21.8299816  32.7499460  77.7452983  21.4271478
  36.3329529  56.4094135  18.1113624  35.5661925  55.8552621  18.2570306
  36.7440234  56.4816004  18.9727775  28.3371290  62.6978931  32.2018805
  29.2002751  62.3415735  32.4122130  27.7636701  62.3592825  32.8894209
  48.1819667  84.3280787  23.0081206  48.8198077  84.2087534  22.3044546
  48.0640510  85.2761631  23.0669158  44.9909373  84.2808215  22.9442731
  44.6527885  84.1649280  22.0563266  45.8599141  83.8799380  22.9243737
  40.8496189  86.1343691  18.9339622  40.2861054  86.0433628  18.1655909
  40.7348584  85.3143596  19.4142114  45.4729156  85.4343067  28.9028936
  45.4617797  85.0395865  28.0309440  45.6349796  84.7009139  29.4962708
  38.3960621  87.6294883  21.7723842  39.1881913  87.2885708  21.3570141
  38.6357271  87.7389858  22.6925995  46.4295748  89.8014659  14.2454087
  45.7783727  90.3868740  13.8588100  47.2240110  90.3320854  14.3049124
  40.3551375  86.8903796  14.6441221  41.1282251  86.3432783  14.5054097
  40.7076774  87.7548046  14.8555682  42.1936417  88.2180179  27.8508120
  41.9026283  89.1225809  27.7354786  42.8293402  88.2596706  28.5652190
  43.1192624  85.5957027  24.4409480  43.7156196  85.3713050  23.7266443
  43.1767596  84.8541773  25.0434928  42.6917653  83.0496462  12.2759671
  42.9443173  82.5277984  11.5143134  41.7542212  82.8862608  12.3786354
  47.7360935  82.0532241  20.0834414  48.5224025  81.6351664  19.7324831
  47.9999640  82.9578333  20.2516062  47.9071013  87.4905091  14.7823071
  47.2716846  87.5639718  15.4943975  47.5768419  88.0798690  14.1042150
  53.1369362  81.9907474  20.9867393  53.8694534  81.4206691  21.2205222
  52.3808718  81.6029074  21.4273898  42.4113941  84.9524568  14.4784046
  42.2950199  84.2769472  15.1465130  42.5216201  84.4656942  13.6616199
  44.7545482  84.4134716  18.1830735  44.3903689  83.8865336  18.8943656
  45.6112598  84.0233185  18.0097220  50.6594783  75.7029048  25.4462001
  50.3278108  76.5724459  25.2223216  50.0640396  75.3865332  26.1256032
  44.3950969  79.4424615  13.1792083  44.5625372  80.3104852  13.5462555
  44.2048138  79.6051897  12.2553373  47.1526302  87.9041594  24.8457914
  46.8527025  88.8066633  24.7373721  46.8077362  87.6373777  25.6979067
  40.6038784  84.3555391  20.8794618  39.6789280  84.2231605  21.0872310
  40.8523197  85.1349610  21.3764561  50.5523446  80.4224134  22.5255351
  49.6440323  80.3539543  22.2314112  50.5011042  80.8996079  23.3537177
  44.3740190  81.8982273  14.1638750  44.2539815  82.3439323  15.0024231
  43.6792778  82.2467590  13.6052288  37.9647595  83.9988664  21.7138407
  38.0939976  84.2523143  22.6277819  37.2845046  84.5916372  21.3943062
  42.1347082  94.6685914  17.8128882  42.0571112  95.6193740  17.8917362
  41.5308726  94.3231787  18.4703808  44.6264312  81.8413780  30.4690248
  43.8497646  82.4007700  30.4593113  45.2654875  82.3270563  30.9905119
  52.4185093  78.6240573  24.3033225  51.7759473  78.9173106  23.6573020
  51.9140021  78.5093493  25.1086422  50.0725256  82.3703746  14.9919084
  50.9843112  82.6031133  14.8166782  49.5634903  82.9540790  14.4294163
  42.8810684  84.6499233  30.0308215  43.6225369  85.1884277  29.7543039
  42.1747670  85.2765522  30.1879767  48.3566024  86.7928374  28.6280377
  48.7649380  86.3510784  27.8835009  47.6343285  86.2181001  28.8814570
  44.7097094  81.7300980  26.0013934  45.5558289  82.1540394  26.1448583
  44.6495732  81.0734605  26.6952497  48.6794839  87.3529564  22.3832666
  48.0503701  87.5175278  21.6808734  48.2920501  87.7671174  23.1543630
  52.5584070  88.2884002  19.7377030  51.8735109  88.6682904  19.1874063
  52.6427920  88.8979329  20.4708977  47.8596539  79.3905349  27.6595108
  47.6157471  80.1447409  27.1229383  48.1356470  79.7690696  28.4942355
  49.8135002  85.9343961  26.3372373  50.0251897  86.5775721  25.6606754
  49.7664750  85.1006278  25.8694303  47.4161231  78.5461782  23.2408945
  46.5545710  78.8443035  23.5325683  47.4423666  78.7632181  22.3089978
  44.2322800  87.0903972  19.6482751  44.6961146  87.3691675  18.8587373
  43.9679598  86.1887417  19.4655842  41.1246881  86.6375454  22.5862514
  41.6948239  87.0662722  21.9479999  41.7154993  86.3558039  23.2846700
  43.1691686  83.2127125  16.4572316  43.8715730  83.6648168  16.9246242
  42.8372315  82.5710944  17.0852209  41.6172048  81.8038881  30.8323525
  40.9870709  82.4855162  31.0658922  41.5108136  81.6921963  29.8876664
  36.9117020  81.4710677  21.7589450  36.1216074  81.7268206  21.2829560
  37.4028268  82.2859015  21.8641490  50.9280830  88.8115917  24.5094730
  51.7498274  88.4096104  24.2277412  50.9243233  88.7084151  25.4610846
  38.8631766  81.8355257  18.7172926  38.0662929  81.9473951  19.2356422
  38.6357358  82.1741909  17.8513817  44.6937433  88.3599960  26.6655441
  44.7581866  88.8220367  27.5013613  43.9848357  87.7297325  26.7937751
  35.1954723  81.7241168  24.1904440  35.4462762  82.6088178  24.4562016
  35.7314272  81.5445769  23.4179532  59.0186823  85.1554665  20.8579702
  58.2650531  84.5862063  20.7023706  59.1534364  85.1217330  21.8050337
  44.4085451  90.0268067  16.5334421  44.2731126  90.8719603  16.9619269
  44.9495264  90.2287345  15.7700355  40.8952791  76.1059647  33.1948776
  40.5019736  75.5525846  33.8696421  41.7118931  76.4170226  33.5855294
  37.8614848  87.5443505  17.1062346  38.3739369  88.3386756  17.2567911
  38.5137561  86.8469796  17.0395948  39.6709733  90.6609262  19.1885100
  39.8476361  91.5827226  19.0006083  40.4666567  90.3467681  19.6179479
  43.8120752  77.5217526  30.7869033  44.5530465  78.1224679  30.7073496
  44.0438675  76.7795164  30.2287076  38.9562090  82.7073894  29.0647263
  38.8415605  81.8059151  29.3654362  38.1006607  82.9537590  28.7132079
  46.0353927  90.6491634  30.6634763  45.5917782  89.8628012  30.3455668
  46.6971141  90.8370784  29.9978654  40.7941049  92.1787436  25.1895442
  41.3448474  92.0504499  24.4172436  39.9552525  92.4782325  24.8390335
  48.1335165  90.9294434  28.6916165  48.1153641  91.7503315  28.1996434
  49.0555086  90.8048509  28.9166306  44.5908220  88.4438563  29.5339673
  45.1236556  87.6826852  29.3038981  44.0622301  88.1512215  30.2763827
  47.7577915  73.5498629  25.0633315  47.4142184  74.4400271  24.9872425
  48.1256877  73.3600287  24.2002900  35.8263765  85.8732160  17.8821917
  36.6638987  86.2829168  17.6655625  36.0042033  84.9331602  17.8522111
  47.7228197  83.5407240  13.5705750  47.2074821  84.3111845  13.8094137
  47.4505506  82.8672377  14.1938811  45.3075308  78.3856941  18.6290988
  44.4516905  77.9963792  18.4496627  45.7202260  78.4648902  17.7690774
  46.8374455  75.9203284  23.0282548  46.3339251  75.8833420  22.2150353
  47.1305062  76.8296027  23.0879205  43.0817341  76.0042014  22.0348730
  43.9470338  75.8084823  21.6754619  43.1494850  75.7752366  22.9618086
  52.6962471  86.2939595  15.5058923  51.9191914  85.9550755  15.0614085
  53.3753952  86.2992218  14.8313888  47.5114501  81.4134332  15.3965531
  47.2064636  81.7280482  16.2475674  48.4644943  81.4915752  15.4392864
  45.9560932  87.5724556  17.0458485  45.4282294  86.8377315  16.7331722
  45.4548435  88.3499232  16.7998453  50.9353778  85.7673576  22.1625531
  50.2777453  86.4572838  22.2505660  51.7394178  86.1570008  22.5059518
  40.6879660  78.2344222  19.4065097  41.2623412  78.0119404  18.6738289
  41.2750642  78.3032917  20.1593698  49.7459237  84.1217949  20.2129473
  50.2591119  84.7547941  20.7151183  50.3960461  83.5219144  19.8472833
  41.0149247  80.2648683  13.4260982  40.1786559  80.6023370  13.7470257
  40.8754017  80.1297663  12.4888119  42.9902328  75.1085471  18.1340166
  42.3366740  74.7934488  17.5096781  42.9482802  74.4861211  18.8599989
  44.1013533  85.3904766  10.0493458  43.1940594  85.1594020  10.2484607
  44.5984565  84.5942385  10.2367440  47.0081611  94.1002273  12.9690144
  46.3343310  94.4033970  13.5775102  47.3947433  94.9031354  12.6195601
  46.2240068  81.5967405  22.4587814  45.3062629  81.8182352  22.3009502
  46.6400212  81.6713715  21.5999521  47.0075116  82.9958820  17.5890494
  47.7546935  83.5080217  17.2797616  47.2766705  82.6742873  18.4494887
  45.2801766  85.4917361  14.5717448  44.3712985  85.2076394  14.6689918
  45.3096850  85.9116440  13.7120755  50.5121033  89.1023950  18.3408616
  50.0583360  88.2614860  18.3973806  49.8815000  89.7385349  18.6783396
  49.4553953  80.0315936  19.5709283  48.7176710  79.5193323  19.9019526
  49.7080726  79.5916318  18.7592560  48.9553973  90.9400447  19.2758434
  49.2476947  91.5005504  18.5570799  49.4652593  91.2329008  20.0311593
  49.5565580  72.8092188  20.1651052  49.8624457  71.9489552  19.8776968
  50.2818185  73.4009809  19.9650046  35.8489936  83.2122875  18.5532650
  35.6514336  82.6192236  17.8283717  35.2936600  82.9075085  19.2708589
  43.8286660  83.1045982  20.6727243  43.8835270  82.1519818  20.5969720
  43.0177862  83.2605421  21.1568542  44.9777854  87.0326105  11.9105527
  44.5397284  86.3161964  11.4511164  45.7188295  87.2602219  11.3490618
  41.7679020  81.7223041  18.4317622  40.9546885  82.0217212  18.8382814
  42.2638014  81.3278730  19.1492105  43.9187598  91.7180798  20.3651887
  43.8763777  91.9441645  19.4360419  44.8350297  91.4844173  20.5137688
  47.3653232  82.1864866  27.2632516  47.7202619  82.4136339  28.1226982
  48.0125363  82.5183243  26.6409772  53.0950969  85.3083302  17.9681845
  52.9568867  85.4984898  17.0403035  52.7387187  86.0702684  18.4249896
  41.2593095  79.2941397  24.0478857  41.8992474  79.1530156  23.3501821
  40.4270625  79.0075910  23.6717459  53.1220348  87.3759829  22.9793117
  53.5556855  87.2835118  23.8276171  53.8351929  87.3517329  22.3413133
  42.0353399  88.5943827  20.1613850  42.8293997  88.0994147  19.9596425
  41.3245091  88.0661690  19.7981555  46.8548243  90.9761923  24.5126217
  46.9085265  91.5452859  25.2803933  45.9863024  91.1463808  24.1480255
  38.3436162  82.7386909  16.2373602  37.4133750  82.6771364  16.4543565
  38.4393634  82.2162862  15.4410244  38.2621711  79.2641722  18.8251844
  38.5228528  80.1787055  18.7161005  39.0838883  78.7966164  18.9748457
  39.7346636  80.6779479  25.9950669  40.4069690  80.4696841  25.3463318
  38.9076423  80.4801565  25.5555901  53.9835898  87.4183529  25.5126002
  54.1771788  88.3229340  25.7585277  53.8836516  86.9590948  26.3464587
  45.6372208  77.3041420  28.0116330  44.9900124  78.0031370  27.9180806
  46.4073224  77.7377564  28.3792578  49.0451006  87.5690272  31.0866883
  48.8936513  87.3400824  30.1696966  49.0355686  88.5260873  31.0998228
  45.8136343  85.1422185  26.0713149  46.7428403  85.2933344  25.8982117
  45.3927373  85.2306206  25.2161796  44.6124675  89.1672849  23.8411687
  44.4735760  88.7991634  24.7137625  43.8239271  89.6820489  23.6695645
  45.2072827  94.2681946  15.1837223  45.3824582  93.7969989  15.9982846
  44.5205615  94.8947712  15.4118484  46.1629890  88.5454452  21.2300525
  45.8279722  88.5055222  22.1258175  45.6633835  87.8799168  20.7570935
  40.1374134  83.9522082  26.7553106  39.9993932  83.2202321  27.3564645
  41.0479057  83.8630982  26.4737294  49.0989081  85.8910486  11.5037584
  48.4818252  85.1657314  11.4070637  48.6305570  86.6519847  11.1604659
  42.7656434  83.6642041  26.2436785  43.4756053  83.0235233  26.2023404
  42.7225743  83.9154936  27.1662966  50.7543213  90.6009395  29.1643365
  50.6955759  89.9168615  28.4973948  51.1562731  91.3428385  28.7123991
  41.4785368  80.6507259  28.0632425  40.9422725  80.1997998  28.7154021
  40.8902077  80.7853168  27.3202889  39.7733912  97.4171308  21.9577084
  40.0130510  98.0489833  22.6356102  38.9303108  97.0659348  22.2442443
  40.8887627  80.1095911  10.6258889  40.0117094  79.9884711  10.2621135
  41.3645380  79.3181989  10.3737777  50.7560620  88.5648979  27.3957344
  49.8687399  88.2274900  27.5183743  51.3259171  87.8332010  27.6326110
  32.4089767  84.8973070  20.7200396  33.0960807  84.5834800  20.1321411
  32.2537896  85.8014435  20.4467647  37.2124490  79.7863267  25.1485419
  37.1282678  79.1788936  24.4135829  36.3907196  80.2772285  25.1494916
  44.2861774  93.2250431  24.3618588  44.2131945  94.0305402  24.8737892
  43.8439167  93.4242397  23.5366609  44.0751553  92.4622201  17.8721409
  43.2919075  93.0043881  17.9659634  44.7744299  92.9796181  18.2715650
  47.3848203  78.2716830  20.5155614  47.8816903  77.5186793  20.1956685
  46.6135185  78.3081147  19.9498824  55.2377961  83.9757196  22.1573906
  55.2267837  84.8581911  21.7867839  54.3695340  83.6228747  21.9628443
  46.7460457  93.1237265  26.5176746  47.4588429  93.7584730  26.4452648
  46.2550486  93.2201131  25.7016748  48.4677984  87.0288518  18.0894038
  47.5334263  87.1489980  17.9198742  48.6454653  86.1260984  17.8254048
  43.9683172  80.4134213  20.2427299  43.5980960  79.8605254  20.9308205
  44.4642265  79.8092347  19.6902299  51.8550535  82.8705837  18.6244072
  52.3210988  83.7033828  18.5504375  52.3058036  82.4050818  19.3289331
  41.7972371  90.8731708  27.3382317  42.4981830  91.5068191  27.4911711
  41.3267486  91.2146440  26.5777956  49.9226767  89.2149658  15.6230224
  50.1986611  89.1006253  16.5324098  49.0531265  88.8167143  15.5842397
  49.8267198  75.2386424  22.6634973  48.9130278  75.4690651  22.8317180
  50.2560300  75.3224868  23.5149006  49.5973657  83.4276316  25.1634867
  48.9445107  83.6752223  24.5087320  49.9754037  82.6140454  24.8297345
  46.5580831  93.4636009  19.2663038  46.7403225  92.6457665  19.7290790
  47.3813817  93.6803701  18.8287928  46.8922996  92.3904194  16.5278086
  47.4210763  91.8796649  15.9148248  47.1551216  92.0746724  17.3923619
  45.6461230  84.1696127  31.6500904  44.9701867  84.0690256  32.3203280
  46.4688864  84.0135341  32.1136902  37.3940089  90.4068063  24.2713420
  37.9793526  89.6611751  24.4041324  37.1964927  90.7172020  25.1550084
  40.2478744  93.4419311  19.2875862  39.5789119  93.9265438  18.8039902
  40.1091614  93.6888531  20.2019241  31.9857744  82.9773664  22.9917863
  32.0241843  82.4437254  23.7854981  31.4798036  82.4508869  22.3728840
  44.3884013  95.4763054  25.8858520  44.9402321  95.6394676  26.6507606
  44.7290206  96.0667492  25.2138545  39.3648506  77.8238204  26.4880405
  39.4289832  78.6853035  26.0757803  39.3015626  77.2112206  25.7552764
  38.8400778  79.8961337  30.1353439  39.4672817  79.5138414  30.7490964
  37.9828697  79.6775539  30.5009132  49.2394887  90.3024312  31.7407175
  49.7834791  90.9154270  31.2462130  48.6581732  90.8603890  32.2574188
  35.6166321  81.7037766  16.0671794  35.9119762  80.7948444  16.0138848
  34.7154357  81.6825505  15.7452797  47.5252400  93.4245030  22.8722203
  47.4003539  92.6234770  22.3633148  48.1831491  93.9191223  22.3836173
  39.1460568  79.7793762  22.0499343  38.4247154  80.3929730  21.9106816
  39.9353824  80.3151527  21.9715989  49.5887308  91.2254050  24.5001753
  48.6417644  91.1059401  24.4280079  49.9370081  90.3376548  24.5828014
  41.9486882  77.1148189  28.3239995  42.4721283  77.3610485  29.0866304
  41.7299215  77.9468224  27.9043132  37.3454163  79.3851863  16.1911119
  37.0166869  78.5049242  16.0086225  37.6993533  79.3299532  17.0787509
  46.5933742  91.0206766  20.7006105  46.4458704  90.0923474  20.8813675
  47.4187235  91.0426857  20.2163180  40.4595986  79.6724833  16.5586597
  40.7992058  80.2010755  15.8365205  40.9068106  80.0105239  17.3345164
  50.1967863  91.8435325  21.7870978  51.1214411  91.6378186  21.6495429
  50.0283167  91.5951726  22.6960319  43.1539427  78.0561884  26.0089665
  42.8136247  77.2569697  26.4110345  42.4478433  78.3563595  25.4366498
  43.8055899  75.1411196  24.4616988  44.6281968  74.6671675  24.3395878
  44.0493962  75.9201680  24.9615674  42.4464133  78.1699455  14.7579890
  43.1672496  78.5480708  14.2543607  41.8229437  78.8888332  14.8614868
  46.5895256  78.8744604  15.6938222  46.8058870  79.7569242  15.3927050
  46.1089323  78.4830817  14.9643864  41.3294477  81.8330317  22.2708967
  41.1839058  82.1470620  23.1633248  40.8519681  82.4515217  21.7179865
  43.1890860  78.8232865  22.3189856  43.1752429  77.9273958  21.9822154
  43.9063288  78.8303529  22.9528142  45.0416991  79.2570205  24.3642984
  44.7834769  80.1787276  24.3627314  44.5102031  78.8600640  25.0543448
  49.9863180  92.3620992  17.1433069  50.1600057  91.7967415  16.3906922
  50.4792071  93.1621887  16.9612559  35.8040139  84.3735661  25.2096628
  35.2593608  85.1495469  25.3416902  36.6819489  84.7206466  25.0515749
  42.5927756  77.7047245  17.5877426  42.7143667  76.7763891  17.7868314
  42.3029798  77.7185931  16.6755742  45.4618947  75.3902156  20.7244146
  45.4840643  75.4541489  19.7696126  45.8787006  74.5506664  20.9184652
  55.8402571  85.1257415  18.7623369  56.2833717  84.3764740  18.3642492
  54.9629081  85.1167552  18.3797101  50.9738352  91.6787757  14.2429967
  51.6689257  92.2994449  14.4617282  51.3161502  90.8283108  14.5182345
  36.5906161  83.5005558  28.1026785  35.8487897  83.6488193  28.6891415
  36.2698906  83.7613823  27.2393534  52.8729775  89.1287462  15.7717298
  53.3981099  89.4674735  15.0466618  52.7852128  88.1934478  15.5880433
  44.5349824  93.0421536  27.9007175  44.8436950  92.7970683  28.7729874
  45.3325306  93.2468174  27.4126045  44.5570436  95.1959446  20.1312551
  44.1175426  94.7035824  20.8245408  45.3078553  94.6532413  19.8904627
  37.0362775  91.3870986  20.1337179  37.8620795  91.0874758  19.7535823
  36.6856827  90.6178609  20.5826968  42.0044308  90.7397455  22.2034853
  41.3824317  90.0768160  21.9037081  42.6749175  90.7658587  21.5208501
  35.2371380  89.3057313  21.0926113  34.4003288  88.8779487  20.9110114
  35.2095025  89.4989756  22.0296904  42.0768836  79.2179243  31.7967359
  42.1256991  80.0941365  31.4145129  42.6191350  78.6756636  31.2239002
  52.5623681  89.7620366  31.0768496  51.7719225  89.7444505  30.5372996
  52.3257036  90.3008660  31.8317533  52.6821556  86.6112832  28.3901225
  52.7319561  86.4462840  29.3316747  52.5735480  85.7440091  27.9999105
  41.5657815  89.2901378  15.6793314  41.7145935  89.9736842  15.0259986
  42.3724259  89.2706468  16.1942769  49.9725319  82.5943760  29.7060531
  50.8735182  82.4550225  29.4144529  50.0473293  82.7598215  30.6458709
  44.3068124  79.9710615  28.5513718  43.4371434  80.2644181  28.2796306
  44.5427604  80.5551060  29.2720981  54.1839753  89.0309774  28.6343246
  53.8924562  89.3939754  29.4706707  53.5711884  88.3176782  28.4556578
  55.3835436  86.5962654  21.1545816  56.2182327  87.0352458  21.3183377
  55.5194564  86.1201307  20.3354062  52.4326941  84.1542388  27.1023304
  52.9081063  84.3470035  26.2942156  51.5092507  84.2101574  26.8566688
  39.3210448  85.3166556  16.6854382  39.0756490  84.4128886  16.8834593
  39.4906363  85.3183706  15.7433860  47.0107158  76.1890232  26.0679138
  47.5289102  76.9251259  25.7425627  46.6562291  76.4954225  26.9025897
  38.5906096  81.0494913  14.1840544  37.8975341  81.1239268  13.5280580
  38.3457847  80.2855257  14.7062061  47.2619752  72.6090515  21.5880035
  47.5421506  71.9413704  22.2140461  48.0470359  72.8019610  21.0754699
  45.0653221  91.7849508  13.1505061  44.4927188  92.4039696  12.6975533
  45.6386014  92.3348870  13.6844983  51.1328610  81.0308149  25.3351610
  52.0846033  81.1306246  25.3563834  50.9632061  80.2386417  25.8449694
  49.1542990  78.1163732  25.5211011  48.5592922  78.3968744  24.8257499
  48.8692687  78.6057633  26.2927752  48.2850480  92.0686659  14.2813643
  49.2181154  92.0032220  14.4846519  48.1973693  92.9042925  13.8228176
  50.9138497  91.3852529  11.2417591  50.8352129  91.0512393  12.1353349
  51.7348164  91.8774297  11.2409063  53.6116688  84.2514268  24.4493909
  53.5793008  83.3130269  24.6353593  54.2217312  84.3298305  23.7159734
  45.4500019  83.1210321  10.4921113  46.3959124  82.9916529  10.5609532
  45.0714264  82.3824983  10.9690542  53.7611177  81.0425312  24.4952193
  53.2450225  80.2583768  24.3082121  54.6451125  80.7144028  24.6598712
  51.4221904  74.7866327  20.4548005  51.2246725  74.4781415  21.3391337
  52.0321609  75.5127966  20.5845935  59.4293238  85.3130275  23.5899946
  60.1596627  85.0515563  24.1507650  58.8200184  84.5758997  23.6302014
  57.5108535  83.4538138  24.1874397  56.7841699  83.3194103  23.5790889
  57.0955822  83.7614966  24.9931115  45.3338712  87.1728067  31.9521770
  46.2541721  87.3506666  32.1461817  45.2988295  86.2284113  31.8001470
  43.6342936  81.0460298  10.4275999  42.7274392  80.7493410  10.5038712
  43.9118917  80.7490116   9.5610285  34.5520877  82.3666661  20.8775045
  34.2323661  81.5131969  20.5849419  34.0054305  82.5815239  21.6333012
  38.3300784  85.0829102  24.5944552  38.5486794  86.0146210  24.6132585
  38.7426558  84.7237076  25.3799355  45.2505002  75.5897187  16.5820240
  44.4405730  75.2444272  16.9575486  45.9389419  75.2804731  17.1707852
  47.1795550  74.6675234  18.2044537  47.7326589  75.0870688  18.8634560
  47.4165637  73.7410982  18.2467493  43.2028649  80.6562308  33.9847301
  43.1025376  81.6056665  33.9159392  42.9850192  80.3280547  33.1123371
  42.4041721  77.9047233  10.5687978  43.2660885  78.2302131  10.8283795
  42.5892065  77.1178729  10.0561044  34.4209137  85.9869572  22.8468167
  33.7272608  85.5723525  22.3338121  35.1682128  86.0290109  22.2501586
  50.5574357  76.7775759  17.7123201  49.9773026  77.4360563  17.3301253
  50.2910290  75.9553104  17.3010618  49.0077924  76.1780817  19.9144521
  49.5077702  76.2897352  19.1058840  49.6513532  75.8741870  20.5545330
  43.0659920  84.0859447  32.8012362  42.5827001  84.8859807  33.0076251
  43.1520859  84.0967391  31.8479806  36.3345879  85.9187826  20.7234182
  36.3116567  86.0175514  19.7716065  36.6446516  86.7652977  21.0451348
  38.9933257  87.9763981  24.8380796  39.9476511  87.9447924  24.7710728
  38.7945781  87.5154605  25.6531022  39.5832639  86.5465097  27.4051594
  40.4025528  87.0409176  27.4286431  39.8569447  85.6297065  27.3769161
  49.3399235  78.9375850  16.7679549  48.4525090  79.2225500  16.5499744
  49.7553224  78.7769613  15.9206826  52.6913772  78.9622371  20.4833888
  53.4674162  79.4518823  20.7558505  51.9661906  79.3880425  20.9405758
  55.1286330  79.6749990  21.5407829  55.7230821  79.4345726  20.8301137
  55.2012914  78.9557120  22.1681365  37.3483486  93.5183601  21.8550994
  37.2137954  92.7584002  21.2888992  36.9315548  94.2424501  21.3879783
  48.4842449  88.7020524  10.8627569  49.1878299  88.9070527  11.4785225
  47.7605098  89.2697286  11.1276653  49.3140259  84.4530386  16.9829839
  49.2575461  84.9098937  16.1437472  49.8668602  83.6921070  16.8052682
  53.1245065  80.2420117  17.8079959  52.8681999  79.8416753  18.6388167
  52.4997933  80.9563911  17.6830098  57.4357403  82.9816191  20.3151250
  56.8756961  83.0509380  21.0882812  56.8300906  82.8057175  19.5950746
  40.5052612  94.4152918  22.0669437  40.3884996  95.3598350  21.9648127
  39.6845058  94.1126479  22.4555236  50.3929146  89.1403054  12.9126029
  51.2274750  88.7084252  12.7303504  50.2313489  88.9685067  13.8402924
  50.0475038  85.6435167  14.2782369  49.9923842  85.4779438  13.3370813
  49.4221094  86.3511200  14.4344558  34.8367553  80.8803231  28.1043791
  35.4826417  80.3702185  28.5931016  34.6284705  81.6171913  28.6787216
  47.3620946  87.9484079  33.6035931  48.2312105  88.1224731  33.2422566
  46.8827697  88.7678496  33.4811661  43.3571164  75.1443276  13.8567687
  43.3449834  76.0885116  14.0135958  44.2494586  74.9613421  13.5627148
  41.5307126  95.0681180  25.2825365  42.4334373  95.1004790  25.5991860
  41.3044496  94.1381631  25.2971701  43.2860728  93.8212166  21.9435444
  42.3356359  93.8214028  21.8299816  43.5893214  93.0744901  21.4271478
  47.1723283  71.7386052  18.1113624  46.4055679  71.1844539  18.2570306
  47.5833988  71.8107921  18.9727775  39.1765044  78.0270848  32.2018805
  40.0396506  77.6707653  32.4122130  38.6030455  77.6884743  32.8894209
  59.0213421  99.6572705  23.0081206  59.6591831  99.5379452  22.3044546
  58.9034264 100.6053549  23.0669158  55.8303128  99.6100133  22.9442731
  55.4921639  99.4941197  22.0563266  56.6992896  99.2091298  22.9243737
  51.6889943 101.4635609  18.9339622  51.1254808 101.3725546  18.1655909
  51.5742338 100.6435514  19.4142114  56.3122911 100.7634984  28.9028936
  56.3011551 100.3687783  28.0309440  56.4743550 100.0301057  29.4962708
  49.2354375 102.9586801  21.7723842  50.0275667 102.6177625  21.3570141
  49.4751025 103.0681776  22.6925995  57.2689502 105.1306577  14.2454087
  56.6177482 105.7160657  13.8588100  58.0633865 105.6612772  14.3049124
  51.1945129 102.2195714  14.6441221  51.9676005 101.6724701  14.5054097
  51.5470528 103.0839963  14.8555682  53.0330172 103.5472096  27.8508120
  52.7420038 104.4517727  27.7354786  53.6687156 103.5888624  28.5652190
  53.9586379 100.9248945  24.4409480  54.5549951 100.7004967  23.7266443
  54.0161350 100.1833690  25.0434928  53.5311407  98.3788380  12.2759671
  53.7836928  97.8569901  11.5143134  52.5935966  98.2154526  12.3786354
  58.5754690  97.3824158  20.0834414  59.3617779  96.9643582  19.7324831
  58.8393394  98.2870251  20.2516062  58.7464767 102.8197009  14.7823071
  58.1110600 102.8931635  15.4943975  58.4162174 103.4090608  14.1042150
  63.9763117  97.3199392  20.9867393  64.7088289  96.7498608  21.2205222
  63.2202473  96.9320992  21.4273898  53.2507696 100.2816486  14.4784046
  53.1343954  99.6061389  15.1465130  53.3609956  99.7948860  13.6616199
  55.5939237  99.7426633  18.1830735  55.2297444  99.2157254  18.8943656
  56.4506353  99.3525102  18.0097220  61.4988537  91.0320966  25.4462001
  61.1671862  91.9016377  25.2223216  60.9034151  90.7157250  26.1256032
  55.2344724  94.7716533  13.1792083  55.4019126  95.6396769  13.5462555
  55.0441893  94.9343815  12.2553373  57.9920057 103.2333512  24.8457914
  57.6920780 104.1358551  24.7373721  57.6471116 102.9665695  25.6979067
  51.4432538  99.6847309  20.8794618  50.5183035  99.5523523  21.0872310
  51.6916952 100.4641528  21.3764561  61.3917201  95.7516052  22.5255351
  60.4834078  95.6831460  22.2314112  61.3404796  96.2287997  23.3537177
  55.2133945  97.2274190  14.1638750  55.0933570  97.6731241  15.0024231
  54.5186533  97.5759508  13.6052288  48.8041349  99.3280582  21.7138407
  48.9333731  99.5815061  22.6277819  48.1238801  99.9208290  21.3943062
  52.9740837 109.9977832  17.8128882  52.8964866 110.9485657  17.8917362
  52.3702480 109.6523705  18.4703808  55.4658066  97.1705698  30.4690248
  54.6891400  97.7299618  30.4593113  56.1048629  97.6562481  30.9905119
  63.2578847  93.9532490  24.3033225  62.6153227  94.2465024  23.6573020
  62.7533776  93.8385411  25.1086422  60.9119011  97.6995664  14.9919084
  61.8236867  97.9323050  14.8166782  60.4028658  98.2832708  14.4294163
  53.7204439  99.9791151  30.0308215  54.4619123 100.5176195  29.7543039
  53.0141424 100.6057440  30.1879767  59.1959778 102.1220291  28.6280377
  59.6043134 101.6802702  27.8835009  58.4737040 101.5472919  28.8814570
  55.5490848  97.0592898  26.0013934  56.3952044  97.4832312  26.1448583
  55.4889486  96.4026522  26.6952497  59.5188593 102.6821482  22.3832666
  58.8897455 102.8467196  21.6808734  59.1314255 103.0963092  23.1543630
  63.3977825 103.6175920  19.7377030  62.7128863 103.9974821  19.1874063
  63.4821674 104.2271247  20.4708977  58.6990294  94.7197267  27.6595108
  58.4551226  95.4739327  27.1229383  58.9750224  95.0982614  28.4942355
  60.6528756 101.2635879  26.3372373  60.8645652 101.9067639  25.6606754
  60.6058505 100.4298195  25.8694303  58.2554985  93.8753700  23.2408945
  57.3939464  94.1734953  23.5325683  58.2817420  94.0924098  22.3089978
  55.0716555 102.4195890  19.6482751  55.5354900 102.6983593  18.8587373
  54.8073353 101.5179335  19.4655842  51.9640636 101.9667372  22.5862514
  52.5341993 102.3954640  21.9479999  52.5548748 101.6849956  23.2846700
  54.0085441  98.5419042  16.4572316  54.7109484  98.9940086  16.9246242
  53.6766069  97.9002861  17.0852209  52.4565802  97.1330799  30.8323525
  51.8264463  97.8147080  31.0658922  52.3501890  97.0213881  29.8876664
  47.7510775  96.8002595  21.7589450  46.9609829  97.0560124  21.2829560
  48.2422022  97.6150933  21.8641490  61.7674584 104.1407834  24.5094730
  62.5892028 103.7388022  24.2277412  61.7636987 104.0376068  25.4610846
  49.7025520  97.1647174  18.7172926  48.9056684  97.2765869  19.2356422
  49.4751112  97.5033827  17.8513817  55.5331188 103.6891878  26.6655441
  55.5975620 104.1512285  27.5013613  54.8242112 103.0589243  26.7937751
  46.0348478  97.0533086  24.1904440  46.2856516  97.9380095  24.4562016
  46.5708026  96.8737687  23.4179532  69.8580577 100.4846583  20.8579702
  69.1044286  99.9153981  20.7023706  69.9928119 100.4509247  21.8050337
  55.2479206 105.3559985  16.5334421  55.1124880 106.2011521  16.9619269
  55.7889018 105.5579263  15.7700355  51.7346545  91.4351565  33.1948776
  51.3413491  90.8817763  33.8696421  52.5512686  91.7462143  33.5855294
  48.7008603 102.8735423  17.1062346  49.2133124 103.6678673  17.2567911
  49.3531316 102.1761714  17.0395948  50.5103488 105.9901179  19.1885100
  50.6870116 106.9119144  19.0006083  51.3060321 105.6759599  19.6179479
  54.6514506  92.8509444  30.7869033  55.3924220  93.4516597  30.7073496
  54.8832429  92.1087082  30.2287076  49.7955844  98.0365811  29.0647263
  49.6809359  97.1351069  29.3654362  48.9400362  98.2829508  28.7132079
  56.8747682 105.9783552  30.6634763  56.4311536 105.1919930  30.3455668
  57.5364896 106.1662702  29.9978654  51.6334803 107.5079353  25.1895442
  52.1842228 107.3796417  24.4172436  50.7946279 107.8074242  24.8390335
  58.9728920 106.2586352  28.6916165  58.9547395 107.0795233  28.1996434
  59.8948840 106.1340427  28.9166306  55.4301974 103.7730481  29.5339673
  55.9630311 103.0118769  29.3038981  54.9016055 103.4804133  30.2763827
  58.5971669  88.8790547  25.0633315  58.2535939  89.7692189  24.9872425
  58.9650632  88.6892205  24.2002900  46.6657520 101.2024077  17.8821917
  47.5032742 101.6121086  17.6655625  46.8435787 100.2623520  17.8522111
  58.5621952  98.8699158  13.5705750  58.0468575  99.6403763  13.8094137
  58.2899260  98.1964294  14.1938811  56.1469063  93.7148859  18.6290988
  55.2910659  93.3255709  18.4496627  56.5596015  93.7940820  17.7690774
  57.6768209  91.2495202  23.0282548  57.1733005  91.2125337  22.2150353
  57.9698816  92.1587945  23.0879205  53.9211095  91.3333932  22.0348730
  54.7864092  91.1376741  21.6754619  53.9888604  91.1044284  22.9618086
  63.5356226 101.6231513  15.5058923  62.7585669 101.2842672  15.0614085
  64.2147707 101.6284136  14.8313888  58.3508255  96.7426250  15.3965531
  58.0458391  97.0572399  16.2475674  59.3038697  96.8207670  15.4392864
  56.7954687 102.9016473  17.0458485  56.2676048 102.1669233  16.7331722
  56.2942190 103.6791150  16.7998453  61.7747533 101.0965494  22.1625531
  61.1171207 101.7864755  22.2505660  62.5787932 101.4861926  22.5059518
  51.5273414  93.5636140  19.4065097  52.1017166  93.3411321  18.6738289
  52.1144397  93.6324834  20.1593698  60.5852992  99.4509867  20.2129473
  61.0984873 100.0839858  20.7151183  61.2354216  98.8511062  19.8472833
  51.8543002  95.5940601  13.4260982  51.0180314  95.9315287  13.7470257
  51.7147771  95.4589581  12.4888119  53.8296082  90.4377389  18.1340166
  53.1760495  90.1226406  17.5096781  53.7876556  89.8153129  18.8599989
  54.9407287 100.7196684  10.0493458  54.0334349 100.4885937  10.2484607
  55.4378319  99.9234303  10.2367440  57.0633823  96.9259322  22.4587814
  56.1456384  97.1474269  22.3009502  57.4793966  97.0005633  21.5999521
  57.8468870  98.3250738  17.5890494  58.5940689  98.8372135  17.2797616
  58.1160460  98.0034791  18.4494887  56.1195520 100.8209279  14.5717448
  55.2106740 100.5368311  14.6689918  56.1490604 101.2408357  13.7120755
  61.3514788 104.4315868  18.3408616  60.8977115 103.5906778  18.3973806
  60.7208755 105.0677266  18.6783396  60.2947707  95.3607854  19.5709283
  59.5570464  94.8485240  19.9019526  60.5474481  94.9208236  18.7592560
  59.7947727 106.2692365  19.2758434  60.0870701 106.8297422  18.5570799
  60.3046348 106.5620926  20.0311593  60.3959335  88.1384106  20.1651052
  60.7018212  87.2781470  19.8776968  61.1211940  88.7301726  19.9650046
  46.6883691  98.5414793  18.5532650  46.4908091  97.9484153  17.8283717
  46.1330355  98.2367003  19.2708589  54.6680415  98.4337899  20.6727243
  54.7229024  97.4811736  20.5969720  53.8571617  98.5897338  21.1568542
  55.8171608 102.3618022  11.9105527  55.3791038 101.6453881  11.4511164
  56.5582049 102.5894137  11.3490618  52.6072774  97.0514959  18.4317622
  51.7940640  97.3509130  18.8382814  53.1031769  96.6570648  19.1492105
  54.7581352 107.0472716  20.3651887  54.7157531 107.2733562  19.4360419
  55.6744051 106.8136090  20.5137688  58.2046986  97.5156783  27.2632516
  58.5596374  97.7428257  28.1226982  58.8519117  97.8475160  26.6409772
  63.9344723 100.6375219  17.9681845  63.7962622 100.8276815  17.0403035
  63.5780942 101.3994602  18.4249896  52.0986849  94.6233314  24.0478857
  52.7386229  94.4822074  23.3501821  51.2664380  94.3367828  23.6717459
  63.9614103 102.7051746  22.9793117  64.3950609 102.6127035  23.8276171
  64.6745683 102.6809247  22.3413133  52.8747153 103.9235745  20.1613850
  53.6687752 103.4286065  19.9596425  52.1638845 103.3953608  19.7981555
  57.6941998 106.3053840  24.5126217  57.7479020 106.8744777  25.2803933
  56.8256779 106.4755725  24.1480255  49.1829917  98.0678827  16.2373602
  48.2527505  98.0063282  16.4543565  49.2787389  97.5454779  15.4410244
  49.1015466  94.5933639  18.8251844  49.3622283  95.5078973  18.7161005
  49.9232638  94.1258082  18.9748457  50.5740391  96.0071397  25.9950669
  51.2463444  95.7988759  25.3463318  49.7470177  95.8093483  25.5555901
  64.8229652 102.7475447  25.5126002  65.0165542 103.6521257  25.7585277
  64.7230270 102.2882866  26.3464587  56.4765963  92.6333338  28.0116330
  55.8293878  93.3323287  27.9180806  57.2466978  93.0669481  28.3792578
  59.8844761 102.8982190  31.0866883  59.7330267 102.6692741  30.1696966
  59.8749440 103.8552791  31.0998228  56.6530097 100.4714102  26.0713149
  57.5822157 100.6225262  25.8982117  56.2321127 100.5598123  25.2161796
  55.4518429 104.4964767  23.8411687  55.3129515 104.1283551  24.7137625
  54.6633025 105.0112406  23.6695645  56.0466581 109.5973863  15.1837223
  56.2218337 109.1261907  15.9982846  55.3599369 110.2239630  15.4118484
  57.0023644 103.8746370  21.2300525  56.6673477 103.8347140  22.1258175
  56.5027590 103.2091086  20.7570935  50.9767888  99.2814000  26.7553106
  50.8387686  98.5494238  27.3564645  51.8872812  99.1922900  26.4737294
  59.9382836 101.2202404  11.5037584  59.3212007 100.4949232  11.4070637
  59.4699324 101.9811764  11.1604659  53.6050189  98.9933959  26.2436785
  54.3149807  98.3527151  26.2023404  53.5619497  99.2446854  27.1662966
  61.5936968 105.9301312  29.1643365  61.5349514 105.2460532  28.4973948
  61.9956486 106.6720302  28.7123991  52.3179123  95.9799177  28.0632425
  51.7816480  95.5289915  28.7154021  51.7295831  96.1145086  27.3202889
  50.6127666 112.7463226  21.9577084  50.8524265 113.3781750  22.6356102
  49.7696863 112.3951266  22.2442443  51.7281382  95.4387828  10.6258889
  50.8510848  95.3176629  10.2621135  52.2039135  94.6473907  10.3737777
  61.5954375 103.8940896  27.3957344  60.7081154 103.5566818  27.5183743
  62.1652926 103.1623927  27.6326110  43.2483522 100.2264988  20.7200396
  43.9354562  99.9126718  20.1321411  43.0931651 101.1306353  20.4467647
  48.0518244  95.1155185  25.1485419  47.9676433  94.5080854  24.4135829
  47.2300950  95.6064203  25.1494916  55.1255528 108.5542349  24.3618588
  55.0525700 109.3597320  24.8737892  54.6832921 108.7534314  23.5366609
  54.9145308 107.7914119  17.8721409  54.1312830 108.3335799  17.9659634
  55.6138053 108.3088098  18.2715650  58.2241958  93.6008748  20.5155614
  58.7210657  92.8478710  20.1956685  57.4528939  93.6373065  19.9498824
  66.0771715  99.3049114  22.1573906  66.0661592 100.1873829  21.7867839
  65.2089095  98.9520664  21.9628443  57.5854212 108.4529183  26.5176746
  58.2982184 109.0876647  26.4452648  57.0944240 108.5493049  25.7016748
  59.3071739 102.3580435  18.0894038  58.3728017 102.4781898  17.9198742
  59.4848407 101.4552902  17.8254048  54.8076927  95.7426131  20.2427299
  54.4374714  95.1897171  20.9308205  55.3036019  95.1384265  19.6902299
  62.6944290  98.1997755  18.6244072  63.1604742  99.0325746  18.5504375
  63.1451790  97.7342736  19.3289331  52.6366125 106.2023626  27.3382317
  53.3375585 106.8360109  27.4911711  52.1661240 106.5438358  26.5777956
  60.7620521 104.5441576  15.6230224  61.0380365 104.4298170  16.5324098
  59.8925020 104.1459061  15.5842397  60.6660953  90.5678342  22.6634973
  59.7524033  90.7982568  22.8317180  61.0954054  90.6516786  23.5149006
  60.4367411  98.7568234  25.1634867  59.7838861  99.0044141  24.5087320
  60.8147791  97.9432372  24.8297345  57.3974585 108.7927927  19.2663038
  57.5796980 107.9749583  19.7290790  58.2207571 109.0095619  18.8287928
  57.7316751 107.7196112  16.5278086  58.2604517 107.2088566  15.9148248
  57.9944970 107.4038642  17.3923619  56.4854984  99.4988045  31.6500904
  55.8095621  99.3982174  32.3203280  57.3082618  99.3427258  32.1136902
  48.2333843 105.7359981  24.2713420  48.8187280 104.9903669  24.4041324
  48.0358682 106.0463938  25.1550084  51.0872499 108.7711229  19.2875862
  50.4182874 109.2557356  18.8039902  50.9485368 109.0180449  20.2019241
  42.8251498  98.3065581  22.9917863  42.8635598  97.7729172  23.7854981
  42.3191791  97.7800787  22.3728840  55.2277767 110.8054972  25.8858520
  55.7796075 110.9686594  26.6507606  55.5683961 111.3959410  25.2138545
  50.2042260  93.1530122  26.4880405  50.2683587  94.0144953  26.0757803
  50.1409381  92.5404123  25.7552764  49.6794533  95.2253254  30.1353439
  50.3066572  94.8430332  30.7490964  48.8222452  95.0067456  30.5009132
  60.0788641 105.6316230  31.7407175  60.6228545 106.2446188  31.2462130
  59.4975486 106.1895808  32.2574188  46.4560076  97.0329683  16.0671794
  46.7513517  96.1240362  16.0138848  45.5548111  97.0117423  15.7452797
  58.3646154 108.7536948  22.8722203  58.2397294 107.9526687  22.3633148
  59.0225246 109.2483141  22.3836173  49.9854323  95.1085680  22.0499343
  49.2640908  95.7221648  21.9106816  50.7747578  95.6443445  21.9715989
  60.4281063 106.5545968  24.5001753  59.4811398 106.4351319  24.4280079
  60.7763836 105.6668466  24.5828014  52.7880636  92.4440107  28.3239995
  53.3115038  92.6902403  29.0866304  52.5692969  93.2760141  27.9043132
  48.1847917  94.7143781  16.1911119  47.8560623  93.8341160  16.0086225
  48.5387288  94.6591450  17.0787509  57.4327496 106.3498684  20.7006105
  57.2852459 105.4215391  20.8813675  58.2580990 106.3718775  20.2163180
  51.2989740  95.0016751  16.5586597  51.6385813  95.5302672  15.8365205
  51.7461861  95.3397157  17.3345164  61.0361618 107.1727243  21.7870978
  61.9608165 106.9670104  21.6495429  60.8676921 106.9243644  22.6960319
  53.9933181  93.3853802  26.0089665  53.6530002  92.5861615  26.4110345
  53.2872187  93.6855512  25.4366498  54.6449653  90.4703114  24.4616988
  55.4675722  89.9963592  24.3395878  54.8887717  91.2493598  24.9615674
  53.2857888  93.4991373  14.7579890  54.0066250  93.8772625  14.2543607
  52.6623192  94.2180249  14.8614868  57.4289010  94.2036521  15.6938222
  57.6452625  95.0861159  15.3927050  56.9483078  93.8122735  14.9643864
  52.1688232  97.1622235  22.2708967  52.0232813  97.4762538  23.1633248
  51.6913435  97.7807135  21.7179865  54.0284615  94.1524783  22.3189856
  54.0146183  93.2565876  21.9822154  54.7457043  94.1595446  22.9528142
  55.8810745  94.5862123  24.3642984  55.6228523  95.5079194  24.3627314
  55.3495786  94.1892557  25.0543448  60.8256934 107.6912910  17.1433069
  60.9993812 107.1259333  16.3906922  61.3185825 108.4913805  16.9612559
  46.6433894  99.7027579  25.2096628  46.0987362 100.4787387  25.3416902
  47.5213244 100.0498384  25.0515749  53.4321511  93.0339163  17.5877426
  53.5537422  92.1055809  17.7868314  53.1423553  93.0477849  16.6755742
  56.3012701  90.7194073  20.7244146  56.3234398  90.7833407  19.7696126
  56.7180760  89.8798582  20.9184652  66.6796325 100.4549333  18.7623369
  67.1227471  99.7056658  18.3642492  65.8022836 100.4459469  18.3797101
  61.8132107 107.0079674  14.2429967  62.5083011 107.6286367  14.4617282
  62.1555257 106.1575026  14.5182345  47.4299916  98.8297475  28.1026785
  46.6881652  98.9780111  28.6891415  47.1092660  99.0905741  27.2393534
  63.7123530 104.4579380  15.7717298  64.2374854 104.7966653  15.0466618
  63.6245882 103.5226395  15.5880433  55.3743578 108.3713454  27.9007175
  55.6830705 108.1262600  28.7729874  56.1719060 108.5760092  27.4126045
  55.3964190 110.5251363  20.1312551  54.9569181 110.0327742  20.8245408
  56.1472307 109.9824331  19.8904627  47.8756529 106.7162904  20.1337179
  48.7014549 106.4166676  19.7535823  47.5250581 105.9470527  20.5826968
  52.8438063 106.0689372  22.2034853  52.2218072 105.4060077  21.9037081
  53.5142930 106.0950504  21.5208501  46.0765135 104.6349231  21.0926113
  45.2397043 104.2071405  20.9110114  46.0488780 104.8281674  22.0296904
  52.9162590  94.5471160  31.7967359  52.9650746  95.4233283  31.4145129
  53.4585104  94.0048553  31.2239002  63.4017436 105.0912284  31.0768496
  62.6112980 105.0736422  30.5372996  63.1650790 105.6300577  31.8317533
  63.5215311 101.9404750  28.3901225  63.5713316 101.7754757  29.3316747
  63.4129234 101.0732009  27.9999105  52.4051570 104.6193296  15.6793314
  52.5539690 105.3028760  15.0259986  53.2118013 104.5998386  16.1942769
  60.8119073  97.9235678  29.7060531  61.7128936  97.7842143  29.4144529
  60.8867048  98.0890133  30.6458709  55.1461879  95.3002533  28.5513718
  54.2765188  95.5936099  28.2796306  55.3821359  95.8842978  29.2720981
  65.0233508 104.3601691  28.6343246  64.7318316 104.7231672  29.4706707
  64.4105639 103.6468700  28.4556578  66.2229190 101.9254571  21.1545816
  67.0576081 102.3644375  21.3183377  66.3588319 101.4493224  20.3354062
  63.2720696  99.4834306  27.1023304  63.7474818  99.6761952  26.2942156
  62.3486261  99.5393492  26.8566688  50.1604203 100.6458473  16.6854382
  49.9150244  99.7420803  16.8834593  50.3300117 100.6475624  15.7433860
  57.8500912  91.5182150  26.0679138  58.3682856  92.2543177  25.7425627
  57.4956045  91.8246143  26.9025897  49.4299850  96.3786831  14.1840544
  48.7369095  96.4531186  13.5280580  49.1851602  95.6147175  14.7062061
  58.1013507  87.9382432  21.5880035  58.3815260  87.2705621  22.2140461
  58.8864114  88.1311528  21.0754699  55.9046975 107.1141426  13.1505061
  55.3320942 107.7331613  12.6975533  56.4779769 107.6640788  13.6844983
  61.9722365  96.3600066  25.3351610  62.9239788  96.4598164  25.3563834
  61.8025815  95.5678335  25.8449694  59.9936744  93.4455649  25.5211011
  59.3986677  93.7260662  24.8257499  59.7086441  93.9349550  26.2927752
  59.1244235 107.3978576  14.2813643  60.0574908 107.3324138  14.4846519
  59.0367448 108.2334843  13.8228176  64.4510443  99.5806186  24.4493909
  64.4186763  98.6422187  24.6353593  65.0611066  99.6590223  23.7159734
  56.2893774  98.4502239  10.4921113  57.2352878  98.3208447  10.5609532
  55.9108019  97.7116901  10.9690542  64.6004931  96.3717229  24.4952193
  64.0843980  95.5875686  24.3082121  65.4844880  96.0435946  24.6598712
  62.2615658  90.1158245  20.4548005  62.0640479  89.8073333  21.3391337
  62.8715364  90.8419884  20.5845935  70.2686993 100.6422193  23.5899946
  70.9990381 100.3807481  24.1507650  69.6593938  99.9050915  23.6302014
  68.3502290  98.7830055  24.1874397  67.6235453  98.6486020  23.5790889
  67.9349577  99.0906884  24.9931115  56.1732466 102.5019985  31.9521770
  57.0935476 102.6798584  32.1461817  56.1382049 101.5576030  31.8001470
  54.4736691  96.3752215  10.4275999  53.5668146  96.0785328  10.5038712
  54.7512672  96.0782033   9.5610285  45.3914631  97.6958579  20.8775045
  45.0717415  96.8423887  20.5849419  44.8448059  97.9107157  21.6333012
  49.1694539 100.4121020  24.5944552  49.3880548 101.3438127  24.6132585
  49.5820312 100.0528994  25.3799355  56.0898756  90.9189105  16.5820240
  55.2799485  90.5736190  16.9575486  56.7783173  90.6096649  17.1707852
  58.0189305  89.9967152  18.2044537  58.5720343  90.4162605  18.8634560
  58.2559391  89.0702900  18.2467493  54.0422404  95.9854225  33.9847301
  53.9419131  96.9348582  33.9159392  53.8243946  95.6572464  33.1123371
  53.2435475  93.2339150  10.5687978  54.1054639  93.5594049  10.8283795
  53.4285820  92.4470646  10.0561044  45.2602891 101.3161490  22.8468167
  44.5666363 100.9015443  22.3338121  46.0075882 101.3582027  22.2501586
  61.3968112  92.1067677  17.7123201  60.8166781  92.7652481  17.3301253
  61.1304045  91.2845022  17.3010618  59.8471678  91.5072735  19.9144521
  60.3471457  91.6189269  19.1058840  60.4907286  91.2033787  20.5545330
  53.9053674  99.4151364  32.8012362  53.4220756 100.2151724  33.0076251
  53.9914613  99.4259309  31.8479806  47.1739634 101.2479744  20.7234182
  47.1510322 101.3467431  19.7716065  47.4840270 102.0944895  21.0451348
  49.8327012 103.3055899  24.8380796  50.7870265 103.2739841  24.7710728
  49.6339535 102.8446523  25.6531022  50.4226394 101.8757015  27.4051594
  51.2419283 102.3701094  27.4286431  50.6963201 100.9588983  27.3769161
  60.1792990  94.2667767  16.7679549  59.2918845  94.5517418  16.5499744
  60.5946979  94.1061531  15.9206826  63.5307526  94.2914288  20.4833888
  64.3067916  94.7810741  20.7558505  62.8055660  94.7172342  20.9405758
  65.9680085  95.0041908  21.5407829  66.5624575  94.7637643  20.8301137
  66.0406668  94.2849038  22.1681365  48.1877240 108.8475518  21.8550994
  48.0531708 108.0875919  21.2888992  47.7709303 109.5716418  21.3879783
  59.3236203 104.0312442  10.8627569  60.0272053 104.2362444  11.4785225
  58.5998852 104.5989204  11.1276653  60.1534014  99.7822303  16.9829839
  60.0969215 100.2390855  16.1437472  60.7062356  99.0212988  16.8052682
  63.9638820  95.5712035  17.8079959  63.7075754  95.1708671  18.6388167
  63.3391688  96.2855829  17.6830098  68.2751157  98.3108108  20.3151250
  67.7150715  98.3801298  21.0882812  67.6694661  98.1349093  19.5950746
  51.3446366 109.7444835  22.0669437  51.2278750 110.6890268  21.9648127
  50.5238812 109.4418397  22.4555236  61.2322901 104.4694971  12.9126029
  62.0668505 104.0376170  12.7303504  61.0707244 104.2976985  13.8402924
  60.8868793 100.9727085  14.2782369  60.8317597 100.8071356  13.3370813
  60.2614848 101.6803117  14.4344558  45.6761308  96.2095149  28.1043791
  46.3220172  95.6994103  28.5931016  45.4678459  96.9463831  28.6787216
  58.2014700 103.2775996  33.6035931  59.0705860 103.4516649  33.2422566
  57.7221452 104.0970413  33.4811661  54.1964918  90.4735194  13.8567687
  54.1843588  91.4177033  14.0135958  55.0888340  90.2905339  13.5627148
  52.3700880 110.3973097  25.2825365  53.2728127 110.4296708  25.5991860
  52.1438250 109.4673548  25.2971701  54.1254482 109.1504084  21.9435444
  53.1750113 109.1505946  21.8299816  54.4286968 108.4036818  21.4271478
  58.0117038  87.0677970  18.1113624  57.2449434  86.5136457  18.2570306
  58.4227743  87.1399839  18.9727775  50.0158799  93.3562766  32.2018805
  50.8790260  92.9999571  32.4122130  49.4424210  93.0176661  32.8894209
  69.8607176 114.9864622  23.0081206  70.4985586 114.8671370  22.3044546
  69.7428019 115.9345466  23.0669158  66.6696882 114.9392050  22.9442731
  66.3315394 114.8233115  22.0563266  67.5386650 114.5383216  22.9243737
  67.1516665 116.0926902  28.9028936  67.1405306 115.6979700  28.0309440
  67.3137305 115.3592975  29.4962708  60.0748130 118.2878718  21.7723842
  60.8669422 117.9469543  21.3570141  60.3144780 118.3973693  22.6925995
  63.8723926 118.8764014  27.8508120  63.5813792 119.7809645  27.7354786
  64.5080911 118.9180542  28.5652190  64.7980133 116.2540862  24.4409480
  65.3943705 116.0296885  23.7266443  64.8555105 115.5125608  25.0434928
  69.4148444 112.7116076  20.0834414  70.2011534 112.2935499  19.7324831
  69.6787149 113.6162168  20.2516062  72.3382292 106.3612883  25.4462001
  72.0065617 107.2308294  25.2223216  71.7427905 106.0449167  26.1256032
  68.8313811 118.5625429  24.8457914  68.5314534 119.4650468  24.7373721
  68.4864871 118.2957613  25.6979067  62.2826293 115.0139226  20.8794618
  61.3576789 114.8815440  21.0872310  62.5310706 115.7933446  21.3764561
  72.2310955 111.0807970  22.5255351  71.3227832 111.0123378  22.2314112
  72.1798551 111.5579915  23.3537177  59.6435104 114.6572500  21.7138407
  59.7727485 114.9106979  22.6277819  58.9632555 115.2500208  21.3943062
  66.3051821 112.4997615  30.4690248  65.5285155 113.0591535  30.4593113
  66.9442384 112.9854398  30.9905119  74.0972602 109.2824408  24.3033225
  73.4546982 109.5756941  23.6573020  73.5927530 109.1677328  25.1086422
  64.5598193 115.3083069  30.0308215  65.3012878 115.8468113  29.7543039
  63.8535179 115.9349357  30.1879767  70.0353533 117.4512209  28.6280377
  70.4436889 117.0094620  27.8835009  69.3130794 116.8764837  28.8814570
  66.3884603 112.3884816  26.0013934  67.2345798 112.8124229  26.1448583
  66.3283241 111.7318440  26.6952497  69.5384048 110.0489184  27.6595108
  69.2944980 110.8031245  27.1229383  69.8143979 110.4274532  28.4942355
  71.4922511 116.5927797  26.3372373  71.7039406 117.2359556  25.6606754
  71.4452259 115.7590113  25.8694303  69.0948740 109.2045617  23.2408945
  68.2333219 109.5026871  23.5325683  69.1211175 109.4216016  22.3089978
  62.8034390 117.2959289  22.5862514  63.3735747 117.7246558  21.9479999
  63.3942502 117.0141874  23.2846700  63.2959557 112.4622717  30.8323525
  62.6658218 113.1438998  31.0658922  63.1895645 112.3505798  29.8876664
  58.5904529 112.1294513  21.7589450  57.8003583 112.3852041  21.2829560
  59.0815777 112.9442851  21.8641490  60.5419275 112.4939092  18.7172926
  59.7450438 112.6057786  19.2356422  60.3144867 112.8325744  17.8513817
  66.3724942 119.0183795  26.6655441  66.4369375 119.4804203  27.5013613
  65.6635866 118.3881160  26.7937751  56.8742232 112.3825003  24.1904440
  57.1250271 113.2672013  24.4562016  57.4101781 112.2029605  23.4179532
  62.5740300 106.7643483  33.1948776  62.1807245 106.2109681  33.8696421
  63.3906440 107.0754061  33.5855294  65.4908261 108.1801362  30.7869033
  66.2317974 108.7808515  30.7073496  65.7226183 107.4378999  30.2287076
  60.6349599 113.3657729  29.0647263  60.5203114 112.4642986  29.3654362
  59.7794116 113.6121426  28.7132079  67.7141436 121.3075469  30.6634763
  67.2705291 120.5211848  30.3455668  68.3758650 121.4954620  29.9978654
  62.4728558 122.8371271  25.1895442  63.0235983 122.7088334  24.4172436
  61.6340033 123.1366160  24.8390335  69.8122674 121.5878269  28.6916165
  69.7941150 122.4087150  28.1996434  70.7342595 121.4632344  28.9166306
  66.2695729 119.1022399  29.5339673  66.8024065 118.3410687  29.3038981
  65.7409810 118.8096050  30.2763827  69.4365424 104.2082465  25.0633315
  69.0929693 105.0984106  24.9872425  69.8044386 104.0184122  24.2002900
  57.5051274 116.5315995  17.8821917  58.3426496 116.9413003  17.6655625
  57.6829542 115.5915437  17.8522111  66.9862817 109.0440777  18.6290988
  66.1304414 108.6547627  18.4496627  67.3989769 109.1232737  17.7690774
  68.5161964 106.5787120  23.0282548  68.0126760 106.5417255  22.2150353
  68.8092571 107.4879863  23.0879205  64.7604850 106.6625850  22.0348730
  65.6257847 106.4668658  21.6754619  64.8282359 106.4336201  22.9618086
  62.3667169 108.8928057  19.4065097  62.9410921 108.6703239  18.6738289
  62.9538151 108.9616752  20.1593698  64.6689837 105.7669306  18.1340166
  64.0154249 105.4518324  17.5096781  64.6270311 105.1445047  18.8599989
  67.9027577 112.2551240  22.4587814  66.9850138 112.4766187  22.3009502
  68.3187721 112.3297550  21.5999521  71.2353089 103.4676024  20.1651052
  71.5411966 102.6073387  19.8776968  71.9605694 104.0593644  19.9650046
  57.5277445 113.8706710  18.5532650  57.3301845 113.2776071  17.8283717
  56.9724109 113.5658921  19.2708589  65.5074169 113.7629817  20.6727243
  65.5622779 112.8103653  20.5969720  64.6965371 113.9189256  21.1568542
  63.4466529 112.3806877  18.4317622  62.6334394 112.6801047  18.8382814
  63.9425523 111.9862565  19.1492105  69.0440741 112.8448701  27.2632516
  69.3990128 113.0720174  28.1226982  69.6912872 113.1767078  26.6409772
  62.9380604 109.9525232  24.0478857  63.5779983 109.8113991  23.3501821
  62.1058134 109.6659746  23.6717459  68.5335752 121.6345758  24.5126217
  68.5872774 122.2036694  25.2803933  67.6650533 121.8047643  24.1480255
  59.9409220 109.9225557  18.8251844  60.2016037 110.8370890  18.7161005
  60.7626392 109.4550000  18.9748457  61.4134145 111.3363314  25.9950669
  62.0857199 111.1280676  25.3463318  60.5863932 111.1385400  25.5555901
  67.3159717 107.9625255  28.0116330  66.6687632 108.6615205  27.9180806
  68.0860733 108.3961399  28.3792578  70.7238515 118.2274107  31.0866883
  70.5724022 117.9984659  30.1696966  70.7143195 119.1844709  31.0998228
  67.4923852 115.8006020  26.0713149  68.4215912 115.9517180  25.8982117
  67.0714882 115.8890041  25.2161796  66.2912184 119.8256685  23.8411687
  66.1523269 119.4575469  24.7137625  65.5026780 120.3404324  23.6695645
  61.8161643 114.6105917  26.7553106  61.6781441 113.8786156  27.3564645
  62.7266566 114.5214817  26.4737294  64.4443943 114.3225877  26.2436785
  65.1543562 113.6819069  26.2023404  64.4013252 114.5738771  27.1662966
  72.4330722 121.2593230  29.1643365  72.3743268 120.5752450  28.4973948
  72.8350240 122.0012220  28.7123991  63.1572877 111.3091095  28.0632425
  62.6210234 110.8581833  28.7154021  62.5689586 111.4437003  27.3202889
  72.4348129 119.2232814  27.3957344  71.5474908 118.8858736  27.5183743
  73.0046680 118.4915845  27.6326110  54.0877276 115.5556906  20.7200396
  54.7748316 115.2418636  20.1321411  53.9325405 116.4598270  20.4467647
  58.8911999 110.4447102  25.1485419  58.8070187 109.8372772  24.4135829
  58.0694705 110.9356121  25.1494916  69.0635712 108.9300666  20.5155614
  69.5604412 108.1770628  20.1956685  68.2922694 108.9664982  19.9498824
  68.4247966 123.7821100  26.5176746  69.1375938 124.4168565  26.4452648
  67.9337995 123.8784966  25.7016748  65.6470681 111.0718049  20.2427299
  65.2768469 110.5189089  20.9308205  66.1429774 110.4676182  19.6902299
  63.4759880 121.5315544  27.3382317  64.1769339 122.1652027  27.4911711
  63.0054995 121.8730275  26.5777956  71.5054707 105.8970259  22.6634973
  70.5917787 106.1274486  22.8317180  71.9347809 105.9808703  23.5149006
  71.2761166 114.0860151  25.1634867  70.6232616 114.3336059  24.5087320
  71.6541546 113.2724289  24.8297345  67.3248739 114.8279962  31.6500904
  66.6489376 114.7274092  32.3203280  68.1476373 114.6719176  32.1136902
  59.0727598 121.0651899  24.2713420  59.6581035 120.3195587  24.4041324
  58.8752436 121.3755856  25.1550084  53.6645253 113.6357499  22.9917863
  53.7029352 113.1021090  23.7854981  53.1585545 113.1092705  22.3728840
  61.0436015 108.4822040  26.4880405  61.1077341 109.3436870  26.0757803
  60.9803135 107.8696041  25.7552764  60.5188287 110.5545172  30.1353439
  61.1460326 110.1722249  30.7490964  59.6616206 110.3359374  30.5009132
  70.9182396 120.9608147  31.7407175  71.4622300 121.5738105  31.2462130
  70.3369241 121.5187726  32.2574188  57.2953830 112.3621601  16.0671794
  57.5907271 111.4532280  16.0138848  56.3941866 112.3409341  15.7452797
  60.8248077 110.4377598  22.0499343  60.1034663 111.0513565  21.9106816
  61.6141333 110.9735363  21.9715989  63.6274391 107.7732024  28.3239995
  64.1508792 108.0194321  29.0866304  63.4086724 108.6052059  27.9043132
  59.0241672 110.0435699  16.1911119  58.6954378 109.1633078  16.0086225
  59.3781042 109.9883368  17.0787509  62.1383495 110.3308669  16.5586597
  62.4779567 110.8594590  15.8365205  62.5855615 110.6689075  17.3345164
  64.8326936 108.7145719  26.0089665  64.4923756 107.9153532  26.4110345
  64.1265942 109.0147430  25.4366498  65.4843408 105.7995032  24.4616988
  66.3069477 105.3255510  24.3395878  65.7281471 106.5785516  24.9615674
  63.0081986 112.4914152  22.2708967  62.8626567 112.8054455  23.1633248
  62.5307190 113.1099053  21.7179865  64.8678369 109.4816700  22.3189856
  64.8539938 108.5857794  21.9822154  65.5850797 109.4887364  22.9528142
  66.7204500 109.9154041  24.3642984  66.4622278 110.8371111  24.3627314
  66.1889540 109.5184475  25.0543448  57.4827648 115.0319497  25.2096628
  56.9381117 115.8079305  25.3416902  58.3606998 115.3790301  25.0515749
  64.2715265 108.3631081  17.5877426  64.3931176 107.4347727  17.7868314
  63.9817307 108.3769767  16.6755742  67.1406455 106.0485991  20.7244146
  67.1628152 106.1125324  19.7696126  67.5574514 105.2090500  20.9184652
  58.2693670 114.1589393  28.1026785  57.5275406 114.3072028  28.6891415
  57.9486415 114.4197659  27.2393534  66.2137333 123.7005371  27.9007175
  66.5224459 123.4554518  28.7729874  67.0112815 123.9052010  27.4126045
  56.9158889 119.9641148  21.0926113  56.0790797 119.5363323  20.9110114
  56.8882534 120.1573592  22.0296904  63.7556345 109.8763078  31.7967359
  63.8044500 110.7525201  31.4145129  64.2978859 109.3340471  31.2239002
  74.2411190 120.4204201  31.0768496  73.4506734 120.4028340  30.5372996
  74.0044545 120.9592495  31.8317533  74.3609065 117.2696668  28.3901225
  74.4107070 117.1046675  29.3316747  74.2522989 116.4023927  27.9999105
  71.6512828 113.2527596  29.7060531  72.5522691 113.1134061  29.4144529
  71.7260802 113.4182051  30.6458709  65.9855633 110.6294450  28.5513718
  65.1158942 110.9228016  28.2796306  66.2215113 111.2134895  29.2720981
  75.8627262 119.6893609  28.6343246  75.5712070 120.0523590  29.4706707
  75.2499393 118.9760617  28.4556578  74.1114450 114.8126224  27.1023304
  74.5868572 115.0053870  26.2942156  73.1880016 114.8685410  26.8566688
  68.6894667 106.8474067  26.0679138  69.2076611 107.5835094  25.7425627
  68.3349800 107.1538061  26.9025897  68.9407261 103.2674350  21.5880035
  69.2209015 102.5997539  22.2140461  69.7257868 103.4603446  21.0754699
  72.8116119 111.6891984  25.3351610  73.7633542 111.7890082  25.3563834
  72.6419570 110.8970252  25.8449694  70.8330499 108.7747567  25.5211011
  70.2380431 109.0552580  24.8257499  70.5480196 109.2641468  26.2927752
  75.2904197 114.9098104  24.4493909  75.2580517 113.9714104  24.6353593
  75.9004821 114.9882140  23.7159734  75.4398686 111.7009147  24.4952193
  74.9237734 110.9167604  24.3082121  76.3238634 111.3727864  24.6598712
  73.1009413 105.4450163  20.4548005  72.9034234 105.1365251  21.3391337
  73.7109118 106.1711801  20.5845935  67.0126221 117.8311903  31.9521770
  67.9329230 118.0090502  32.1461817  66.9775804 116.8867948  31.8001470
  56.2308386 113.0250496  20.8775045  55.9111170 112.1715805  20.5849419
  55.6841814 113.2399074  21.6333012  60.0088293 115.7412937  24.5944552
  60.2274303 116.6730045  24.6132585  60.4214067 115.3820912  25.3799355
  66.9292511 106.2481023  16.5820240  66.1193239 105.9028108  16.9575486
  67.6176928 105.9388566  17.1707852  68.8583059 105.3259069  18.2044537
  69.4114098 105.7454523  18.8634560  69.0953146 104.3994818  18.2467493
  64.8816158 111.3146143  33.9847301  64.7812885 112.2640500  33.9159392
  64.6637701 110.9864382  33.1123371  56.0996646 116.6453408  22.8468167
  55.4060117 116.2307361  22.3338121  56.8469637 116.6873944  22.2501586
  70.6865433 106.8364652  19.9144521  71.1865211 106.9481187  19.1058840
  71.3301041 106.5325705  20.5545330  64.7447429 114.7443282  32.8012362
  64.2614510 115.5443642  33.0076251  64.8308368 114.7551227  31.8479806
  58.0133388 116.5771662  20.7234182  57.9904076 116.6759349  19.7716065
  58.3234025 117.4236812  21.0451348  60.6720766 118.6347817  24.8380796
  61.6264020 118.6031759  24.7710728  60.4733290 118.1738440  25.6531022
  61.2620148 117.2048933  27.4051594  62.0813037 117.6993011  27.4286431
  61.5356956 116.2880901  27.3769161  74.3701280 109.6206206  20.4833888
  75.1461671 110.1102658  20.7558505  73.6449415 110.0464260  20.9405758
  56.5155062 111.5387067  28.1043791  57.1613926 111.0286021  28.5931016
  56.3072214 112.2755748  28.6787216  69.0408455 118.6067914  33.6035931
  69.9099614 118.7808566  33.2422566  68.5615206 119.4262331  33.4811661
  63.2094635 125.7265015  25.2825365  64.1121882 125.7588625  25.5991860
  62.9832005 124.7965466  25.2971701  68.8510792 102.3969888  18.1113624
  68.0843188 101.8428375  18.2570306  69.2621497 102.4691757  18.9727775
  60.8552553 108.6854684  32.2018805  61.7184015 108.3291488  32.4122130
  60.2817964 108.3468578  32.8894209  73.4134054 122.0935400  33.1948776
  73.0201000 121.5401599  33.8696421  74.2300194 122.4045979  33.5855294
  76.3302015 123.5093279  30.7869033  77.0711729 124.1100433  30.7073496
  76.5619938 122.7670917  30.2287076  71.3582042 125.8837090  30.1353439
  71.9854081 125.5014167  30.7490964  70.5009961 125.6651292  30.5009132
  74.5950099 125.2054996  31.7967359  74.6438255 126.0817119  31.4145129
  75.1372613 124.6632389  31.2239002  75.7209913 126.6438061  33.9847301
  75.6206640 127.5932418  33.9159392  75.5031455 126.3156300  33.1123371
  67.3548817 126.8678984  28.1043791  68.0007680 126.3577938  28.5931016
  67.1465968 127.6047666  28.6787216  71.6946308 124.0146601  32.2018805
  72.5577769 123.6583406  32.4122130  71.1211719 123.6760496  32.8894209
  24.3566420  36.9969921  17.3880070  23.9130274  36.2106300  17.0700974
  25.0183633  37.1849072  16.7223961  26.4547658  37.2772721  15.4161471
  26.4366133  38.0981602  14.9241740  27.3767578  37.1526796  15.6411612
  27.3663499  33.9168559  17.8112189  27.2149005  33.6879111  16.8942273
  27.3568178  34.8739161  17.8243534  29.0755705  36.9487682  15.8888671
  29.0168251  36.2646902  15.2219254  29.4775224  37.6906672  15.4369297
  27.5607379  36.6502599  18.4652482  28.1047283  37.2632557  17.9707436
  26.9794224  37.2082178  18.9819495  30.8836174  36.1098653  17.8013803
  30.0931717  36.0922792  17.2618302  30.6469528  36.6486947  18.5562839
  32.5052245  35.3788061  15.3588553  32.2137054  35.7418042  16.1952014
  31.8924377  34.6655069  15.1801885  25.6833438  34.2962366  20.3281238
  26.5524598  34.4703018  19.9667873  25.2040189  35.1156783  20.2056967
  37.3425914  46.0050992   9.7326513  37.9804324  45.8857739   9.0289853
  37.2246757  46.9531836   9.7914465  34.1515620  45.9578420   9.6688037
  33.8134131  45.8419485   8.7808572  35.0205388  45.5569585   9.6489043
  34.6335403  47.1113272  15.6274243  34.6224044  46.7166070  14.7554746
  34.7956042  46.3779344  16.2208014  27.5566868  49.3065088   8.4969149
  28.3488159  48.9655913   8.0815448  27.7963518  49.4160063   9.4171302
  31.3542664  49.8950384  14.5753427  31.0632530  50.7996014  14.4600093
  31.9899648  49.9366911  15.2897496  32.2798871  47.2727232  11.1654786
  32.8762443  47.0483254  10.4511749  32.3373842  46.5311978  11.7680234
  42.2975609  43.6677679   7.7112699  43.0300781  43.0976896   7.9450529
  41.5414965  43.2799279   8.1519205  39.8201030  37.3799253  12.1707308
  39.4884354  38.2494664  11.9468523  39.2246643  37.0635537  12.8501338
  36.3132549  49.5811799  11.5703220  36.0133272  50.4836838  11.4619028
  35.9683609  49.3143982  12.4224373  39.7129693  42.0994339   9.2500658
  38.8046570  42.0309748   8.9559419  39.6617289  42.5766284  10.0782483
  31.2953329  56.3456119   4.5374188  31.2177359  57.2963944   4.6162669
  30.6914972  56.0001992   5.1949114  33.7870559  43.5183985  17.1935555
  33.0103893  44.0777905  17.1838420  34.4261122  44.0040768  17.7150425
  41.5791339  40.3010778  11.0278532  40.9365720  40.5943311  10.3818326
  41.0746268  40.1863698  11.8331728  32.0416931  46.3269438  16.7553522
  32.7831615  46.8654482  16.4788346  31.3353916  46.9535727  16.9125074
  37.5172271  48.4698579  15.3525684  37.9255627  48.0280989  14.6080316
  36.7949532  47.8951206  15.6059876  33.8703341  43.4071185  12.7259241
  34.7164536  43.8310599  12.8693890  33.8101978  42.7504810  13.4197804
  37.8401085  49.0299769   9.1077972  37.2109948  49.1945483   8.4054040
  37.4526747  49.4441379   9.8788936  41.7190317  49.9654207   6.4622336
  41.0341355  50.3453108   5.9119370  41.8034166  50.5749534   7.1954284
  37.0202786  41.0675554  14.3840414  36.7763718  41.8217614  13.8474690
  37.2962717  41.4460901  15.2187661  38.9741249  47.6114166  13.0617680
  39.1858144  48.2545926  12.3852061  38.9270997  46.7776483  12.5939610
  33.3929047  48.7674177   6.3728058  33.8567393  49.0461880   5.5832680
  33.1285845  47.8657622   6.1901148  30.2853128  48.3145659   9.3107821
  30.8554485  48.7432927   8.6725305  30.8761240  48.0328244  10.0092006
  30.7778295  43.4809086  17.5568832  30.1476955  44.1625367  17.7904229
  30.6714383  43.3692168  16.6121970  40.0887077  50.4886122  11.2340037
  40.9104520  50.0866309  10.9522719  40.0849480  50.3854356  12.1856153
  33.8543680  50.0370165  13.3900748  33.9188113  50.4990572  14.2258919
  33.1454604  49.4067530  13.5183057  48.1793070  46.8324870   7.5825009
  47.4256778  46.2632268   7.4269013  48.3140611  46.7987535   8.5295643
  30.0559037  37.7829852  19.9194083  29.6625983  37.2296051  20.5941727
  30.8725178  38.0940431  20.3100601  28.8315980  52.3379467   5.9130406
  29.0082608  53.2597431   5.7251390  29.6272813  52.0237886   6.3424786
  32.9726998  39.1987731  17.5114340  33.7136712  39.7994884  17.4318802
  33.2044921  38.4565369  16.9532382  28.1168336  44.3844099  15.7892569
  28.0021852  43.4829356  16.0899668  27.2612854  44.6307795  15.4377386
  35.1960174  52.3261839  17.3880070  34.7524028  51.5398217  17.0700974
  35.8577388  52.5140989  16.7223961  29.9547295  53.8557640  11.9140749
  30.5054720  53.7274704  11.1417742  29.1158771  54.1552529  11.5635641
  37.2941412  52.6064639  15.4161471  37.2759888  53.4273520  14.9241740
  38.2161332  52.4818714  15.6411612  33.7514466  50.1208768  16.2584980
  34.2842803  49.3597056  16.0284288  33.2228548  49.8282420  17.0009134
  40.0960025  47.4443781   8.8870838  39.4383700  48.1343043   8.9750967
  40.9000424  47.8340213   9.2304824  38.9065484  45.7988154   6.9374780
  39.4197366  46.4318146   7.4396489  39.5566708  45.1989349   6.5718140
  35.3846315  43.2737609   9.1833120  34.4668876  43.4952556   9.0254808
  35.8006458  43.3483920   8.3244828  39.6727280  50.7794155   5.0653922
  39.2189607  49.9385065   5.1219113  39.0421247  51.4155554   5.4028702
  38.1160219  52.6170652   6.0003740  38.4083194  53.1775709   5.2816106
  38.6258840  52.9099213   6.7556900  33.0793845  53.3951003   7.0897194
  33.0370023  53.6211849   6.1605726  33.9956543  53.1614378   7.2382995
  36.5259478  43.8635071  13.9877823  36.8808866  44.0906544  14.8472289
  37.1731610  44.1953447  13.3655078  42.2557215  46.9853507   4.6927152
  42.1175114  47.1755103   3.7648341  41.8993434  47.7472889   5.1495203
  42.2826595  49.0530034   9.7038423  42.7163102  48.9605323  10.5521477
  42.9958176  49.0287534   9.0658439  31.1959645  50.2714032   6.8859156
  31.9900244  49.7764352   6.6841731  30.4851338  49.7431895   6.5226862
  36.0154490  52.6532128  11.2371524  36.0691512  53.2223064  12.0049240
  35.1469271  52.8234013  10.8725561  28.8952883  42.3549684  12.7195975
  29.5675937  42.1467046  12.0708624  28.0682670  42.1571770  12.2801208
  43.1442145  49.0953734  12.2371309  43.3378035  49.9999545  12.4830584
  43.0442763  48.6361153  13.0709894  34.7978455  38.9811625  14.7361636
  34.1506370  39.6801574  14.6426113  35.5679471  39.4147769  15.1037884
  38.2057253  49.2460477  17.8112189  38.0542760  49.0171029  16.8942273
  38.1961933  50.2031078  17.8243534  34.9742590  46.8192390  12.7958456
  35.9034650  46.9703549  12.6227423  34.5533620  46.9076411  11.9407102
  33.7730921  50.8443054  10.5656994  33.6342007  50.4761839  11.4382932
  32.9845518  51.3590694  10.3940951  34.3679073  55.9452151   1.9082530
  34.5430829  55.4740194   2.7228153  33.6811861  56.5717917   2.1363791
  35.3236137  50.2224657   7.9545831  34.9885969  50.1825427   8.8503481
  34.8240082  49.5569373   7.4816242  29.2980380  45.6292287  13.4798412
  29.1600178  44.8972526  14.0809951  30.2085304  45.5401187  13.1982600
  31.9262681  45.3412246  12.9682092  32.6362300  44.7005438  12.9268711
  31.8831989  45.5925141  13.8908273  39.9149460  52.2779600  15.8888671
  39.8562006  51.5938820  15.2219254  40.3168978  53.0198590  15.4369297
  30.6391615  42.3277464  14.7877732  30.1028972  41.8768203  15.4399328
  30.0508324  42.4623373  14.0448196  28.9340159  59.0941513   8.6822390
  29.1736757  59.7260038   9.3601409  28.0909355  58.7429553   8.9687749
  39.9166867  50.2419183  14.1202651  39.0293646  49.9045105  14.2429050
  40.4865418  49.5102215  14.3571416  33.4468020  54.9020636  11.0863894
  33.3738192  55.7075607  11.5983199  33.0045414  55.1012602  10.2611916
  33.2357800  54.1392406   4.5966716  32.4525322  54.6814086   4.6904940
  33.9350545  54.6566385   4.9960957  44.3984208  45.6527401   8.8819213
  44.3874084  46.5352116   8.5113146  43.5301587  45.2998952   8.6873750
  35.9066704  54.8007470  13.2422053  36.6194676  55.4354935  13.1697954
  35.4156733  54.8971336  12.4262055  37.6284231  48.7058723   4.8139345
  36.6940510  48.8260185   4.6444049  37.8060899  47.8031189   4.5499354
  41.0156782  44.5476042   5.3489379  41.4817234  45.3804033   5.2749681
  41.4664283  44.0821023   6.0534637  30.9578618  52.5501913  14.0627624
  31.6588077  53.1838396  14.2157018  30.4873733  52.8916645  13.3023263
  38.7579904  45.1046521  11.8880174  38.1051354  45.3522428  11.2332627
  39.1360283  44.2910659  11.5542651  35.7187077  55.1406214   5.9908344
  35.9009472  54.3227870   6.4536097  36.5420063  55.3573906   5.5533234
  36.0529243  54.0674399   3.2523393  36.5817009  53.5566854   2.6393555
  36.3157462  53.7516929   4.1168926  34.8067477  45.8466332  18.3746211
  34.1308114  45.7460461  19.0448586  35.6295110  45.6905546  18.8382208
  26.5546336  52.0838268  10.9958726  27.1399772  51.3381956  11.1286631
  26.3571174  52.3942225  11.8795390  29.4084991  55.1189516   6.0121169
  28.7395366  55.6035643   5.5285209  29.2697861  55.3658736   6.9264547
  33.5490259  57.1533259  12.6103827  34.1008567  57.3164881  13.3752912
  33.8896453  57.7437697  11.9383852  28.0007025  41.5731542  16.8598746
  28.6279064  41.1908619  17.4736270  27.1434944  41.3545744  17.2254439
  38.4001134  51.9794517  18.4652482  38.9441038  52.5924475  17.9707436
  37.8187979  52.5374095  18.9819495  36.6858647  55.1015235   9.5967509
  36.5609786  54.3004975   9.0878455  37.3437738  55.5961428   9.1081479
  38.7493555  52.9024255  11.2247059  37.8023891  52.7829606  11.1525386
  39.0976328  52.0146753  11.3073321  31.1093128  38.7918394  15.0485301
  31.6327530  39.0380690  15.8111611  30.8905462  39.6238429  14.6288439
  35.7539988  52.6976971   7.4251412  35.6064951  51.7693679   7.6058982
  36.5793482  52.7197062   6.9408487  39.3574110  53.5205530   8.5116284
  40.2820658  53.3148391   8.3740735  39.1889414  53.2721931   9.4205626
  32.3145673  39.7332089  12.7334972  31.9742494  38.9339902  13.1355652
  31.6084680  40.0333800  12.1611805  34.2023238  40.9340410  11.0888290
  33.9441015  41.8557481  11.0872621  33.6708278  40.5370845  11.7788755
  39.1469426  54.0391197   3.8678376  39.3206304  53.4737620   3.1152228
  39.6398318  54.8392092   3.6857866  24.9646386  46.0505866  11.9341935
  24.4199854  46.8265674  12.0662209  25.8425736  46.3976671  11.7761056
  45.0008818  46.8027620   5.4868676  45.4439964  46.0534945   5.0887799
  44.1235328  46.7937757   5.1042408  40.1344599  53.3557962   0.9675274
  40.8295504  53.9764654   1.1862589  40.4767749  52.5053313   1.2427652
  25.7512408  45.1775763  14.8272091  25.0094144  45.3258398  15.4136722
  25.4305152  45.4384028  13.9638841  42.0336022  50.8057667   2.4962605
  42.5587346  51.1444940   1.7711925  41.9458375  49.8704683   2.3125739
  33.6956071  54.7191741  14.6252481  34.0043197  54.4740888  15.4975181
  34.4931553  54.9238379  14.1371352  33.7176683  56.8729650   6.8557858
  33.2781673  56.3806029   7.5490715  34.4684800  56.3302618   6.6149933
  26.1969022  53.0641191   6.8582486  27.0227042  52.7644963   6.4781130
  25.8463074  52.2948814   7.3072275  31.1650555  52.4167660   8.9280160
  30.5430564  51.7538365   8.6282388  31.8355422  52.4428791   8.2453807
  31.2375082  40.8949448  18.5212666  31.2863238  41.7711570  18.1390435
  31.7797597  40.3526841  17.9484309  41.7229928  51.4390571  17.8013803
  40.9325472  51.4214710  17.2618302  41.4863283  51.9778865  18.5562839
  41.8427803  48.2883037  15.1146531  41.8925808  48.1233045  16.0562054
  41.7341726  47.4210296  14.7244412  39.1331566  44.2713965  16.4305838
  40.0341428  44.1320430  16.1389836  39.2079540  44.4368420  17.3704015
  33.4674371  41.6480820  15.2759024  32.5977680  41.9414386  15.0041613
  33.7033851  42.2321265  15.9966288  43.3446000  50.7079979  15.3588553
  43.0530808  51.0709959  16.1952014  42.7318131  49.9946987  15.1801885
  44.5441682  48.2732859   7.8791123  45.3788574  48.7122663   8.0428683
  44.6800811  47.7971512   7.0599369  41.5933188  45.8312593  13.8268611
  42.0687310  46.0240240  13.0187462  40.6698754  45.8871779  13.5811995
  36.1713405  37.8660437  12.7924445  36.6895349  38.6021464  12.4670933
  35.8168537  38.1724430  13.6271204  40.2934857  42.7078353  12.0596916
  41.2452280  42.8076451  12.0809140  40.1238308  41.9156622  12.5695001
  38.3149237  39.7933937  12.2456317  37.7199169  40.0738949  11.5502806
  38.0298933  40.2827838  13.0173058  42.7722935  45.9284473  11.1739216
  42.7399255  44.9900474  11.3598900  43.3823559  46.0068510  10.4405041
  42.9217423  42.7195517  11.2197499  42.4056472  41.9353973  11.0327428
  43.8057372  42.3914233  11.3844019  48.5899485  46.9900480  10.3145253
  49.3202873  46.7285768  10.8752956  47.9806430  46.2529202  10.3547321
  46.6714782  45.1308343  10.9119704  45.9447946  44.9964308  10.3036196
  46.2562069  45.4385171  11.7176422  34.4944958  48.8498272  18.6767077
  35.4147968  49.0276871  18.8707124  34.4594541  47.9054318  18.5246776
  27.4907031  46.7599307  11.3189858  27.7093041  47.6916415  11.3377892
  27.9032805  46.4007281  12.1044662  32.3634896  42.3332513  20.7092607
  32.2631623  43.2826870  20.6404698  32.1456438  42.0050752  19.8368677
  32.2266166  45.7629652  19.5257669  31.7433248  46.5630012  19.7321558
  32.3127105  45.7737596  18.5725113  28.1539504  49.6534186  11.5626103
  29.1082757  49.6218129  11.4956034  27.9552027  49.1924810  12.3776329
  28.7438886  48.2235302  14.1296900  29.5631775  48.7179381  14.1531738
  29.0175694  47.3067270  14.1014468  41.8520018  40.6392576   7.2079195
  42.6280408  41.1289028   7.4803812  41.1268152  41.0650630   7.6651065
  44.2892577  41.3520195   8.2653136  44.8837068  41.1115931   7.5546444
  44.3619161  40.6327325   8.8926672  26.5089733  55.1953806   8.5796301
  26.3744201  54.4354207   8.0134299  26.0921795  55.9194706   8.1125089
  46.5963650  44.6586396   7.0396557  46.0363208  44.7279585   7.8128119
  45.9907153  44.4827380   6.3196053  29.6658858  56.0923123   8.7914743
  29.5491243  57.0368555   8.6893433  28.8451305  55.7896684   9.1800542
  23.9973800  42.5573436  14.8289097  24.6432664  42.0472390  15.3176323
  23.7890951  43.2942118  15.4032523  36.5227192  49.6254284  20.3281238
  37.3918352  49.7994936  19.9667873  36.0433944  50.4448700  20.2056967
  30.6913373  56.7451385  12.0070672  31.5940619  56.7774995  12.3237167
  30.4650743  55.8151836  12.0217007  32.4466975  55.4982371   8.6680750
  31.4962606  55.4984233   8.5545122  32.7499461  54.7515106   8.1516785
  28.3371291  39.7041053  18.9264112  29.2002753  39.3477858  19.1367436
  27.7636702  39.3654948  19.6139516  48.1819668  61.3342910   9.7326513
  48.8198078  61.2149657   9.0289853  48.0640511  62.2823754   9.7914465
  44.9909374  61.2870338   9.6688037  44.6527886  61.1711402   8.7808572
  45.8599143  60.8861503   9.6489043  40.8496190  63.1405814   5.6584928
  40.2861055  63.0495751   4.8901216  40.7348585  62.3205719   6.1387421
  45.4729157  62.4405189  15.6274243  45.4617798  62.0457988  14.7554746
  45.6349797  61.7071262  16.2208014  38.3960622  64.6357006   8.4969149
  39.1881914  64.2947830   8.0815448  38.6357272  64.7451981   9.4171302
  46.4295749  66.8076782   0.9699393  45.7783729  67.3930862   0.5833407
  47.2240112  67.3382977   1.0294431  40.3551376  63.8965919   1.3686528
  41.1282252  63.3494906   1.2299403  40.7076775  64.7610168   1.5800989
  42.1936419  65.2242301  14.5753427  41.9026284  66.1287932  14.4600093
  42.8293403  65.2658829  15.2897496  43.1192625  62.6019150  11.1654786
  43.7156198  62.3775172  10.4511749  43.1767597  61.8603895  11.7680234
  42.6917654  60.0558585  -0.9995023  42.9443174  59.5340106  -1.7611560
  41.7542213  59.8924730  -0.8968339  47.7360937  59.0594363   6.8079721
  48.5224026  58.6413787   6.4570138  47.9999641  59.9640456   6.9761369
  47.9071014  64.4967214   1.5068377  47.2716847  64.5701840   2.2189282
  47.5768420  65.0860813   0.8287457  53.1369364  58.9969597   7.7112699
  53.8694536  58.4268813   7.9450529  52.3808719  58.6091197   8.1519205
  42.4113943  61.9586691   1.2029352  42.2950201  61.2831594   1.8710437
  42.5216202  61.4719065   0.3861505  44.7545483  61.4196838   4.9076042
  44.3903691  60.8927459   5.6188963  45.6112599  61.0295307   4.7342527
  50.6594784  52.7091171  12.1707308  50.3278109  53.5786582  11.9468523
  50.0640397  52.3927455  12.8501338  44.3950970  56.4486738  -0.0962610
  44.5625373  57.3166974   0.2707861  44.2048139  56.6114019  -1.0201321
  47.1526304  64.9103717  11.5703220  46.8527027  65.8128756  11.4619028
  46.8077363  64.6435900  12.4224373  40.6038785  61.3617514   7.6039925
  39.6789282  61.2293728   7.8117617  40.8523198  62.1411733   8.1009867
  50.5523447  57.4286257   9.2500658  49.6440325  57.3601665   8.9559419
  50.5011043  57.9058202  10.0782483  44.3740191  58.9044395   0.8884057
  44.2539816  59.3501446   1.7269537  43.6792780  59.2529713   0.3297595
  37.9647596  61.0050787   8.4383714  38.0939977  61.2585266   9.3523126
  37.2845047  61.5978495   8.1188369  42.1347083  71.6748037   4.5374188
  42.0571113  72.6255862   4.6162669  41.5308727  71.3293910   5.1949114
  44.6264313  58.8475902  17.1935555  43.8497647  59.4069823  17.1838420
  45.2654876  59.3332685  17.7150425  52.4185094  55.6302695  11.0278532
  51.7759474  55.9235228  10.3818326  51.9140022  55.5155616  11.8331728
  50.0725257  59.3765868   1.7164391  50.9843114  59.6093255   1.5412089
  49.5634905  59.9602913   1.1539470  42.8810685  61.6561356  16.7553522
  43.6225370  62.1946400  16.4788346  42.1747671  62.2827645  16.9125074
  48.3566025  63.7990496  15.3525684  48.7649381  63.3572907  14.6080316
  47.6343287  63.2243124  15.6059876  44.7097095  58.7363103  12.7259241
  45.5558290  59.1602517  12.8693890  44.6495733  58.0796727  13.4197804
  48.6794840  64.3591687   9.1077972  48.0503702  64.5237401   8.4054040
  48.2920502  64.7733296   9.8788936  52.5584072  65.2946125   6.4622336
  51.8735110  65.6745026   5.9119370  52.6427921  65.9041451   7.1954284
  47.8596540  56.3967471  14.3840414  47.6157472  57.1509532  13.8474690
  48.1356471  56.7752819  15.2187661  49.8135003  62.9406084  13.0617680
  50.0251899  63.5837844  12.3852061  49.7664752  62.1068400  12.5939610
  47.4161232  55.5523904   9.9654252  46.5545711  55.8505158  10.2570989
  47.4423667  55.7694303   9.0335285  44.2322802  64.0966095   6.3728058
  44.6961147  64.3753798   5.5832680  43.9679600  63.1949540   6.1901148
  41.1246883  63.6437577   9.3107821  41.6948240  64.0724845   8.6725305
  41.7154995  63.3620161  10.0092006  43.1691688  60.2189247   3.1817623
  43.8715731  60.6710291   3.6491549  42.8372316  59.5773066   3.8097516
  41.6172049  58.8101004  17.5568832  40.9870710  59.4917285  17.7904229
  41.5108137  58.6984086  16.6121970  36.9117022  58.4772800   8.4834756
  36.1216076  58.7330329   8.0074867  37.4028269  59.2921138   8.5886797
  50.9280831  65.8178039  11.2340037  51.7498275  65.4158226  10.9522719
  50.9243234  65.7146273  12.1856153  38.8631767  58.8417379   5.4418233
  38.0662930  58.9536074   5.9601729  38.6357359  59.1804032   4.5759123
  44.6937435  65.3662083  13.3900748  44.7581867  65.8282490  14.2258919
  43.9848359  64.7359447  13.5183057  35.1954725  58.7303290  10.9149747
  35.4462763  59.6150300  11.1807323  35.7314273  58.5507892  10.1424839
  59.0186824  62.1616788   7.5825009  58.2650533  61.5924186   7.4269013
  59.1534365  62.1279452   8.5295643  44.4085452  67.0330190   3.2579728
  44.2731127  67.8781726   3.6864576  44.9495265  67.2349468   2.4945662
  40.8952792  53.1121770  19.9194083  40.5019738  52.5587968  20.5941727
  41.7118932  53.4232348  20.3100601  37.8614850  64.5505628   3.8307653
  38.3739370  65.3448878   3.9813218  38.5137563  63.8531918   3.7641254
  39.6709734  67.6671384   5.9130406  39.8476363  68.5889349   5.7251390
  40.4666568  67.3529804   6.3424786  43.8120753  54.5279649  17.5114340
  44.5530466  55.1286802  17.4318802  44.0438676  53.7857287  16.9532382
  38.9562091  59.7136016  15.7892569  38.8415606  58.8121273  16.0899668
  38.1006609  59.9599713  15.4377386  46.0353929  67.6553757  17.3880070
  45.5917783  66.8690135  17.0700974  46.6971142  67.8432907  16.7223961
  40.7941050  69.1849558  11.9140749  41.3448475  69.0566621  11.1417742
  39.9552526  69.4844447  11.5635641  48.1335167  67.9356556  15.4161471
  48.1153642  68.7565437  14.9241740  49.0555087  67.8110632  15.6411612
  44.5908221  65.4500686  16.2584980  45.1236558  64.6888974  16.0284288
  44.0622302  65.1574338  17.0009134  47.7577916  50.5560752  11.7878621
  47.4142185  51.4462394  11.7117732  48.1256878  50.3662410  10.9248206
  35.8263766  62.8794282   4.6067224  36.6638988  63.2891291   4.3900931
  36.0042034  61.9393725   4.5767417  47.7228199  60.5469363   0.2951056
  47.2074822  61.3173968   0.5339444  47.4505507  59.8734499   0.9184118
  45.3075310  55.3919064   5.3536295  44.4516906  55.0025914   5.1741934
  45.7202261  55.4711025   4.4936080  46.8374456  52.9265407   9.7527855
  46.3339252  52.8895542   8.9395660  47.1305063  53.8358150   9.8124511
  43.0817342  53.0104137   8.7594036  43.9470339  52.8146945   8.3999926
  43.1494851  52.7814489   9.6863393  52.6962473  63.3001718   2.2304230
  51.9191916  62.9612877   1.7859392  53.3753954  63.3054341   1.5559195
  47.5114502  58.4196455   2.1210838  47.2064637  58.7342604   2.9720981
  48.4644944  58.4977875   2.1638171  45.9560934  64.5786678   3.7703792
  45.4282295  63.8439438   3.4577029  45.4548436  65.3561355   3.5243760
  50.9353780  62.7735699   8.8870838  50.2777454  63.4634960   8.9750967
  51.7394179  63.1632131   9.2304824  40.6879661  55.2406345   6.1310403
  41.2623413  55.0181526   5.3983596  41.2750644  55.3095039   6.8839004
  49.7459238  61.1280072   6.9374780  50.2591120  61.7610063   7.4396489
  50.3960462  60.5281267   6.5718140  41.0149248  57.2710806   0.1506288
  40.1786561  57.6085492   0.4715563  40.8754018  57.1359786  -0.7866575
  42.9902329  52.1147594   4.8585473  42.3366741  51.7996611   4.2342087
  42.9482803  51.4923334   5.5845296  44.1013534  62.3966889  -3.2261235
  43.1940596  62.1656142  -3.0270086  44.5984566  61.6004508  -3.0387254
  47.0081613  71.1064396  -0.3064549  46.3343311  71.4096093   0.3020409
  47.3947435  71.9093476  -0.6559092  46.2240069  58.6029527   9.1833120
  45.3062631  58.8244474   9.0254808  46.6400213  58.6775838   8.3244828
  47.0075117  60.0020943   4.3135800  47.7546936  60.5142340   4.0042923
  47.2766707  59.6804996   5.1740194  45.2801767  62.4979484   1.2962755
  44.3712986  62.2138516   1.3935225  45.3096851  62.9178562   0.4366062
  50.5121035  66.1086073   5.0653922  50.0583362  65.2676983   5.1219113
  49.8815001  66.7447471   5.4028702  49.4553954  57.0378059   6.2954590
  48.7176711  56.5255445   6.6264832  49.7080728  56.5978441   5.4837867
  48.9553974  67.9462570   6.0003740  49.2476948  68.5067627   5.2816106
  49.4652594  68.2391131   6.7556900  49.5565582  49.8154311   6.8896359
  49.8624458  48.9551674   6.6022274  50.2818186  50.4071931   6.6895353
  35.8489938  60.2184998   5.2777957  35.6514337  59.6254358   4.5529024
  35.2936602  59.9137208   5.9953896  43.8286661  60.1108104   7.3972550
  43.8835271  59.1581941   7.3215027  43.0177863  60.2667543   7.8813849
  44.9777855  64.0388227  -1.3649167  44.5397285  63.3224086  -1.8243529
  45.7188296  64.2664342  -1.9264075  41.7679021  58.7285164   5.1562929
  40.9546887  59.0279334   5.5628121  42.2638015  58.3340853   5.8737411
  43.9187599  68.7242921   7.0897194  43.8763778  68.9503767   6.1605726
  44.8350298  68.4906295   7.2382995  47.3653233  59.1926988  13.9877823
  47.7202621  59.4198461  14.8472289  48.0125364  59.5245365  13.3655078
  53.0950970  62.3145424   4.6927152  52.9568868  62.5047020   3.7648341
  52.7387189  63.0764807   5.1495203  41.2593096  56.3003519  10.7724164
  41.8992475  56.1592279  10.0747127  40.4270627  56.0138033  10.3962766
  53.1220349  64.3821951   9.7038423  53.5556856  64.2897240  10.5521477
  53.8351930  64.3579452   9.0658439  42.0353400  65.6005950   6.8859156
  42.8293998  65.1056270   6.6841731  41.3245092  65.0723813   6.5226862
  46.8548244  67.9824045  11.2371524  46.9085267  68.5514982  12.0049240
  45.9863026  68.1525930  10.8725561  38.3436163  59.7449032   2.9618909
  37.4133751  59.6833487   3.1788871  38.4393635  59.2224984   2.1655550
  38.2621712  56.2703844   5.5497151  38.5228530  57.1849178   5.4406311
  39.0838885  55.8028287   5.6993764  39.7346638  57.6841602  12.7195975
  40.4069691  57.4758964  12.0708624  38.9076424  57.4863688  12.2801208
  53.9835899  64.4245652  12.2371309  54.1771789  65.3291462  12.4830584
  53.8836517  63.9653071  13.0709894  45.6372210  54.3103542  14.7361636
  44.9900125  55.0093492  14.6426113  46.4073225  54.7439686  15.1037884
  49.0451008  64.5752395  17.8112189  48.8936514  64.3462946  16.8942273
  49.0355687  65.5322996  17.8243534  45.8136344  62.1484307  12.7958456
  46.7428404  62.2995467  12.6227423  45.3927374  62.2368328  11.9407102
  44.6124676  66.1734972  10.5656994  44.4735762  65.8053756  11.4382932
  43.8239272  66.6882611  10.3940951  45.2072828  71.2744068   1.9082530
  45.3824584  70.8032111   2.7228153  44.5205616  71.9009834   2.1363791
  46.1629891  65.5516575   7.9545831  45.8279724  65.5117344   8.8503481
  45.6633837  64.8861290   7.4816242  40.1374135  60.9584205  13.4798412
  39.9993933  60.2264443  14.0809951  41.0479058  60.8693105  13.1982600
  49.0989083  62.8972609  -1.7717109  48.4818253  62.1719437  -1.8684056
  48.6305571  63.6581969  -2.1150035  42.7656436  60.6704164  12.9682092
  43.4756054  60.0297356  12.9268711  42.7225744  60.9217059  13.8908273
  50.7543214  67.6071517  15.8888671  50.6955760  66.9230737  15.2219254
  51.1562733  68.3490507  15.4369297  41.4785370  57.6569382  14.7877732
  40.9422727  57.2060120  15.4399328  40.8902078  57.7915291  14.0448196
  39.7733913  74.4233431   8.6822390  40.0130511  75.0551955   9.3601409
  38.9303110  74.0721471   8.9687749  50.7560622  65.5711101  14.1202651
  49.8687400  65.2337023  14.2429050  51.3259173  64.8394132  14.3571416
  32.4089769  61.9035193   7.4445702  33.0960809  61.5896923   6.8566718
  32.2537897  62.8076558   7.1712954  37.2124491  56.7925389  11.8730726
  37.1282680  56.1851059  11.1381136  36.3907197  57.2834408  11.8740222
  44.2861775  70.2312553  11.0863894  44.2131946  71.0367525  11.5983199
  43.8439168  70.4304519  10.2611916  44.0751555  69.4684324   4.5966716
  43.2919076  70.0106004   4.6904940  44.7744300  69.9858303   4.9960957
  47.3848205  55.2778953   7.2400921  47.8816904  54.5248915   6.9201991
  46.6135186  55.3143270   6.6744130  55.2377962  60.9819319   8.8819213
  55.2267838  61.8644034   8.5113146  54.3695342  60.6290869   8.6873750
  46.7460458  70.1299388  13.2422053  47.4588431  70.7646852  13.1697954
  46.2550487  70.2263254  12.4262055  48.4677985  64.0350640   4.8139345
  47.5334264  64.1552103   4.6444049  48.6454654  63.1323107   4.5499354
  43.9683173  57.4196336   6.9672606  43.5980961  56.8667376   7.6553511
  44.4642266  56.8154469   6.4147606  51.8550537  59.8767959   5.3489379
  52.3210989  60.7095951   5.2749681  52.3058037  59.4112941   6.0534637
  41.7972372  67.8793831  14.0627624  42.4981832  68.5130314  14.2157018
  41.3267487  68.2208563  13.3023263  49.9226768  66.2211781   2.3475531
  50.1986612  66.1068375   3.2569405  49.0531267  65.8229266   2.3087704
  49.8267200  52.2448546   9.3880280  48.9130279  52.4752773   9.5562487
  50.2560301  52.3286991  10.2394312  49.5973658  60.4338438  11.8880174
  48.9445108  60.6814346  11.2332627  49.9754038  59.6202577  11.5542651
  46.5580832  70.4698132   5.9908344  46.7403226  69.6519788   6.4536097
  47.3813818  70.6865824   5.5533234  46.8922997  69.3966317   3.2523393
  47.4210764  68.8858771   2.6393555  47.1551217  69.0808847   4.1168926
  45.6461231  61.1758249  18.3746211  44.9701868  61.0752379  19.0448586
  46.4688865  61.0197463  18.8382208  37.3940090  67.4130186  10.9958726
  37.9793527  66.6673874  11.1286631  37.1964929  67.7234143  11.8795390
  40.2478745  70.4481433   6.0121169  39.5789121  70.9327561   5.5285209
  40.1091615  70.6950654   6.9264547  31.9857745  59.9835786   9.7163169
  32.0241844  59.4499377  10.5100288  31.4798038  59.4570992   9.0974147
  44.3884014  72.4825177  12.6103827  44.9402322  72.6456798  13.3752912
  44.7290207  73.0729615  11.9383852  39.3648507  54.8300327  13.2125712
  39.4289834  55.6915158  12.8003109  39.3015627  54.2174328  12.4798070
  38.8400780  56.9023459  16.8598746  39.4672818  56.5200537  17.4736270
  37.9828699  56.6837661  17.2254439  49.2394888  67.3086434  18.4652482
  49.7834792  67.9216393  17.9707436  48.6581733  67.8666013  18.9819495
  35.6166322  58.7099888   2.7917101  35.9119763  57.8010567   2.7384155
  34.7154358  58.6887628   2.4698103  47.5252401  70.4307152   9.5967509
  47.4003541  69.6296892   9.0878455  48.1831492  70.9253346   9.1081479
  39.1460569  56.7855885   8.7744649  38.4247155  57.3991853   8.6352123
  39.9353825  57.3213650   8.6961295  49.5887310  68.2316173  11.2247059
  48.6417645  68.1121524  11.1525386  49.9370083  67.3438671  11.3073321
  41.9486883  54.1210311  15.0485301  42.4721285  54.3672608  15.8111611
  41.7299216  54.9530346  14.6288439  37.3454164  56.3913986   2.9156426
  37.0166870  55.5111365   2.7331532  37.6993535  56.3361655   3.8032815
  46.5933743  68.0268889   7.4251412  46.4458705  67.0985596   7.6058982
  47.4187236  68.0488979   6.9408487  40.4595987  56.6786956   3.2831904
  40.7992060  57.2072877   2.5610512  40.9068108  57.0167362   4.0590470
  50.1967865  68.8497447   8.5116284  51.1214412  68.6440309   8.3740735
  50.0283168  68.6013849   9.4205626  43.1539428  55.0624007  12.7334972
  42.8136248  54.2631820  13.1355652  42.4478434  55.3625717  12.1611805
  43.8055900  52.1473319  11.1862295  44.6281969  51.6733797  11.0641185
  44.0493963  52.9263803  11.6860981  42.4464134  55.1761577   1.4825196
  43.1672497  55.5542830   0.9788913  41.8229438  55.8950454   1.5860174
  46.5895257  55.8806726   2.4183529  46.8058872  56.7631364   2.1172357
  46.1089324  55.4892940   1.6889171  41.3294479  58.8392440   8.9954273
  41.1839059  59.1532743   9.8878555  40.8519682  59.4577340   8.4425172
  43.1890861  55.8294988   9.0435163  43.1752430  54.9336081   8.7067461
  43.9063290  55.8365651   9.6773449  45.0416992  56.2632328  11.0888290
  44.7834770  57.1849398  11.0872621  44.5102033  55.8662762  11.7788755
  49.9863181  69.3683115   3.8678376  50.1600058  68.8029537   3.1152228
  50.4792072  70.1684010   3.6857866  35.8040141  61.3797784  11.9341935
  35.2593609  62.1557592  12.0662209  36.6819491  61.7268589  11.7761056
  42.5927757  54.7109368   4.3122733  42.7143669  53.7826014   4.5113621
  42.3029800  54.7248054   3.4001049  45.4618948  52.3964278   7.4489453
  45.4840645  52.4603611   6.4941432  45.8787007  51.5568787   7.6429959
  55.8402572  62.1319538   5.4868676  56.2833718  61.3826863   5.0887799
  54.9629082  62.1229674   5.1042408  50.9738353  68.6849879   0.9675274
  51.6689258  69.3056572   1.1862589  51.3161504  67.8345231   1.2427652
  36.5906163  60.5067680  14.8272091  35.8487899  60.6550316  15.4136722
  36.2698907  60.7675946  13.9638841  52.8729777  66.1349585   2.4962605
  53.3981101  66.4736858   1.7711925  52.7852129  65.1996600   2.3125739
  44.5349825  70.0483659  14.6252481  44.8436952  69.8032805  15.4975181
  45.3325307  70.2530297  14.1371352  44.5570437  72.2021568   6.8557858
  44.1175428  71.7097947   7.5490715  45.3078554  71.6594536   6.6149933
  37.0362776  68.3933109   6.8582486  37.8620796  68.0936881   6.4781130
  36.6856828  67.6240731   7.3072275  42.0044309  67.7459577   8.9280160
  41.3824319  67.0830282   8.6282388  42.6749176  67.7720709   8.2453807
  35.2371381  66.3119435   7.8171420  34.4003290  65.8841610   7.6355421
  35.2095027  66.5051879   8.7542211  42.0768837  56.2241365  18.5212666
  42.1256992  57.1003488  18.1390435  42.6191351  55.6818758  17.9484309
  52.5623683  66.7682489  17.8013803  51.7719226  66.7506627  17.2618302
  52.3257037  67.3070782  18.5562839  52.6821558  63.6174955  15.1146531
  52.7319563  63.4524962  16.0562054  52.5735481  62.7502214  14.7244412
  41.5657816  66.2963501   2.4038620  41.7145937  66.9798965   1.7505293
  42.3724260  66.2768591   2.9188076  49.9725320  59.6005883  16.4305838
  50.8735183  59.4612348  16.1389836  50.0473295  59.7660338  17.3704015
  44.3068125  56.9772738  15.2759024  43.4371435  57.2706304  15.0041613
  44.5427606  57.5613183  15.9966288  54.1839754  66.0371896  15.3588553
  53.8924563  66.4001877  16.1952014  53.5711886  65.3238905  15.1801885
  55.3835437  63.6024776   7.8791123  56.2182328  64.0414580   8.0428683
  55.5194566  63.1263429   7.0599369  52.4326943  61.1604511  13.8268611
  52.9081064  61.3532157  13.0187462  51.5092508  61.2163697  13.5811995
  39.3210449  62.3228678   3.4099689  39.0756491  61.4191008   3.6079899
  39.4906364  62.3245829   2.4679167  47.0107159  53.1952355  12.7924445
  47.5289103  53.9313382  12.4670933  46.6562292  53.5016348  13.6271204
  38.5906097  58.0557036   0.9085851  37.8975342  58.1301391   0.2525887
  38.3457849  57.2917379   1.4307368  47.2619753  49.6152637   8.3125341
  47.5421507  48.9475826   8.9385768  48.0470360  49.8081733   7.8000005
  45.0653222  68.7911631  -0.1249632  44.4927189  69.4101818  -0.5779160
  45.6386016  69.3410993   0.4090290  51.1328612  58.0370271  12.0596916
  52.0846035  58.1368369  12.0809140  50.9632062  57.2448540  12.5695001
  49.1542991  55.1225854  12.2456317  48.5592923  55.4030867  11.5502806
  48.8692688  55.6119755  13.0173058  48.2850482  69.0748781   1.0058950
  49.2181155  69.0094343   1.2091825  48.1973694  69.9105048   0.5473483
  50.9138498  68.3914652  -2.0337103  50.8352130  68.0574515  -1.1401345
  51.7348165  68.8836419  -2.0345630  53.6116689  61.2576391  11.1739216
  53.5793010  60.3192392  11.3598900  54.2217313  61.3360428  10.4405041
  45.4500020  60.1272444  -2.7833580  46.3959125  59.9978652  -2.7145162
  45.0714265  59.3887106  -2.3064152  53.7611178  58.0487434  11.2197499
  53.2450227  57.2645891  11.0327428  54.6451127  57.7206151  11.3844019
  51.4221905  51.7928450   7.1793312  51.2246726  51.4843538   8.0636644
  52.0321610  52.5190089   7.3091242  59.4293239  62.3192398  10.3145253
  60.1596628  62.0577686  10.8752956  58.8200185  61.5821120  10.3547321
  57.5108536  60.4600260  10.9119704  56.7841700  60.3256225  10.3036196
  57.0955823  60.7677089  11.7176422  45.3338713  64.1790190  18.6767077
  46.2541722  64.3568789  18.8707124  45.2988296  63.2346235  18.5246776
  43.6342938  58.0522420  -2.8478695  42.7274393  57.7555533  -2.7715981
  43.9118919  57.7552238  -3.7144408  34.5520878  59.3728784   7.6020352
  34.2323662  58.5194092   7.3094726  34.0054306  59.5877362   8.3578319
  38.3300785  62.0891225  11.3189858  38.5486795  63.0208332  11.3377892
  38.7426559  61.7299199  12.1044662  45.2505003  52.5959310   3.3065547
  44.4405732  52.2506395   3.6820793  45.9389420  52.2866854   3.8953158
  47.1795552  51.6737357   4.9289843  47.7326590  52.0932810   5.5879866
  47.4165638  50.7473105   4.9712799  43.2028651  57.6624430  20.7092607
  43.1025378  58.6118787  20.6404698  42.9850193  57.3342669  19.8368677
  34.4209138  62.9931695   9.5713473  33.7272609  62.5785648   9.0583428
  35.1682129  63.0352232   8.9746892  50.5574359  53.7837882   4.4368508
  49.9773028  54.4422686   4.0546560  50.2910291  52.9615226   4.0255925
  49.0077925  53.1842940   6.6389828  49.5077703  53.2959474   5.8304147
  49.6513533  52.8803992   7.2790636  43.0659921  61.0921569  19.5257669
  42.5827003  61.8921929  19.7321558  43.1520860  61.1029514  18.5725113
  36.3345880  62.9249949   7.4479488  36.3116569  63.0237636   6.4961371
  36.6446517  63.7715100   7.7696654  38.9933258  64.9826104  11.5626103
  39.9476512  64.9510046  11.4956034  38.7945782  64.5216728  12.3776329
  39.5832640  63.5527220  14.1296900  40.4025529  64.0471299  14.1531738
  39.8569448  62.6359188  14.1014468  49.3399237  55.9437972   3.4924856
  48.4525092  56.2287623   3.2745051  49.7553226  55.7831736   2.6452133
  52.6913773  55.9684493   7.2079195  53.4674163  56.4580946   7.4803812
  51.9661907  56.3942547   7.6651065  55.1286331  56.6812112   8.2653136
  55.7230822  56.4407848   7.5546444  55.2012915  55.9619243   8.8926672
  37.3483487  70.5245723   8.5796301  37.2137955  69.7646124   8.0134299
  36.9315549  71.2486623   8.1125089  48.4842450  65.7082647  -2.4127124
  49.1878300  65.9132649  -1.7969469  47.7605099  66.2759409  -2.1478041
  49.3140260  61.4592508   3.7075146  49.2575462  61.9161060   2.8682778
  49.8668603  60.6983193   3.5297989  53.1245066  57.2482240   4.5325265
  52.8682001  56.8478876   5.3633473  52.4997934  57.9626034   4.4075405
  57.4357404  59.9878313   7.0396557  56.8756962  60.0571503   7.8128119
  56.8300908  59.8119298   6.3196053  40.5052613  71.4215040   8.7914743
  40.3884997  72.3660473   8.6893433  39.6845059  71.1188602   9.1800542
  50.3929147  66.1465176  -0.3628664  51.2274751  65.7146375  -0.5451189
  50.2313490  65.9747190   0.5648230  50.0475040  62.6497289   1.0027675
  49.9923843  62.4841561   0.0616119  49.4221095  63.3573322   1.1589865
  34.8367555  57.8865354  14.8289097  35.4826418  57.3764308  15.3176323
  34.6284706  58.6234035  15.4032523  47.3620947  64.9546201  20.3281238
  48.2312106  65.1286854  19.9667873  46.8827698  65.7740618  20.2056967
  43.3571165  52.1505398   0.5812994  43.3449835  53.0947238   0.7381264
  44.2494587  51.9675544   0.2872455  41.5307127  72.0743302  12.0070672
  42.4334374  72.1066913  12.3237167  41.3044497  71.1443753  12.0217007
  43.2860729  70.8274289   8.6680750  42.3356360  70.8276150   8.5545122
  43.5893215  70.0807023   8.1516785  47.1723285  48.7448175   4.8358930
  46.4055680  48.1906662   4.9815613  47.5833990  48.8170044   5.6973082
  39.1765046  55.0332971  18.9264112  40.0396507  54.6769776  19.1367436
  38.6030456  54.6946866  19.6139516  59.0213423  76.6634827   9.7326513
  59.6591833  76.5441575   9.0289853  58.9034265  77.6115671   9.7914465
  55.8303129  76.6162255   9.6688037  55.4921640  76.5003320   8.7808572
  56.6992897  76.2153420   9.6489043  51.6889945  78.4697732   5.6584928
  51.1254810  78.3787669   4.8901216  51.5742340  77.6497636   6.1387421
  56.3122912  77.7697107  15.6274243  56.3011553  77.3749905  14.7554746
  56.4743551  77.0363180  16.2208014  49.2354377  79.9648923   8.4969149
  50.0275668  79.6239748   8.0815448  49.4751027  80.0743898   9.4171302
  57.2689503  82.1368699   0.9699393  56.6177483  82.7222780   0.5833407
  58.0633866  82.6674894   1.0294431  51.1945130  79.2257837   1.3686528
  51.9676006  78.6786824   1.2299403  51.5470529  80.0902086   1.5800989
  53.0330173  80.5534219  14.5753427  52.7420039  81.4579850  14.4600093
  53.6687157  80.5950746  15.2897496  53.9586380  77.9311067  11.1654786
  54.5549952  77.7067090  10.4511749  54.0161351  77.1895813  11.7680234
  53.5311408  75.3850503  -0.9995023  53.7836929  74.8632024  -1.7611560
  52.5935967  75.2216648  -0.8968339  58.5754691  74.3886281   6.8079721
  59.3617780  73.9705704   6.4570138  58.8393395  75.2932373   6.9761369
  58.7464768  79.8259131   1.5068377  58.1110601  79.8993758   2.2189282
  58.4162175  80.4152730   0.8287457  63.9763118  74.3261514   7.7112699
  64.7088290  73.7560731   7.9450529  63.2202474  73.9383115   8.1519205
  53.2507697  77.2878609   1.2029352  53.1343955  76.6123512   1.8710437
  53.3609957  76.8010983   0.3861505  55.5939238  76.7488756   4.9076042
  55.2297445  76.2219377   5.6188963  56.4506354  76.3587225   4.7342527
  61.4988539  68.0383088  12.1707308  61.1671863  68.9078499  11.9468523
  60.9034152  67.7219372  12.8501338  55.2344725  71.7778655  -0.0962610
  55.4019127  72.6458892   0.2707861  55.0441894  71.9405937  -1.0201321
  57.9920058  80.2395634  11.5703220  57.6920781  81.1420673  11.4619028
  57.6471118  79.9727818  12.4224373  51.4432540  76.6909431   7.6039925
  50.5183036  76.5585645   7.8117617  51.6916953  77.4703650   8.1009867
  61.3917202  72.7578175   9.2500658  60.4834079  72.6893583   8.9559419
  61.3404798  73.2350119  10.0782483  55.2133946  74.2336313   0.8884057
  55.0933571  74.6793364   1.7269537  54.5186534  74.5821631   0.3297595
  48.8041351  76.3342705   8.4383714  48.9333732  76.5877184   9.3523126
  48.1238802  76.9270413   8.1188369  52.9740838  87.0039955   4.5374188
  52.8964868  87.9547780   4.6162669  52.3702481  86.6585827   5.1949114
  55.4658068  74.1767820  17.1935555  54.6891402  74.7361740  17.1838420
  56.1048631  74.6624603  17.7150425  63.2578848  70.9594613  11.0278532
  62.6153229  71.2527146  10.3818326  62.7533777  70.8447533  11.8331728
  60.9119012  74.7057786   1.7164391  61.8236868  74.9385173   1.5412089
  60.4028659  75.2894830   1.1539470  53.7204440  76.9853274  16.7553522
  54.4619124  77.5238317  16.4788346  53.0141425  77.6119562  16.9125074
  59.1959780  79.1282414  15.3525684  59.6043136  78.6864824  14.6080316
  58.4737041  78.5535041  15.6059876  55.5490850  74.0655021  12.7259241
  56.3952045  74.4894434  12.8693890  55.4889487  73.4088645  13.4197804
  59.5188594  79.6883605   9.1077972  58.8897457  79.8529319   8.4054040
  59.1314256  80.1025214   9.8788936  63.3977826  80.6238042   6.4622336
  62.7128864  81.0036944   5.9119370  63.4821675  81.2333369   7.1954284
  58.6990295  71.7259389  14.3840414  58.4551227  72.4801450  13.8474690
  58.9750225  72.1044737  15.2187661  60.6528758  78.2698001  13.0617680
  60.8645653  78.9129761  12.3852061  60.6058506  77.4360318  12.5939610
  58.2554987  70.8815822   9.9654252  57.3939466  71.1797076  10.2570989
  58.2817421  71.0986221   9.0335285  55.0716556  79.4258013   6.3728058
  55.5354902  79.7045716   5.5832680  54.8073354  78.5241457   6.1901148
  51.9640637  78.9729494   9.3107821  52.5341994  79.4016763   8.6725305
  52.5548749  78.6912079  10.0092006  54.0085442  75.5481165   3.1817623
  54.7109486  76.0002209   3.6491549  53.6766071  74.9064984   3.8097516
  52.4565804  74.1392922  17.5568832  51.8264464  74.8209203  17.7904229
  52.3501892  74.0276003  16.6121970  47.7510776  73.8064718   8.4834756
  46.9609830  74.0622246   8.0074867  48.2422024  74.6213056   8.5886797
  61.7674586  81.1469957  11.2340037  62.5892029  80.7450144  10.9522719
  61.7636989  81.0438191  12.1856153  49.7025522  74.1709297   5.4418233
  48.9056685  74.2827991   5.9601729  49.4751114  74.5095949   4.5759123
  55.5331189  80.6954000  13.3900748  55.5975622  81.1574407  14.2258919
  54.8242113  80.0651365  13.5183057  46.0348479  74.0595208  10.9149747
  46.2856518  74.9442218  11.1807323  46.5708028  73.8799810  10.1424839
  69.8580579  77.4908705   7.5825009  69.1044287  76.9216103   7.4269013
  69.9928120  77.4571370   8.5295643  55.2479207  82.3622108   3.2579728
  55.1124882  83.2073643   3.6864576  55.7889019  82.5641385   2.4945662
  51.7346546  68.4413688  19.9194083  51.3413492  67.8879886  20.5941727
  52.5512687  68.7524266  20.3100601  48.7008604  79.8797546   3.8307653
  49.2133125  80.6740796   3.9813218  49.3531317  79.1823836   3.7641254
  50.5103489  82.9963302   5.9130406  50.6870117  83.9181267   5.7251390
  51.3060322  82.6821721   6.3424786  54.6514507  69.8571567  17.5114340
  55.3924221  70.4578720  17.4318802  54.8832430  69.1149204  16.9532382
  49.7955845  75.0427934  15.7892569  49.6809361  74.1413191  16.0899668
  48.9400363  75.2891631  15.4377386  56.8747683  82.9845674  17.3880070
  56.4311537  82.1982053  17.0700974  57.5364897  83.1724825  16.7223961
  51.6334804  84.5141476  11.9140749  52.1842229  84.3858539  11.1417742
  50.7946280  84.8136365  11.5635641  58.9728921  83.2648474  15.4161471
  58.9547397  84.0857355  14.9241740  59.8948841  83.1402549  15.6411612
  55.4301975  80.7792604  16.2584980  55.9630312  80.0180892  16.0284288
  54.9016057  80.4866255  17.0009134  58.5971670  65.8852670  11.7878621
  58.2535940  66.7754311  11.7117732  58.9650633  65.6954327  10.9248206
  46.6657521  78.2086200   4.6067224  47.5032743  78.6183208   4.3900931
  46.8435789  77.2685642   4.5767417  58.5621953  75.8761281   0.2951056
  58.0468577  76.6465885   0.5339444  58.2899262  75.2026417   0.9184118
  56.1469064  70.7210981   5.3536295  55.2910660  70.3317832   5.1741934
  56.5596016  70.8002942   4.4936080  57.6768211  68.2557325   9.7527855
  57.1733006  68.2187460   8.9395660  57.9698818  69.1650067   9.8124511
  53.9211097  68.3396054   8.7594036  54.7864093  68.1438863   8.3999926
  53.9888606  68.1106406   9.6863393  63.5356227  78.6293635   2.2304230
  62.7585670  78.2904795   1.7859392  64.2147708  78.6346258   1.5559195
  58.3508256  73.7488373   2.1210838  58.0458392  74.0634522   2.9720981
  59.3038698  73.8269793   2.1638171  56.7954688  79.9078596   3.7703792
  56.2676050  79.1731356   3.4577029  56.2942191  80.6853272   3.5243760
  61.7747534  78.1027617   8.8870838  61.1171209  78.7926878   8.9750967
  62.5787933  78.4924049   9.2304824  51.5273416  70.5698262   6.1310403
  52.1017168  70.3473444   5.3983596  52.1144398  70.6386957   6.8839004
  60.5852993  76.4571989   6.9374780  61.0984875  77.0901981   7.4396489
  61.2354217  75.8573185   6.5718140  51.8543003  72.6002723   0.1506288
  51.0180315  72.9377410   0.4715563  51.7147772  72.4651703  -0.7866575
  53.8296083  67.4439511   4.8585473  53.1760496  67.1288528   4.2342087
  53.7876558  66.8215252   5.5845296  54.9407288  77.7258806  -3.2261235
  54.0334350  77.4948060  -3.0270086  55.4378320  76.9296426  -3.0387254
  57.0633824  73.9321445   9.1833120  56.1456385  74.1536392   9.0254808
  57.4793967  74.0067755   8.3244828  57.8468872  75.3312860   4.3135800
  58.5940690  75.8434258   4.0042923  58.1160461  75.0096913   5.1740194
  56.1195522  77.8271401   1.2962755  55.2106741  77.5430434   1.3935225
  56.1490606  78.2470480   0.4366062  61.3514789  81.4377991   5.0653922
  60.8977116  80.5968901   5.1219113  60.7208756  82.0739389   5.4028702
  60.2947709  72.3669977   6.2954590  59.5570466  71.8547363   6.6264832
  60.5474482  71.9270358   5.4837867  59.7947728  83.2754487   6.0003740
  60.0870703  83.8359545   5.2816106  60.3046349  83.5683048   6.7556900
  60.3959336  65.1446229   6.8896359  60.7018213  64.2843592   6.6022274
  61.1211941  65.7363849   6.6895353  46.6883692  75.5476915   5.2777957
  46.4908092  74.9546276   4.5529024  46.1330356  75.2429126   5.9953896
  54.6680416  75.4400022   7.3972550  54.7229026  74.4873858   7.3215027
  53.8571618  75.5959461   7.8813849  55.8171610  79.3680145  -1.3649167
  55.3791039  78.6516004  -1.8243529  56.5582050  79.5956260  -1.9264075
  52.6072776  74.0577082   5.1562929  51.7940641  74.3571252   5.5628121
  53.1031770  73.6632770   5.8737411  54.7581354  84.0534838   7.0897194
  54.7157532  84.2795685   6.1605726  55.6744052  83.8198213   7.2382995
  58.2046987  74.5218906  13.9877823  58.5596375  74.7490379  14.8472289
  58.8519119  74.8537283  13.3655078  63.9344724  77.6437342   4.6927152
  63.7962623  77.8338938   3.7648341  63.5780943  78.4056725   5.1495203
  52.0986850  71.6295437  10.7724164  52.7386230  71.4884196  10.0747127
  51.2664381  71.3429950  10.3962766  63.9614104  79.7113869   9.7038423
  64.3950611  79.6189158  10.5521477  64.6745685  79.6871369   9.0658439
  52.8747154  80.9297867   6.8859156  53.6687753  80.4348188   6.6841731
  52.1638847  80.4015731   6.5226862  57.6941999  83.3115963  11.2371524
  57.7479021  83.8806899  12.0049240  56.8256780  83.4817848  10.8725561
  49.1829918  75.0740949   2.9618909  48.2527506  75.0125405   3.1788871
  49.2787390  74.5516902   2.1655550  49.1015467  71.5995762   5.5497151
  49.3622284  72.5141095   5.4406311  49.9232639  71.1320205   5.6993764
  50.5740392  73.0133519  12.7195975  51.2463446  72.8050881  12.0708624
  49.7470179  72.8155605  12.2801208  64.8229653  79.7537570  12.2371309
  65.0165544  80.6583380  12.4830584  64.7230272  79.2944989  13.0709894
  56.4765964  69.6395460  14.7361636  55.8293879  70.3385410  14.6426113
  57.2466980  70.0731604  15.1037884  59.8844762  79.9044312  17.8112189
  59.7330269  79.6754864  16.8942273  59.8749442  80.8614914  17.8243534
  56.6530099  77.4776225  12.7958456  57.5822159  77.6287385  12.6227423
  56.2321129  77.5660246  11.9407102  55.4518430  81.5026889  10.5656994
  55.3129516  81.1345674  11.4382932  54.6633027  82.0174529  10.3940951
  56.0466582  86.6035986   1.9082530  56.2218338  86.1324029   2.7228153
  55.3599370  87.2301752   2.1363791  57.0023645  80.8808492   7.9545831
  56.6673478  80.8409262   8.8503481  56.5027591  80.2153208   7.4816242
  50.9767889  76.2876122  13.4798412  50.8387687  75.5556361  14.0809951
  51.8872813  76.1985022  13.1982600  59.9382837  78.2264527  -1.7717109
  59.3212008  77.5011355  -1.8684056  59.4699326  78.9873887  -2.1150035
  53.6050190  75.9996082  12.9682092  54.3149809  75.3589274  12.9268711
  53.5619498  76.2508976  13.8908273  61.5936969  82.9363435  15.8888671
  61.5349515  82.2522655  15.2219254  61.9956487  83.6782425  15.4369297
  52.3179124  72.9861299  14.7877732  51.7816481  72.5352038  15.4399328
  51.7295833  73.1207208  14.0448196  50.6127668  89.7525349   8.6822390
  50.8524266  90.3843873   9.3601409  49.7696864  89.4013389   8.9687749
  51.7281383  72.4449951  -2.6495805  50.8510849  72.3238752  -3.0133558
  52.2039136  71.6536029  -2.9016916  61.5954376  80.9003019  14.1202651
  60.7081155  80.5628941  14.2429050  62.1652927  80.1686050  14.3571416
  43.2483523  77.2327111   7.4445702  43.9354563  76.9188841   6.8566718
  43.0931652  78.1368475   7.1712954  48.0518245  72.1217307  11.8730726
  47.9676434  71.5142977  11.1381136  47.2300952  72.6126325  11.8740222
  55.1255529  85.5604471  11.0863894  55.0525701  86.3659443  11.5983199
  54.6832923  85.7596437  10.2611916  54.9145309  84.7976241   4.5966716
  54.1312831  85.3397921   4.6904940  55.6138054  85.3150221   4.9960957
  58.2241959  70.6070871   7.2400921  58.7210659  69.8540833   6.9201991
  57.4528941  70.6435187   6.6744130  66.0771717  76.3111236   8.8819213
  66.0661593  77.1935952   8.5113146  65.2089096  75.9582787   8.6873750
  57.5854213  85.4591305  13.2422053  58.2982185  86.0938770  13.1697954
  57.0944242  85.5555171  12.4262055  59.3071740  79.3642558   4.8139345
  58.3728019  79.4844020   4.6444049  59.4848408  78.4615025   4.5499354
  54.8076928  72.7488254   6.9672606  54.4374715  72.1959294   7.6553511
  55.3036020  72.1446387   6.4147606  62.6944291  75.2059877   5.3489379
  63.1604743  76.0387869   5.2749681  63.1451792  74.7404859   6.0534637
  52.6366127  83.2085749  14.0627624  53.3375586  83.8422232  14.2157018
  52.1661242  83.5500480  13.3023263  60.7620522  81.5503698   2.3475531
  61.0380366  81.4360293   3.2569405  59.8925021  81.1521183   2.3087704
  60.6660954  67.5740464   9.3880280  59.7524034  67.8044691   9.5562487
  61.0954055  67.6578908  10.2394312  60.4367412  75.7630356  11.8880174
  59.7838863  76.0106264  11.2332627  60.8147792  74.9494494  11.5542651
  57.3974586  85.7990049   5.9908344  57.5796981  84.9811705   6.4536097
  58.2207572  86.0157742   5.5533234  57.7316752  84.7258234   3.2523393
  58.2604518  84.2150689   2.6393555  57.9944971  84.4100765   4.1168926
  56.4854986  76.5050167  18.3746211  55.8095623  76.4044296  19.0448586
  57.3082619  76.3489381  18.8382208  48.2333845  82.7422104  10.9958726
  48.8187281  81.9965792  11.1286631  48.0358683  83.0526060  11.8795390
  51.0872500  85.7773351   6.0121169  50.4182875  86.2619479   5.5285209
  50.9485369  86.0242572   6.9264547  42.8251499  75.3127704   9.7163169
  42.8635599  74.7791295  10.5100288  42.3191792  74.7862909   9.0974147
  55.2277768  87.8117095  12.6103827  55.7796076  87.9748716  13.3752912
  55.5683962  88.4021532  11.9383852  50.2042262  70.1592244  13.2125712
  50.2683588  71.0207075  12.8003109  50.1409382  69.5466246  12.4798070
  49.6794534  72.2315377  16.8598746  50.3066573  71.8492454  17.4736270
  48.8222453  72.0129579  17.2254439  60.0788643  82.6378352  18.4652482
  60.6228547  83.2508310  17.9707436  59.4975488  83.1957931  18.9819495
  46.4560077  74.0391806   2.7917101  46.7513518  73.1302484   2.7384155
  45.5548113  74.0179546   2.4698103  58.3646156  85.7599070   9.5967509
  58.2397295  84.9588810   9.0878455  59.0225247  86.2545264   9.1081479
  49.9854324  72.1147803   8.7744649  49.2640910  72.7283770   8.6352123
  50.7747580  72.6505567   8.6961295  60.4281064  83.5608090  11.2247059
  59.4811400  83.4413441  11.1525386  60.7763837  82.6730588  11.3073321
  52.7880637  69.4502229  15.0485301  53.3115039  69.6964526  15.8111611
  52.5692971  70.2822264  14.6288439  48.1847918  71.7205904   2.9156426
  47.8560625  70.8403283   2.7331532  48.5387289  71.6653572   3.8032815
  57.4327497  83.3560806   7.4251412  57.2852460  82.4277514   7.6058982
  58.2580991  83.3780897   6.9408487  51.2989742  72.0078874   3.2831904
  51.6385814  72.5364795   2.5610512  51.7461862  72.3459280   4.0590470
  61.0361619  84.1789365   8.5116284  61.9608167  83.9732227   8.3740735
  60.8676923  83.9305766   9.4205626  53.9933182  70.3915924  12.7334972
  53.6530003  69.5923737  13.1355652  53.2872189  70.6917635  12.1611805
  54.6449654  67.4765237  11.1862295  55.4675724  67.0025715  11.0641185
  54.8887718  68.2555720  11.6860981  53.2857889  70.5053495   1.4825196
  54.0066251  70.8834748   0.9788913  52.6623193  71.2242372   1.5860174
  57.4289012  71.2098644   2.4183529  57.6452626  72.0923282   2.1172357
  56.9483079  70.8184857   1.6889171  52.1688233  74.1684357   8.9954273
  52.0232814  74.4824660   9.8878555  51.6913437  74.7869258   8.4425172
  54.0284616  71.1586905   9.0435163  54.0146185  70.2627999   8.7067461
  54.7457044  71.1657569   9.6773449  55.8810747  71.5924246  11.0888290
  55.6228524  72.5141316  11.0872621  55.3495787  71.1954680  11.7788755
  60.8256935  84.6975033   3.8678376  60.9993813  84.1321455   3.1152228
  61.3185827  85.4975928   3.6857866  46.6433895  76.7089702  11.9341935
  46.0987363  77.4849510  12.0662209  47.5213245  77.0560506  11.7761056
  53.4321512  70.0401286   4.3122733  53.5537423  69.1117932   4.5113621
  53.1423554  70.0539972   3.4001049  56.3012702  67.7256196   7.4489453
  56.3234399  67.7895529   6.4941432  56.7180761  66.8860705   7.6429959
  66.6796327  77.4611456   5.4868676  67.1227473  76.7118781   5.0887799
  65.8022837  77.4521592   5.1042408  61.8132108  84.0141797   0.9675274
  62.5083013  84.6348490   1.1862589  62.1555258  83.1637148   1.2427652
  47.4299917  75.8359598  14.8272091  46.6881653  75.9842233  15.4136722
  47.1092661  76.0967864  13.9638841  63.7123531  81.4641503   2.4962605
  64.2374855  81.8028775   1.7711925  63.6245884  80.5288518   2.3125739
  55.3743580  85.3775576  14.6252481  55.6830706  85.1324723  15.4975181
  56.1719062  85.5822215  14.1371352  55.3964192  87.5313486   6.8557858
  54.9569182  87.0389865   7.5490715  56.1472309  86.9886454   6.6149933
  47.8756531  83.7225027   6.8582486  48.7014551  83.4228799   6.4781130
  47.5250583  82.9532649   7.3072275  52.8438064  83.0751495   8.9280160
  52.2218073  82.4122200   8.6282388  53.5142931  83.1012627   8.2453807
  46.0765136  81.6411353   7.8171420  45.2397044  81.2133528   7.6355421
  46.0488781  81.8343797   8.7542211  52.9162591  71.5533283  18.5212666
  52.9650747  72.4295406  18.1390435  53.4585106  71.0110676  17.9484309
  63.4017437  82.0974406  17.8013803  62.6112981  82.0798545  17.2618302
  63.1650792  82.6362700  18.5562839  63.5215312  78.9466873  15.1146531
  63.5713317  78.7816880  16.0562054  63.4129235  78.0794132  14.7244412
  52.4051571  81.6255418   2.4038620  52.5539691  82.3090883   1.7505293
  53.2118014  81.6060508   2.9188076  60.8119075  74.9297801  16.4305838
  61.7128937  74.7904265  16.1389836  60.8867049  75.0952255  17.3704015
  55.1461880  72.3064655  15.2759024  54.2765189  72.5998221  15.0041613
  55.3821360  72.8905100  15.9966288  65.0233509  81.3663814  15.3588553
  64.7318317  81.7293795  16.1952014  64.4105640  80.6530822  15.1801885
  66.2229191  78.9316694   7.8791123  67.0576083  79.3706498   8.0428683
  66.3588320  78.4555347   7.0599369  63.2720697  76.4896429  13.8268611
  63.7474819  76.6824075  13.0187462  62.3486263  76.5455615  13.5811995
  50.1604204  77.6520596   3.4099689  49.9150246  76.7482926   3.6079899
  50.3300118  77.6537746   2.4679167  57.8500914  68.5244272  12.7924445
  58.3682858  69.2605299  12.4670933  57.4956046  68.8308266  13.6271204
  49.4299851  73.3848953   0.9085851  48.7369096  73.4593308   0.2525887
  49.1851603  72.6209297   1.4307368  58.1013508  64.9444555   8.3125341
  58.3815262  64.2767744   8.9385768  58.8864115  65.1373650   7.8000005
  55.9046976  84.1203549  -0.1249632  55.3320943  84.7393736  -0.5779160
  56.4779770  84.6702910   0.4090290  61.9722366  73.3662189  12.0596916
  62.9239789  73.4660286  12.0809140  61.8025817  72.5740457  12.5695001
  59.9936746  70.4517772  12.2456317  59.3986678  70.7322785  11.5502806
  59.7086442  70.9411673  13.0173058  59.1244236  84.4040699   1.0058950
  60.0574909  84.3386261   1.2091825  59.0367449  85.2396966   0.5473483
  64.4510444  76.5868309  11.1739216  64.4186764  75.6484309  11.3598900
  65.0611068  76.6652345  10.4405041  56.2893775  75.4564361  -2.7833580
  57.2352880  75.3270570  -2.7145162  55.9108020  74.7179023  -2.3064152
  64.6004932  73.3779352  11.2197499  64.0843981  72.5937809  11.0327428
  65.4844881  73.0498069  11.3844019  62.2615659  67.1220368   7.1793312
  62.0640481  66.8135456   8.0636644  62.8715365  67.8482006   7.3091242
  70.2686994  77.6484315  10.3145253  70.9990382  77.3869603  10.8752956
  69.6593939  76.9113037  10.3547321  68.3502291  75.7892178  10.9119704
  67.6235455  75.6548143  10.3036196  67.9349578  76.0969007  11.7176422
  56.1732467  79.5082108  18.6767077  57.0935477  79.6860707  18.8707124
  56.1382050  78.5638153  18.5246776  54.4736692  73.3814338  -2.8478695
  53.5668147  73.0847451  -2.7715981  54.7512673  73.0844156  -3.7144408
  45.3914632  74.7020701   7.6020352  45.0717417  73.8486009   7.3094726
  44.8448061  74.9169279   8.3578319  49.1694540  77.4183142  11.3189858
  49.3880550  78.3500250  11.3377892  49.5820314  77.0591117  12.1044662
  56.0898758  67.9251228   3.3065547  55.2799486  67.5798313   3.6820793
  56.7783175  67.6158771   3.8953158  58.0189306  67.0029274   4.9289843
  58.5720345  67.4224728   5.5879866  58.2559392  66.0765022   4.9712799
  54.0422405  72.9916348  20.7092607  53.9419132  73.9410705  20.6404698
  53.8243947  72.6634587  19.8368677  53.2435477  70.2401273  -2.7066715
  54.1054641  70.5656171  -2.4470898  53.4285821  69.4532769  -3.2193650
  45.2602892  78.3223613   9.5713473  44.5666364  77.9077566   9.0583428
  46.0075883  78.3644149   8.9746892  61.3968113  69.1129800   4.4368508
  60.8166782  69.7714604   4.0546560  61.1304046  68.2907144   4.0255925
  59.8471679  68.5134857   6.6389828  60.3471458  68.6251392   5.8304147
  60.4907287  68.2095910   7.2790636  53.9053675  76.4213487  19.5257669
  53.4220757  77.2213847  19.7321558  53.9914614  76.4321432  18.5725113
  47.1739635  78.2541867   7.4479488  47.1510323  78.3529554   6.4961371
  47.4840271  79.1007017   7.7696654  49.8327013  80.3118022  11.5626103
  50.7870266  80.2801964  11.4956034  49.6339536  79.8508645  12.3776329
  50.4226395  78.8819138  14.1296900  51.2419284  79.3763216  14.1531738
  50.6963203  77.9651106  14.1014468  60.1792991  71.2729890   3.4924856
  59.2918846  71.5579541   3.2745051  60.5946980  71.1123653   2.6452133
  63.5307527  71.2976411   7.2079195  64.3067917  71.7872863   7.4803812
  62.8055661  71.7234465   7.6651065  65.9680086  72.0104030   8.2653136
  66.5624577  71.7699766   7.5546444  66.0406670  71.2911161   8.8926672
  48.1877242  85.8537641   8.5796301  48.0531710  85.0938042   8.0134299
  47.7709304  86.5778541   8.1125089  59.3236205  81.0374565  -2.4127124
  60.0272055  81.2424567  -1.7969469  58.5998853  81.6051326  -2.1478041
  60.1534015  76.7884426   3.7075146  60.0969216  77.2452977   2.8682778
  60.7062357  76.0275110   3.5297989  63.9638821  72.5774158   4.5325265
  63.7075755  72.1770793   5.3633473  63.3391689  73.2917952   4.4075405
  68.2751159  75.3170231   7.0396557  67.7150717  75.3863420   7.8128119
  67.6694662  75.1411216   6.3196053  51.3446367  86.7506958   8.7914743
  51.2278752  87.6952391   8.6893433  50.5238814  86.4480520   9.1800542
  61.2322902  81.4757094  -0.3628664  62.0668506  81.0438292  -0.5451189
  61.0707245  81.3039107   0.5648230  60.8868794  77.9789207   1.0027675
  60.8317598  77.8133479   0.0616119  60.2614849  78.6865240   1.1589865
  45.6761309  73.2157271  14.8289097  46.3220173  72.7056225  15.3176323
  45.4678460  73.9525953  15.4032523  58.2014701  80.2838119  20.3281238
  59.0705861  80.4578771  19.9667873  57.7221453  81.1032536  20.2056967
  54.1964920  67.4797316   0.5812994  54.1843589  68.4239156   0.7381264
  55.0888341  67.2967462   0.2872455  52.3700882  87.4035220  12.0070672
  53.2728128  87.4358830  12.3237167  52.1438252  86.4735671  12.0217007
  54.1254484  86.1566207   8.6680750  53.1750115  86.1568068   8.5545122
  54.4286970  85.4098941   8.1516785  58.0117039  64.0740093   4.8358930
  57.2449435  63.5198579   4.9815613  58.4227744  64.1461962   5.6973082
  50.0158800  70.3624889  18.9264112  50.8790262  70.0061693  19.1367436
  49.4424211  70.0238783  19.6139516  69.8607177  91.9926745   9.7326513
  70.4985587  91.8733492   9.0289853  69.7428020  92.9407589   9.7914465
  66.6696883  91.9454173   9.6688037  66.3315395  91.8295238   8.7808572
  67.5386652  91.5445338   9.6489043  67.1516666  93.0989025  15.6274243
  67.1405307  92.7041823  14.7554746  67.3137306  92.3655097  16.2208014
  60.0748131  95.2940841   8.4969149  60.8669423  94.9531666   8.0815448
  60.3144781  95.4035816   9.4171302  63.8723927  95.8826137  14.5753427
  63.5813793  96.7871767  14.4600093  64.5080912  95.9242664  15.2897496
  64.7980134  93.2602985  11.1654786  65.3943707  93.0359007  10.4511749
  64.8555106  92.5187731  11.7680234  69.4148446  89.7178199   6.8079721
  70.2011535  89.2997622   6.4570138  69.6787150  90.6224291   6.9761369
  72.3382293  83.3675006  12.1707308  72.0065618  84.2370417  11.9468523
  71.7427906  83.0511290  12.8501338  68.8313813  95.5687552  11.5703220
  68.5314536  96.4712591  11.4619028  68.4864872  95.3019735  12.4224373
  62.2826294  92.0201349   7.6039925  61.3576791  91.8877563   7.8117617
  62.5310707  92.7995568   8.1009867  72.2310956  88.0870092   9.2500658
  71.3227834  88.0185501   8.9559419  72.1798552  88.5642037  10.0782483
  59.6435105  91.6634622   8.4383714  59.7727486  91.9169101   9.3523126
  58.9632556  92.2562330   8.1188369  66.3051822  89.5059738  17.1935555
  65.5285156  90.0653658  17.1838420  66.9442385  89.9916521  17.7150425
  74.0972603  86.2886531  11.0278532  73.4546983  86.5819064  10.3818326
  73.5927531  86.1739451  11.8331728  64.5598194  92.3145191  16.7553522
  65.3012879  92.8530235  16.4788346  63.8535180  92.9411480  16.9125074
  70.0353534  94.4574332  15.3525684  70.4436890  94.0156742  14.6080316
  69.3130796  93.8826959  15.6059876  66.3884604  89.3946938  12.7259241
  67.2345799  89.8186352  12.8693890  66.3283242  88.7380563  13.4197804
  69.5384049  87.0551307  14.3840414  69.2944981  87.8093367  13.8474690
  69.8143980  87.4336654  15.2187661  71.4922512  93.5989919  13.0617680
  71.7039407  94.2421679  12.3852061  71.4452260  92.7652236  12.5939610
  69.0948741  86.2107740   9.9654252  68.2333220  86.5088993  10.2570989
  69.1211176  86.4278139   9.0335285  62.8034392  94.3021412   9.3107821
  63.3735749  94.7308680   8.6725305  63.3942504  94.0203997  10.0092006
  63.2959558  89.4684839  17.5568832  62.6658219  90.1501120  17.7904229
  63.1895646  89.3567921  16.6121970  58.5904531  89.1356635   8.4834756
  57.8003585  89.3914164   8.0074867  59.0815778  89.9504973   8.5886797
  60.5419276  89.5001215   5.4418233  59.7450439  89.6119909   5.9601729
  60.3144868  89.8387867   4.5759123  66.3724944  96.0245918  13.3900748
  66.4369376  96.4866325  14.2258919  65.6635868  95.3943283  13.5183057
  56.8742234  89.3887126  10.9149747  57.1250272  90.2734136  11.1807323
  57.4101782  89.2091727  10.1424839  62.5740301  83.7705605  19.9194083
  62.1807246  83.2171804  20.5941727  63.3906441  84.0816184  20.3100601
  65.4908262  85.1863484  17.5114340  66.2317975  85.7870637  17.4318802
  65.7226185  84.4441122  16.9532382  60.6349600  90.3719852  15.7892569
  60.5203115  89.4705109  16.0899668  59.7794118  90.6183548  15.4377386
  67.7141438  98.3137592  17.3880070  67.2705292  97.5273970  17.0700974
  68.3758651  98.5016742  16.7223961  62.4728559  99.8433393  11.9140749
  63.0235984  99.7150457  11.1417742  61.6340035 100.1428282  11.5635641
  69.8122676  98.5940392  15.4161471  69.7941151  99.4149273  14.9241740
  70.7342596  98.4694467  15.6411612  66.2695730  96.1084521  16.2584980
  66.8024067  95.3472809  16.0284288  65.7409811  95.8158173  17.0009134
  69.4365425  81.2144587  11.7878621  69.0929694  82.1046229  11.7117732
  69.8044387  81.0246245  10.9248206  57.5051275  93.5378118   4.6067224
  58.3426497  93.9475126   4.3900931  57.6829543  92.5977560   4.5767417
  66.9862819  86.0502899   5.3536295  66.1304415  85.6609750   5.1741934
  67.3989770  86.1294860   4.4936080  68.5161965  83.5849242   9.7527855
  68.0126761  83.5479378   8.9395660  68.8092572  84.4941985   9.8124511
  64.7604851  83.6687972   8.7594036  65.6257848  83.4730781   8.3999926
  64.8282360  83.4398324   9.6863393  62.3667170  85.8990180   6.1310403
  62.9410922  85.6765362   5.3983596  62.9538153  85.9678875   6.8839004
  64.6689838  82.7731429   4.8585473  64.0154250  82.4580446   4.2342087
  64.6270312  82.1507169   5.5845296  67.9027578  89.2613362   9.1833120
  66.9850140  89.4828309   9.0254808  68.3187722  89.3359673   8.3244828
  71.2353091  80.4738146   6.8896359  71.5411967  79.6135510   6.6022274
  71.9605695  81.0655767   6.6895353  57.5277447  90.8768833   5.2777957
  57.3301846  90.2838194   4.5529024  56.9724111  90.5721043   5.9953896
  65.5074170  90.7691939   7.3972550  65.5622780  89.8165776   7.3215027
  64.6965372  90.9251379   7.8813849  63.4466530  89.3868999   5.1562929
  62.6334396  89.6863170   5.5628121  63.9425524  88.9924688   5.8737411
  69.0440742  89.8510824  13.9877823  69.3990130  90.0782297  14.8472289
  69.6912873  90.1829200  13.3655078  62.9380605  86.9587355  10.7724164
  63.5779984  86.8176114  10.0747127  62.1058135  86.6721868  10.3962766
  68.5335753  98.6407881  11.2371524  68.5872776  99.2098817  12.0049240
  67.6650535  98.8109766  10.8725561  59.9409221  86.9287680   5.5497151
  60.2016039  87.8433013   5.4406311  60.7626394  86.4612122   5.6993764
  61.4134147  88.3425437  12.7195975  62.0857200  88.1342799  12.0708624
  60.5863933  88.1447523  12.2801208  67.3159719  84.9687378  14.7361636
  66.6687634  85.6677327  14.6426113  68.0860734  85.4023522  15.1037884
  70.7238517  95.2336230  17.8112189  70.5724023  95.0046782  16.8942273
  70.7143196  96.1906831  17.8243534  67.4923853  92.8068143  12.7958456
  68.4215913  92.9579302  12.6227423  67.0714883  92.8952164  11.9407102
  66.2912185  96.8318807  10.5656994  66.1523271  96.4637592  11.4382932
  65.5026781  97.3466447  10.3940951  61.8161644  91.6168040  13.4798412
  61.6781442  90.8848279  14.0809951  62.7266567  91.5276940  13.1982600
  64.4443945  91.3287999  12.9682092  65.1543563  90.6881191  12.9268711
  64.4013253  91.5800894  13.8908273  72.4330723  98.2655353  15.8888671
  72.3743269  97.5814573  15.2219254  72.8350242  99.0074343  15.4369297
  63.1572879  88.3153217  14.7877732  62.6210236  87.8643956  15.4399328
  62.5689587  88.4499126  14.0448196  72.4348131  96.2294936  14.1202651
  71.5474909  95.8920858  14.2429050  73.0046682  95.4977968  14.3571416
  54.0877278  92.5619028   7.4445702  54.7748318  92.2480758   6.8566718
  53.9325406  93.4660393   7.1712954  58.8912000  87.4509225  11.8730726
  58.8070189  86.8434894  11.1381136  58.0694706  87.9418243  11.8740222
  69.0635714  85.9362788   7.2400921  69.5604413  85.1832751   6.9201991
  68.2922695  85.9727105   6.6744130  68.4247967 100.7883223  13.2422053
  69.1375940 101.4230688  13.1697954  67.9337996 100.8847089  12.4262055
  65.6470682  88.0780171   6.9672606  65.2768470  87.5251212   7.6553511
  66.1429775  87.4738305   6.4147606  63.4759881  98.5377666  14.0627624
  64.1769341  99.1714149  14.2157018  63.0054996  98.8792398  13.3023263
  71.5054708  82.9032382   9.3880280  70.5917788  83.1336609   9.5562487
  71.9347810  82.9870826  10.2394312  71.2761167  91.0922274  11.8880174
  70.6232617  91.3398181  11.2332627  71.6541547  90.2786412  11.5542651
  67.3248740  91.8342085  18.3746211  66.6489377  91.7336214  19.0448586
  68.1476374  91.6781299  18.8382208  59.0727599  98.0714021  10.9958726
  59.6581036  97.3257709  11.1286631  58.8752438  98.3817978  11.8795390
  53.6645254  90.6419622   9.7163169  53.7029353  90.1083212  10.5100288
  53.1585547  90.1154827   9.0974147  61.0436016  85.4884162  13.2125712
  61.1077343  86.3498993  12.8003109  60.9803136  84.8758164  12.4798070
  60.5188289  87.5607295  16.8598746  61.1460327  87.1784372  17.4736270
  59.6616207  87.3421497  17.2254439  70.9182397  97.9670270  18.4652482
  71.4622301  98.5800228  17.9707436  70.3369242  98.5249848  18.9819495
  57.2953831  89.3683724   2.7917101  57.5907272  88.4594402   2.7384155
  56.3941867  89.3471463   2.4698103  60.8248078  87.4439720   8.7744649
  60.1034664  88.0575688   8.6352123  61.6141334  87.9797485   8.6961295
  63.6274392  84.7794147  15.0485301  64.1508794  85.0256443  15.8111611
  63.4086725  85.6114182  14.6288439  59.0241673  87.0497821   2.9156426
  58.6954379  86.1695200   2.7331532  59.3781044  86.9945490   3.8032815
  62.1383496  87.3370791   3.2831904  62.4779569  87.8656712   2.5610512
  62.5855617  87.6751197   4.0590470  64.8326937  85.7207842  12.7334972
  64.4923757  84.9215655  13.1355652  64.1265943  86.0209553  12.1611805
  65.4843409  82.8057154  11.1862295  66.3069478  82.3317633  11.0641185
  65.7281472  83.5847638  11.6860981  63.0081988  89.4976275   8.9954273
  62.8626568  89.8116578   9.8878555  62.5307191  90.1161175   8.4425172
  64.8678370  86.4878823   9.0435163  64.8539939  85.5919916   8.7067461
  65.5850799  86.4949487   9.6773449  66.7204501  86.9216163  11.0888290
  66.4622279  87.8433234  11.0872621  66.1889542  86.5246598  11.7788755
  57.4827650  92.0381619  11.9341935  56.9381118  92.8141427  12.0662209
  58.3607000  92.3852424  11.7761056  64.2715266  85.3693203   4.3122733
  64.3931178  84.4409849   4.5113621  63.9817309  85.3831889   3.4001049
  67.1406457  83.0548114   7.4489453  67.1628154  83.1187447   6.4941432
  67.5574516  82.2152622   7.6429959  58.2693672  91.1651516  14.8272091
  57.5275408  91.3134151  15.4136722  57.9486416  91.4259781  13.9638841
  66.2137334 100.7067494  14.6252481  66.5224461 100.4616641  15.4975181
  67.0112816 100.9114132  14.1371352  56.9158890  96.9703271   7.8171420
  56.0790799  96.5425445   7.6355421  56.8882536  97.1635714   8.7542211
  63.7556346  86.8825201  18.5212666  63.8044501  87.7587323  18.1390435
  64.2978860  86.3402594  17.9484309  74.2411192  97.4266324  17.8013803
  73.4506735  97.4090463  17.2618302  74.0044546  97.9654618  18.5562839
  74.3609067  94.2758790  15.1146531  74.4107072  94.1108798  16.0562054
  74.2522990  93.4086049  14.7244412  71.6512829  90.2589718  16.4305838
  72.5522692  90.1196183  16.1389836  71.7260804  90.4244173  17.3704015
  65.9855634  87.6356573  15.2759024  65.1158944  87.9290139  15.0041613
  66.2215115  88.2197018  15.9966288  75.8627263  96.6955732  15.3588553
  75.5712072  97.0585712  16.1952014  75.2499395  95.9822740  15.1801885
  74.1114452  91.8188346  13.8268611  74.5868573  92.0115993  13.0187462
  73.1880017  91.8747532  13.5811995  68.6894668  83.8536190  12.7924445
  69.2076612  84.5897217  12.4670933  68.3349801  84.1600183  13.6271204
  68.9407262  80.2736472   8.3125341  69.2209016  79.6059662   8.9385768
  69.7257869  80.4665568   7.8000005  72.8116121  88.6954106  12.0596916
  73.7633544  88.7952204  12.0809140  72.6419571  87.9032375  12.5695001
  70.8330500  85.7809690  12.2456317  70.2380432  86.0614702  11.5502806
  70.5480197  86.2703591  13.0173058  75.2904198  91.9160226  11.1739216
  75.2580519  90.9776227  11.3598900  75.9004822  91.9944263  10.4405041
  75.4398687  88.7071270  11.2197499  74.9237736  87.9229726  11.0327428
  76.3238635  88.3789986  11.3844019  73.1009414  82.4512285   7.1793312
  72.9034235  82.1427373   8.0636644  73.7109119  83.1773924   7.3091242
  67.0126222  94.8374025  18.6767077  67.9329231  95.0152624  18.8707124
  66.9775805  93.8930071  18.5246776  56.2308387  90.0312619   7.6020352
  55.9111171  89.1777927   7.3094726  55.6841815  90.2461197   8.3578319
  60.0088294  92.7475060  11.3189858  60.2274304  93.6792168  11.3377892
  60.4214068  92.3883034  12.1044662  66.9292512  83.2543145   3.3065547
  66.1193241  82.9090230   3.6820793  67.6176929  82.9450689   3.8953158
  68.8583060  82.3321192   4.9289843  69.4114099  82.7516645   5.5879866
  69.0953147  81.4056940   4.9712799  64.8816160  88.3208266  20.7092607
  64.7812887  89.2702623  20.6404698  64.6637702  87.9926505  19.8368677
  56.0996647  93.6515530   9.5713473  55.4060118  93.2369483   9.0583428
  56.8469638  93.6936067   8.9746892  70.6865434  83.8426775   6.6389828
  71.1865212  83.9543309   5.8304147  71.3301042  83.5387828   7.2790636
  64.7447430  91.7505405  19.5257669  64.2614511  92.5505765  19.7321558
  64.8308369  91.7613349  18.5725113  58.0133389  93.5833784   7.4479488
  57.9904078  93.6821471   6.4961371  58.3234026  94.4298935   7.7696654
  60.6720767  95.6409939  11.5626103  61.6264021  95.6093882  11.4956034
  60.4733291  95.1800563  12.3776329  61.2620149  94.2111055  14.1296900
  62.0813038  94.7055134  14.1531738  61.5356957  93.2943023  14.1014468
  74.3701282  86.6268329   7.2079195  75.1461672  87.1164781   7.4803812
  73.6449416  87.0526383   7.6651065  56.5155064  88.5449189  14.8289097
  57.1613927  88.0348143  15.3176323  56.3072215  89.2817871  15.4032523
  69.0408456  95.6130037  20.3281238  69.9099615  95.7870689  19.9667873
  68.5615207  96.4324453  20.2056967  63.2094636 102.7327138  12.0070672
  64.1121883 102.7650748  12.3237167  62.9832006 101.8027589  12.0217007
  68.8510794  79.4032010   4.8358930  68.0843189  78.8490497   4.9815613
  69.2621499  79.4753879   5.6973082  60.8552555  85.6916806  18.9264112
  61.7184016  85.3353611  19.1367436  60.2817965  85.3530701  19.6139516
  73.4134055  99.0997523  19.9194083  73.0201001  98.5463721  20.5941727
  74.2300196  99.4108101  20.3100601  76.3302016 100.5155402  17.5114340
  77.0711730 101.1162555  17.4318802  76.5619939  99.7733040  16.9532382
  71.3582043 102.8899212  16.8598746  71.9854082 102.5076290  17.4736270
  70.5009962 102.6713414  17.2254439  74.5950100 102.2117118  18.5212666
  74.6438256 103.0879241  18.1390435  75.1372615 101.6694511  17.9484309
  75.7209914 103.6500183  20.7092607  75.6206641 104.5994540  20.6404698
  75.5031456 103.3218422  19.8368677  67.3548818 103.8741107  14.8289097
  68.0007682 103.3640061  15.3176323  67.1465969 104.6109788  15.4032523
  71.6946309 101.0208724  18.9264112  72.5577771 100.6645529  19.1367436
  71.1211720 100.6822619  19.6139516  46.0353930  44.6615879   4.1125377
  45.5917784  43.8752258   3.7946281  46.6971144  44.8495030   3.4469267
  48.1335168  44.9418679   2.1406778  48.1153643  45.7627560   1.6487047
  49.0555088  44.8172754   2.3656919  49.0451009  41.5814517   4.5357496
  48.8936515  41.3525069   3.6187580  49.0355688  42.5385119   4.5488841
  50.7543216  44.6133640   2.6133978  50.6955762  43.9292860   1.9464561
  51.1562734  45.3552630   2.1614604  49.2394889  44.3148557   5.1897788
  49.7834793  44.9278515   4.6952743  48.6581734  44.8728135   5.7064801
  52.5623684  43.7744611   4.5259109  51.7719228  43.7568750   3.9863609
  52.3257038  44.3132905   5.2808146  54.1839756  43.0434019   2.0833859
  53.8924564  43.4064000   2.9197320  53.5711887  42.3301027   1.9047192
  47.3620948  41.9608324   7.0526545  48.2312108  42.1348976   6.6913179
  46.8827700  42.7802741   6.9302274  59.0213424  53.6696950  -3.5428181
  59.6591834  53.5503697  -4.2464841  58.9034267  54.6177794  -3.4840229
  55.8303130  53.6224378  -3.6066656  55.4921642  53.5065443  -4.4946121
  56.6992898  53.2215543  -3.6265650  56.3122913  54.7759230   2.3519549
  56.3011554  54.3812028   1.4800053  56.4743553  54.0425302   2.9453321
  49.2354378  56.9711046  -4.7785545  50.0275670  56.6301871  -5.1939245
  49.4751028  57.0806021  -3.8583391  53.0330174  57.5596341   1.2998733
  52.7420040  58.4641972   1.1845400  53.6687159  57.6012869   2.0142803
  53.9586381  54.9373190  -2.1099907  54.5549953  54.7129212  -2.8242944
  54.0161353  54.1957935  -1.5074459  63.9763119  51.3323637  -5.5641994
  64.7088291  50.7622854  -5.3304165  63.2202475  50.9445237  -5.1235489
  61.4988540  45.0445211  -1.1047386  61.1671865  45.9140622  -1.3286171
  60.9034153  44.7281495  -0.4253355  57.9920059  57.2457757  -1.7051473
  57.6920782  58.1482796  -1.8135666  57.6471119  56.9789940  -0.8530320
  61.3917203  49.7640297  -4.0254036  60.4834080  49.6955706  -4.3195275
  61.3404799  50.2412242  -3.1972210  52.9740839  64.0102077  -8.7380505
  52.8964869  64.9609902  -8.6592025  52.3702483  63.6647950  -8.0805579
  55.4658069  51.1829943   3.9180862  54.6891403  51.7423863   3.9083726
  56.1048632  51.6686726   4.4395732  63.2578850  47.9656736  -2.2476162
  62.6153230  48.2589269  -2.8936367  62.7533778  47.8509656  -1.4422965
  53.7204441  53.9915396   3.4798829  54.4619126  54.5300440   3.2033652
  53.0141427  54.6181685   3.6370381  59.1959781  56.1344537   2.0770990
  59.6043137  55.6926947   1.3325623  58.4737042  55.5597164   2.3305183
  55.5490851  51.0717143  -0.5495453  56.3952046  51.4956557  -0.4060804
  55.4889489  50.4150768   0.1443110  59.5188596  56.6945727  -4.1676721
  58.8897458  56.8591441  -4.8700653  59.1314258  57.1087337  -3.3965757
  63.3977827  57.6300165  -6.8132357  62.7128866  58.0099066  -7.3635324
  63.4821677  58.2395492  -6.0800409  58.6990296  48.7321512   1.1085721
  58.4551228  49.4863572   0.5719996  58.9750227  49.1106859   1.9432968
  60.6528759  55.2760124  -0.2137014  60.8645654  55.9191884  -0.8902633
  60.6058507  54.4422441  -0.6815084  55.0716557  56.4320135  -6.9026636
  55.5354903  56.7107838  -7.6922013  54.8073355  55.5303580  -7.0853545
  51.9640638  55.9791617  -3.9646873  52.5341996  56.4078885  -4.6029388
  52.5548750  55.6974202  -3.2662687  52.4565805  51.1455044   4.2814139
  51.8264466  51.8271325   4.5149536  52.3501893  51.0338126   3.3367277
  61.7674587  58.1532079  -2.0414656  62.5892031  57.7512267  -2.3231975
  61.7636990  58.0500314  -1.0898540  55.5331190  57.7016123   0.1146054
  55.5975623  58.1636530   0.9504226  54.8242114  57.0713488   0.2428364
  69.8580580  54.4970828  -5.6929685  69.1044288  53.9278226  -5.8485680
  69.9928121  54.4633492  -4.7459050  51.7346548  45.4475810   6.6439390
  51.3413493  44.8942009   7.3187034  52.5512688  45.7586389   7.0345907
  50.5103490  60.0025425  -7.3624287  50.6870118  60.9243389  -7.5503303
  51.3060324  59.6883844  -6.9329907  54.6514509  46.8633689   4.2359646
  55.3924222  47.4640842   4.1564109  54.8832432  46.1211327   3.6777689
  49.7955847  52.0490056   2.5137876  49.6809362  51.1475314   2.8144975
  48.9400364  52.2953753   2.1622693  56.8747684  59.9907797   4.1125377
  56.4311539  59.2044175   3.7946281  57.5364898  60.1786947   3.4469267
  51.6334806  61.5203598  -1.3613945  52.1842231  61.3920662  -2.1336951
  50.7946282  61.8198487  -1.7119052  58.9728923  60.2710597   2.1406778
  58.9547398  61.0919478   1.6487047  59.8948843  60.1464672   2.3656919
  55.4301977  57.7854726   2.9830286  55.9630313  57.0243014   2.7529594
  54.9016058  57.4928378   3.7254441  61.7747535  55.1089739  -4.3883855
  61.1171210  55.7989001  -4.3003727  62.5787935  55.4986171  -4.0449869
  60.5852994  53.4634112  -6.3379914  61.0984876  54.0964104  -5.8358204
  61.2354218  52.8635307  -6.7036554  57.0633825  50.9383567  -4.0921573
  56.1456386  51.1598514  -4.2499885  57.4793969  51.0129878  -4.9509866
  61.3514790  58.4440113  -8.2100771  60.8977118  57.6031023  -8.1535581
  60.7208757  59.0801512  -7.8725991  59.7947730  60.2816610  -7.2750953
  60.0870704  60.8421667  -7.9938587  60.3046350  60.5745171  -6.5197794
  54.7581355  61.0596961  -6.1857500  54.7157534  61.2857807  -7.1148968
  55.6744054  60.8260336  -6.0371699  58.2046989  51.5281029   0.7123130
  58.5596376  51.7552502   1.5717595  58.8519120  51.8599405   0.0900385
  63.9344726  54.6499465  -8.5827541  63.7962624  54.8401060  -9.5106352
  63.5780944  55.4118847  -8.1259490  63.9614105  56.7175992  -3.5716270
  64.3950612  56.6251281  -2.7233216  64.6745686  56.6933492  -4.2096254
  52.8747156  57.9359990  -6.3895537  53.6687754  57.4410310  -6.5912962
  52.1638848  57.4077853  -6.7527831  57.6942000  60.3178086  -2.0383169
  57.7479022  60.8869022  -1.2705453  56.8256781  60.4879971  -2.4029132
  50.5740393  50.0195642  -0.5558718  51.2463447  49.8113004  -1.2046069
  49.7470180  49.8217728  -0.9953486  64.8229655  56.7599692  -1.0383385
  65.0165545  57.6645503  -0.7924110  64.7230273  56.3007111  -0.2044800
  56.4765965  46.6457583   1.4606943  55.8293881  47.3447532   1.3671419
  57.2466981  47.0793727   1.8283191  59.8844763  56.9106435   4.5357496
  59.7330270  56.6816987   3.6187580  59.8749443  57.8677036   4.5488841
  56.6530100  54.4838348  -0.4796237  57.5822160  54.6349507  -0.6527270
  56.2321130  54.5722368  -1.3347591  55.4518432  58.5089012  -2.7097700
  55.3129517  58.1407796  -1.8371762  54.6633028  59.0236652  -2.8813742
  56.0466584  63.6098109 -11.3672163  56.2218339  63.1386152 -10.5526541
  55.3599372  64.2363875 -11.1390903  57.0023647  57.8870615  -5.3208862
  56.6673479  57.8471385  -4.4251212  56.5027592  57.2215331  -5.7938452
  50.9767891  53.2938245   0.2043719  50.8387689  52.5618484   0.8055258
  51.8872814  53.2047145  -0.0772093  53.6050191  53.0058204  -0.3072601
  54.3149810  52.3651396  -0.3485983  53.5619500  53.2571099   0.6153580
  61.5936970  59.9425557   2.6133978  61.5349516  59.2584778   1.9464561
  61.9956488  60.6844547   2.1614604  52.3179125  49.9923422   1.5123038
  51.7816482  49.5414160   2.1644635  51.7295834  50.1269331   0.7693503
  50.6127669  66.7587471  -4.5932303  50.8524267  67.3905995  -3.9153285
  49.7696865  66.4075511  -4.3066944  61.5954377  57.9065141   0.8447958
  60.7081156  57.5691063   0.9674356  62.1652928  57.1748173   1.0816723
  55.1255531  62.5666594  -2.1890799  55.0525702  63.3721565  -1.6771495
  54.6832924  62.7658560  -3.0142778  54.9145310  61.8038364  -8.6787978
  54.1312832  62.3460044  -8.5849753  55.6138056  62.3212343  -8.2793736
  66.0771718  53.3173359  -4.3935481  66.0661594  54.1998074  -4.7641548
  65.2089097  52.9644910  -4.5880944  57.5854214  62.4653428  -0.0332641
  58.2982186  63.1000893  -0.1056739  57.0944243  62.5617294  -0.8492639
  59.3071741  56.3704680  -8.4615349  58.3728020  56.4906143  -8.6310645
  59.4848410  55.4677147  -8.7255339  62.6944292  52.2122000  -7.9265315
  63.1604745  53.0449991  -8.0005012  63.1451793  51.7466981  -7.2220056
  52.6366128  60.2147871   0.7872930  53.3375587  60.8484354   0.9402325
  52.1661243  60.5562603   0.0268570  60.4367414  52.7692479  -1.3874519
  59.7838864  53.0168386  -2.0422067  60.8147794  51.9556617  -1.7212042
  57.3974588  62.8052172  -7.2846349  57.5796982  61.9873828  -6.8218597
  58.2207574  63.0219864  -7.7221459  57.7316753  61.7320357 -10.0231301
  58.2604520  61.2212812 -10.6361138  57.9944973  61.4162887  -9.1585768
  56.4854987  53.5112290   5.0991518  55.8095624  53.4106419   5.7693893
  57.3082621  53.3551504   5.5627515  48.2333846  59.7484226  -2.2795967
  48.8187283  59.0027914  -2.1468063  48.0358684  60.0588183  -1.3959303
  51.0872501  62.7835474  -7.2633525  50.4182876  63.2681601  -7.7469485
  50.9485371  63.0304694  -6.3490146  55.2277770  64.8179217  -0.6650866
  55.7796078  64.9810839   0.0998219  55.5683963  65.4083655  -1.3370841
  49.6794535  49.2377500   3.5844053  50.3066574  48.8554577   4.1981577
  48.8222454  49.0191701   3.9499745  60.0788644  59.6440475   5.1897788
  60.6228548  60.2570433   4.6952743  59.4975489  60.2020053   5.7064801
  58.3646157  62.7661193  -3.6787184  58.2397296  61.9650933  -4.1876239
  59.0225248  63.2607386  -4.1673214  60.4281065  60.5670213  -2.0507634
  59.4811401  60.4475564  -2.1229307  60.7763838  59.6792711  -1.9681373
  52.7880639  46.4564352   1.7730608  53.3115040  46.7026648   2.5356917
  52.5692972  47.2884387   1.3533745  57.4327499  60.3622929  -5.8503282
  57.2852461  59.4339636  -5.6695712  58.2580992  60.3843020  -6.3346207
  61.0361620  61.1851488  -4.7638409  61.9608168  60.9794349  -4.9013958
  60.8676924  60.9367889  -3.8549068  53.9933184  47.3978047  -0.5419722
  53.6530004  46.5985860  -0.1399042  53.2872190  47.6979758  -1.1142888
  55.8810748  48.5986368  -2.1866403  55.6228526  49.5203439  -2.1882073
  55.3495788  48.2016803  -1.4965939  60.8256937  61.7037155  -9.4076318
  60.9993814  61.1383578 -10.1602465  61.3185828  62.5038050  -9.5896828
  46.6433896  53.7151824  -1.3412759  46.0987365  54.4911632  -1.2092484
  47.5213246  54.0622629  -1.4993637  66.6796328  54.4673578  -7.7886018
  67.1227474  53.7180903  -8.1866895  65.8022838  54.4583715  -8.1712286
  61.8132109  61.0203920 -12.3079419  62.5083014  61.6410612 -12.0892105
  62.1555259  60.1699271 -12.0327041  47.4299918  52.8421721   1.5517398
  46.6881654  52.9904356   2.1382029  47.1092663  53.1029986   0.6884147
  63.7123532  58.4703625 -10.7792089  64.2374856  58.8090898 -11.5042769
  63.6245885  57.5350640 -10.9628954  55.3743581  62.3837699   1.3497788
  55.6830707  62.1386846   2.2220488  56.1719063  62.5884337   0.8616658
  55.3964193  64.5375608  -6.4196835  54.9569183  64.0451987  -5.7263979
  56.1472310  63.9948576  -6.6604760  47.8756532  60.7287149  -6.4172207
  48.7014552  60.4290921  -6.7973564  47.5250584  59.9594772  -5.9682419
  52.8438065  60.0813618  -4.3474534  52.2218074  59.4184323  -4.6472306
  53.5142932  60.1074749  -5.0300886  52.9162593  48.5595406   5.2457972
  52.9650748  49.4357528   4.8635742  53.4585107  48.0172799   4.6729616
  63.4017438  59.1036529   4.5259109  62.6112982  59.0860668   3.9863609
  63.1650793  59.6424822   5.2808146  63.5215313  55.9528995   1.8391838
  63.5713318  55.7879003   2.7807361  63.4129237  55.0856254   1.4489719
  60.8119076  51.9359923   3.1551145  61.7128939  51.7966388   2.8635142
  60.8867050  52.1014378   4.0949322  55.1461881  49.3126778   2.0004331
  54.2765191  49.6060344   1.7286920  55.3821361  49.8967223   2.7211595
  65.0233510  58.3725937   2.0833859  64.7318319  58.7355917   2.9197320
  64.4105641  57.6592945   1.9047192  66.2229193  55.9378816  -5.3963570
  67.0576084  56.3768621  -5.2326010  66.3588321  55.4617470  -6.2155325
  63.2720698  53.4958551   0.5513917  63.7474820  53.6886198  -0.2567231
  62.3486264  53.5517737   0.3057301  57.8500915  45.5306395  -0.4830249
  58.3682859  46.2667422  -0.8083760  57.4956048  45.8370388   0.3516510
  61.9722367  50.3724311  -1.2157777  62.9239790  50.4722409  -1.1945553
  61.8025818  49.5802580  -0.7059693  59.9936747  47.4579895  -1.0298376
  59.3986679  47.7384907  -1.7251887  59.7086444  47.9473796  -0.2581635
  64.4510445  53.5930431  -2.1015477  64.4186765  52.6546432  -1.9155793
  65.0611069  53.6714468  -2.8349652  64.6004934  50.3841475  -2.0557194
  64.0843982  49.5999931  -2.2427265  65.4844882  50.0560191  -1.8910675
  70.2686995  54.6546438  -2.9609440  70.9990384  54.3931726  -2.4001737
  69.6593941  53.9175160  -2.9207372  68.3502292  52.7954301  -2.3634989
  67.6235456  52.6610265  -2.9718498  67.9349579  53.1031129  -1.5578271
  56.1732469  56.5144230   5.4012384  57.0935478  56.6922829   5.5952430
  56.1382052  55.5700276   5.2492083  49.1694541  54.4245265  -1.9564835
  49.3880551  55.3562373  -1.9376801  49.5820315  54.0653239  -1.1710031
  54.0422406  49.9978471   7.4337914  53.9419133  50.9472828   7.3650005
  53.8243949  49.6696710   6.5613984  53.9053677  53.4275609   6.2502975
  53.4220758  54.2275970   6.4566865  53.9914616  53.4383554   5.2970419
  49.8327014  57.3180144  -1.7128591  50.7870268  57.2864086  -1.7798659
  49.6339538  56.8570768  -0.8978365  50.4226396  55.8881260   0.8542207
  51.2419285  56.3825339   0.8777044  50.6963204  54.9713228   0.8259774
  63.5307529  48.3038533  -6.0675498  64.3067919  48.7934986  -5.7950881
  62.8055663  48.7296588  -5.6103629  65.9680087  49.0166153  -5.0101558
  66.5624578  48.7761889  -5.7208249  66.0406671  48.2973283  -4.3828021
  48.1877243  62.8599764  -4.6958393  48.0531711  62.1000165  -5.2620395
  47.7709305  63.5840664  -5.1629604  68.2751160  52.3232354  -6.2358136
  67.7150718  52.3925543  -5.4626574  67.6694663  52.1473338  -6.9558640
  51.3446369  63.7569081  -4.4839950  51.2278753  64.7014513  -4.5861260
  50.5238815  63.4542642  -4.0954151  45.6761310  50.2219394   1.5534404
  46.3220174  49.7118348   2.0421629  45.4678462  50.9588076   2.1277829
  58.2014703  57.2900242   7.0526545  59.0705862  57.4640894   6.6913179
  57.7221454  58.1094658   6.9302274  52.3700883  64.4097343  -1.2684022
  53.2728130  64.4420953  -0.9517527  52.1438253  63.4797794  -1.2537686
  54.1254485  63.1628329  -4.6073943  53.1750116  63.1630191  -4.7209571
  54.4286971  62.4161064  -5.1237909  50.0158801  47.3687011   5.6509418
  50.8790263  47.0123816   5.8612743  49.4424212  47.0300906   6.3384823
  69.8607178  68.9988868  -3.5428181  70.4985588  68.8795615  -4.2464841
  69.7428021  69.9469711  -3.4840229  66.6696885  68.9516296  -3.6066656
  66.3315396  68.8357360  -4.4946121  67.5386653  68.5507461  -3.6265650
  67.1516668  70.1051147   2.3519549  67.1405308  69.7103946   1.4800053
  67.3137307  69.3717220   2.9453321  60.0748132  72.3002964  -4.7785545
  60.8669424  71.9593788  -5.1939245  60.3144782  72.4097939  -3.8583391
  63.8723929  72.8888259   1.2998733  63.5813795  73.7933890   1.1845400
  64.5080913  72.9304787   2.0142803  64.7980136  70.2665108  -2.1099907
  65.3943708  70.0421130  -2.8242944  64.8555107  69.5249853  -1.5074459
  69.4148447  66.7240321  -6.4674973  70.2011536  66.3059745  -6.8184556
  69.6787151  67.6286414  -6.2993324  72.3382294  60.3737129  -1.1047386
  72.0065619  61.2432540  -1.3286171  71.7427908  60.0573413  -0.4253355
  68.8313814  72.5749675  -1.7051473  68.5314537  73.4774713  -1.8135666
  68.4864873  72.3081858  -0.8530320  62.2826295  69.0263471  -5.6714768
  61.3576792  68.8939686  -5.4637077  62.5310709  69.8057691  -5.1744826
  72.2310958  65.0932215  -4.0254036  71.3227835  65.0247623  -4.3195275
  72.1798553  65.5704160  -3.1972210  59.6435106  68.6696745  -4.8370979
  59.7727488  68.9231224  -3.9231568  58.9632558  69.2624453  -5.1566324
  66.3051823  66.5121860   3.9180862  65.5285157  67.0715781   3.9083726
  66.9442386  66.9978643   4.4395732  74.0972604  63.2948653  -2.2476162
  73.4546984  63.5881186  -2.8936367  73.5927533  63.1801574  -1.4422965
  64.5598196  69.3207314   3.4798829  65.3012880  69.8592358   3.2033652
  63.8535181  69.9473603   3.6370381  70.0353535  71.4636454   2.0770990
  70.4436891  71.0218865   1.3325623  69.3130797  70.8889082   2.3305183
  66.3884605  66.4009061  -0.5495453  67.2345801  66.8248475  -0.4060804
  66.3283243  65.7442685   0.1443110  69.5384051  64.0613429   1.1085721
  69.2944983  64.8155490   0.5719996  69.8143981  64.4398777   1.9432968
  71.4922514  70.6052042  -0.2137014  71.7039409  71.2483802  -0.8902633
  71.4452262  69.7714358  -0.6815084  69.0948742  63.2169862  -3.3100441
  68.2333221  63.5151116  -3.0183704  69.1211177  63.4340261  -4.2419409
  62.8034393  71.3083535  -3.9646873  63.3735750  71.7370803  -4.6029388
  63.3942505  71.0266119  -3.2662687  63.2959559  66.4746962   4.2814139
  62.6658220  67.1563243   4.5149536  63.1895647  66.3630044   3.3367277
  58.5904532  66.1418758  -4.7919937  57.8003586  66.3976287  -5.2679826
  59.0815779  66.9567096  -4.6867897  60.5419277  66.5063337  -7.8336460
  59.7450441  66.6182031  -7.3152965  60.3144869  66.8449989  -8.6995570
  66.3724945  73.0308040   0.1146054  66.4369377  73.4928448   0.9504226
  65.6635869  72.4005405   0.2428364  56.8742235  66.3949248  -2.3604946
  57.1250273  67.2796258  -2.0947370  57.4101783  66.2153850  -3.1329854
  62.5740302  60.7767728   6.6439390  62.1807248  60.2233926   7.3187034
  63.3906443  61.0878306   7.0345907  65.4908263  62.1925607   4.2359646
  66.2317977  62.7932760   4.1564109  65.7226186  61.4503245   3.6777689
  60.6349601  67.3781974   2.5137876  60.5203116  66.4767231   2.8144975
  59.7794119  67.6245671   2.1622693  67.7141439  75.3199714   4.1125377
  67.2705293  74.5336093   3.7946281  68.3758653  75.5078865   3.4469267
  62.4728560  76.8495516  -1.3613945  63.0235985  76.7212579  -2.1336951
  61.6340036  77.1490405  -1.7119052  69.8122677  75.6002514   2.1406778
  69.7941152  76.4211395   1.6487047  70.7342597  75.4756590   2.3656919
  66.2695731  73.1146644   2.9830286  66.8024068  72.3534932   2.7529594
  65.7409812  72.8220296   3.7254441  69.4365426  58.2206710  -1.4876072
  69.0929696  59.1108352  -1.5636961  69.8044389  58.0308367  -2.3506487
  57.5051277  70.5440240  -8.6687470  58.3426499  70.9537249  -8.8853762
  57.6829544  69.6039682  -8.6987276  66.9862820  63.0565022  -7.9218398
  66.1304416  62.6671872  -8.1012760  67.3989772  63.1356983  -8.7818613
  68.5161967  60.5911365  -3.5226839  68.0126762  60.5541500  -4.3359033
  68.8092573  61.5004108  -3.4630182  64.7604852  60.6750095  -4.5160657
  65.6257849  60.4792903  -4.8754768  64.8282361  60.4460446  -3.5891300
  62.3667171  62.9052303  -7.1444290  62.9410923  62.6827484  -7.8771097
  62.9538154  62.9740997  -6.3915689  64.6689839  59.7793552  -8.4169221
  64.0154252  59.4642569  -9.0412606  64.6270313  59.1569292  -7.6909398
  67.9027580  66.2675485  -4.0921573  66.9850141  66.4890432  -4.2499885
  68.3187723  66.3421796  -4.9509866  71.2353092  57.4800269  -6.3858334
  71.5411969  56.6197632  -6.6732419  71.9605697  58.0717889  -6.5859340
  57.5277448  67.8830956  -7.9976736  57.3301848  67.2900316  -8.7225670
  56.9724112  67.5783166  -7.2800798  65.5074172  67.7754062  -5.8782143
  65.5622781  66.8227898  -5.9539667  64.6965374  67.9313501  -5.3940845
  63.4466531  66.3931122  -8.1191764  62.6334397  66.6925292  -7.7126572
  63.9425526  65.9986811  -7.4017282  69.0440743  66.8572946   0.7123130
  69.3990131  67.0844419   1.5717595  69.6912874  67.1891323   0.0900385
  62.9380606  63.9649477  -2.5030529  63.5779986  63.8238236  -3.2007566
  62.1058137  63.6783991  -2.8791927  68.5335755  75.6470003  -2.0383169
  68.5872777  76.2160940  -1.2705453  67.6650536  75.8171888  -2.4029132
  59.9409223  63.9349802  -7.7257543  60.2016040  64.8495136  -7.8348382
  60.7626395  63.4674245  -7.5760930  61.4134148  65.3487560  -0.5558718
  62.0857201  65.1404922  -1.2046069  60.5863934  65.1509646  -0.9953486
  67.3159720  61.9749500   1.4606943  66.6687635  62.6739450   1.3671419
  68.0860735  62.4085644   1.8283191  70.7238518  72.2398353   4.5357496
  70.5724024  72.0108904   3.6187580  70.7143197  73.1968954   4.5488841
  67.4923854  69.8130265  -0.4796237  68.4215914  69.9641425  -0.6527270
  67.0714884  69.9014286  -1.3347591  66.2912186  73.8380930  -2.7097700
  66.1523272  73.4699714  -1.8371762  65.5026782  74.3528569  -2.8813742
  61.8161645  68.6230162   0.2043719  61.6781443  67.8910401   0.8055258
  62.7266569  68.5339063  -0.0772093  64.4443946  68.3350122  -0.3072601
  65.1543564  67.6943314  -0.3485983  64.4013254  68.5863017   0.6153580
  72.4330725  75.2717475   2.6133978  72.3743271  74.5876695   1.9464561
  72.8350243  76.0136465   2.1614604  63.1572880  65.3215340   1.5123038
  62.6210237  64.8706078   2.1644635  62.5689588  65.4561249   0.7693503
  72.4348132  73.2357059   0.8447958  71.5474911  72.8982981   0.9674356
  73.0046683  72.5040090   1.0816723  54.0877279  69.5681151  -5.8308991
  54.7748319  69.2542881  -6.4187976  53.9325408  70.4722515  -6.1041740
  58.8912001  64.4571347  -1.4023967  58.8070190  63.8497017  -2.1373557
  58.0694707  64.9480366  -1.4014471  69.0635715  62.9424911  -6.0353772
  69.5604414  62.1894873  -6.3552702  68.2922696  62.9789228  -6.6010563
  68.4247969  77.7945345  -0.0332641  69.1375941  78.4292810  -0.1056739
  67.9337997  77.8909211  -0.8492639  65.6470684  65.0842294  -6.3082088
  65.2768471  64.5313334  -5.6201182  66.1429776  64.4800427  -6.8607088
  63.4759882  75.5439789   0.7872930  64.1769342  76.1776272   0.9402325
  63.0054997  75.8854520   0.0268570  71.5054710  59.9094504  -3.8874413
  70.5917790  60.1398731  -3.7192206  71.9347811  59.9932948  -3.0360381
  71.2761168  68.0984396  -1.3874519  70.6232618  68.3460304  -2.0422067
  71.6541548  67.2848535  -1.7212042  67.3248741  68.8404207   5.0991518
  66.6489378  68.7398337   5.7693893  68.1476375  68.6843421   5.5627515
  59.0727600  75.0776144  -2.2795967  59.6581037  74.3319832  -2.1468063
  58.8752439  75.3880101  -1.3959303  53.6645255  67.6481744  -3.5591524
  53.7029355  67.1145335  -2.7654406  53.1585548  67.1216950  -4.1780547
  61.0436017  62.4946285  -0.0628982  61.1077344  63.3561116  -0.4751584
  60.9803138  61.8820286  -0.7956623  60.5188290  64.5669417   3.5844053
  61.1460329  64.1846495   4.1981577  59.6616209  64.3483619   3.9499745
  70.9182398  74.9732392   5.1897788  71.4622302  75.5862351   4.6952743
  70.3369243  75.5311971   5.7064801  57.2953833  66.3745846 -10.4837592
  57.5907274  65.4656525 -10.5370539  56.3941868  66.3533586 -10.8056590
  60.8248080  64.4501843  -4.5010044  60.1034665  65.0637811  -4.6402571
  61.6141335  64.9859608  -4.5793398  63.6274393  61.7856269   1.7730608
  64.1508795  62.0318566   2.5356917  63.4086726  62.6176304   1.3533745
  59.0241674  64.0559944 -10.3598267  58.6954380  63.1757323 -10.5423161
  59.3781045  64.0007613  -9.4721878  62.1383497  64.3432914  -9.9922790
  62.4779570  64.8718835 -10.7144181  62.5855618  64.6813320  -9.2164223
  64.8326938  62.7269965  -0.5419722  64.4923759  61.9277778  -0.1399042
  64.1265944  63.0271675  -1.1142888  65.4843410  59.8119277  -2.0892399
  66.3069479  59.3379755  -2.2113508  65.7281474  60.5909761  -1.5893712
  63.0081989  66.5038398  -4.2800420  62.8626570  66.8178701  -3.3876138
  62.5307192  67.1223298  -4.8329521  64.8678372  63.4940946  -4.2319530
  64.8539940  62.5982039  -4.5687232  65.5850800  63.5011609  -3.5981244
  66.7204502  63.9278286  -2.1866403  66.4622280  64.8495356  -2.1882073
  66.1889543  63.5308720  -1.4965939  57.4827651  69.0443742  -1.3412759
  56.9381119  69.8203550  -1.2092484  58.3607001  69.3914546  -1.4993637
  64.2715268  62.3755326  -8.9631960  64.3931179  61.4471972  -8.7641073
  63.9817310  62.3894012  -9.8753645  67.1406458  60.0610236  -5.8265240
  67.1628155  60.1249569  -6.7813261  67.5574517  59.2214745  -5.6324734
  58.2693673  68.1713638   1.5517398  57.5275409  68.3196274   2.1382029
  57.9486417  68.4321904   0.6884147  66.2137335  77.7129616   1.3497788
  66.5224462  77.4678763   2.2220488  67.0112817  77.9176255   0.8616658
  56.9158892  73.9765393  -5.4583274  56.0790800  73.5487568  -5.6399272
  56.8882537  74.1697837  -4.5212482  63.7556347  63.8887323   5.2457972
  63.8044503  64.7649446   4.8635742  64.2978861  63.3464716   4.6729616
  74.2411193  74.4328446   4.5259109  73.4506737  74.4152585   3.9863609
  74.0044547  74.9716740   5.2808146  74.3609068  71.2820913   1.8391838
  74.4107073  71.1170920   2.7807361  74.2522991  70.4148172   1.4489719
  71.6512830  67.2651841   3.1551145  72.5522693  67.1258306   2.8635142
  71.7260805  67.4306296   4.0949322  65.9855636  64.6418696   2.0004331
  65.1158945  64.9352262   1.7286920  66.2215116  65.2259141   2.7211595
  75.8627265  73.7017854   2.0833859  75.5712073  74.0647835   2.9197320
  75.2499396  72.9884863   1.9047192  74.1114453  68.8250469   0.5513917
  74.5868575  69.0178115  -0.2567231  73.1880018  68.8809655   0.3057301
  68.6894669  60.8598313  -0.4830249  69.2076613  61.5959339  -0.8083760
  68.3349802  61.1662306   0.3516510  68.9407264  57.2798595  -4.9629352
  69.2209017  56.6121784  -4.3368925  69.7257871  57.4727691  -5.4754688
  72.8116122  65.7016229  -1.2157777  73.7633545  65.8014327  -1.1945553
  72.6419572  64.9094498  -0.7059693  70.8330501  62.7871812  -1.0298376
  70.2380434  63.0676825  -1.7251887  70.5480198  63.2765713  -0.2581635
  75.2904200  68.9222349  -2.1015477  75.2580520  67.9838349  -1.9155793
  75.9004823  69.0006385  -2.8349652  75.4398688  65.7133392  -2.0557194
  74.9237737  64.9291849  -2.2427265  76.3238637  65.3852109  -1.8910675
  73.1009415  59.4574408  -6.0961381  72.9034236  59.1489496  -5.2118049
  73.7109121  60.1836047  -5.9663452  67.0126223  71.8436148   5.4012384
  67.9329233  72.0214747   5.5952430  66.9775806  70.8992193   5.2492083
  56.2308388  67.0374742  -5.6734342  55.9111172  66.1840050  -5.9659968
  55.6841816  67.2523320  -4.9176374  60.0088296  69.7537183  -1.9564835
  60.2274305  70.6854290  -1.9376801  60.4214069  69.3945157  -1.1710031
  66.9292513  60.2605268  -9.9689147  66.1193242  59.9152353  -9.5933901
  67.6176930  59.9512812  -9.3801535  68.8583062  59.3383315  -8.3464850
  69.4114100  59.7578768  -7.6874827  69.0953148  58.4119063  -8.3041894
  64.8816161  65.3270388   7.4337914  64.7812888  66.2764745   7.3650005
  64.6637703  64.9988627   6.5613984  56.0996648  70.6577653  -3.7041220
  55.4060120  70.2431606  -4.2171266  56.8469639  70.6998190  -4.3007801
  70.6865435  60.8488898  -6.6364865  71.1865214  60.9605432  -7.4450547
  71.3301043  60.5449950  -5.9964057  64.7447431  68.7567527   6.2502975
  64.2614513  69.5567887   6.4566865  64.8308370  68.7675472   5.2970419
  58.0133391  70.5895907  -5.8275205  57.9904079  70.6883594  -6.7793322
  58.3234027  71.4361058  -5.5058039  60.6720769  72.6472062  -1.7128591
  61.6264022  72.6156004  -1.7798659  60.4733292  72.1862686  -0.8978365
  61.2620151  71.2173178   0.8542207  62.0813040  71.7117257   0.8777044
  61.5356958  70.3005146   0.8259774  74.3701283  63.6330451  -6.0675498
  75.1461673  64.1226904  -5.7950881  73.6449417  64.0588505  -5.6103629
  56.5155065  65.5511312   1.5534404  57.1613929  65.0410266   2.0421629
  56.3072216  66.2879993   2.1277829  69.0408457  72.6192159   7.0526545
  69.9099617  72.7932812   6.6913179  68.5615209  73.4386576   6.9302274
  63.2094637  79.7389260  -1.2684022  64.1121884  79.7712871  -0.9517527
  62.9832007  78.8089711  -1.2537686  68.8510795  56.4094133  -8.4395763
  68.0843191  55.8552620  -8.2939081  69.2621500  56.4816002  -7.5781611
  60.8552556  62.6978929   5.6509418  61.7184017  62.3415734   5.8612743
  60.2817967  62.3592824   6.3384823  73.4134057  76.1059645   6.6439390
  73.0201002  75.5525844   7.3187034  74.2300197  76.4170224   7.0345907
  76.3302018  77.5217525   4.2359646  77.0711731  78.1224678   4.1564109
  76.5619940  76.7795162   3.6777689  71.3582044  79.8961335   3.5844053
  71.9854083  79.5138412   4.1981577  70.5009963  79.6775537   3.9499745
  74.5950102  79.2179241   5.2457972  74.6438257  80.0941364   4.8635742
  75.1372616  78.6756634   4.6729616  75.7209915  80.6562306   7.4337914
  75.6206642  81.6056663   7.3650005  75.5031458  80.3280545   6.5613984
  67.3548819  80.8803229   1.5534404  68.0007683  80.3702183   2.0421629
  67.1465971  81.6171911   2.1277829  71.6946310  78.0270846   5.6509418
  72.5577772  77.6707651   5.8612743  71.1211721  77.6884741   6.3384823
  67.7141440  52.3261837  -9.1629317  67.2705294  51.5398216  -9.4808412
  68.3758654  52.5140988  -9.8285426  69.8122678  52.6064637 -11.1347915
  69.7941154  53.4273518 -11.6267646  70.7342598  52.4818712 -10.9097774
  70.7238519  49.2460475  -8.7397197  70.5724026  49.0171027  -9.6567114
  70.7143199  50.2031077  -8.7265852  72.4330726  52.2779598 -10.6620715
  72.3743272  51.5938818 -11.3290132  72.8350244  53.0198588 -11.1140089
  70.9182400  51.9794515  -8.0856905  71.4622304  52.5924473  -8.5801950
  70.3369245  52.5374093  -7.5689892  74.2411194  51.4390569  -8.7495584
  73.4506738  51.4214708  -9.2891085  74.0044549  51.9778863  -7.9946547
  75.8627266  50.7079977 -11.1920834  75.5712074  51.0709958 -10.3557373
  75.2499397  49.9946985 -11.3707502  69.0408458  49.6254282  -6.2228149
  69.9099618  49.7994934  -6.5841514  68.5615210  50.4448699  -6.3452419
  73.4134058  53.1121768  -6.6315304  73.0201003  52.5587967  -5.9567659
  74.2300198  53.4232347  -6.2408786  76.3302019  54.5279647  -9.0395047
  77.0711732  55.1286800  -9.1190585  76.5619942  53.7857285  -9.5977004
  71.3582046  56.9023458  -9.6910641  71.9854084  56.5200535  -9.0773116
  70.5009964  56.6837659  -9.3254948  74.5950103  56.2241363  -8.0296721
  74.6438258  57.1003486  -8.4118951  75.1372617  55.6818757  -8.6025078
  75.7209917  57.6624429  -5.8416780  75.6206644  58.6118786  -5.9104688
  75.5031459  57.3342667  -6.7140709  67.3548821  57.8865352 -11.7220289
  68.0007684  57.3764306 -11.2333064  67.1465972  58.6234034 -11.1476864
  71.6946312  55.0332969  -7.6245275  72.5577773  54.6769774  -7.4141951
  71.1211722  54.6946864  -6.9369871   4.8218048 100.4846585  47.4089086
   4.0681756  99.9153983  47.2533090   4.9565589 100.4509249  48.3559720
   1.6433796 100.4549335  45.3132753   2.0864942  99.7056660  44.9151876
   0.7660306 100.4459471  44.9306485   1.1866661 101.9254573  47.7055200
   2.0213552 102.3644377  47.8692760   1.3225789 101.4493226  46.8863446
   5.2324463 100.6422195  50.1409330   5.9627852 100.3807483  50.7017033
   4.6231409  99.9050916  50.1811398   3.3139760  98.7830057  50.7383781
   2.5872924  98.6486022  50.1300273   2.8987047  99.0906886  51.5440499
   0.9317555  95.0041909  48.0917213   1.5262046  94.7637645  47.3810521
   1.0044139  94.2849040  48.7190749   3.2388628  98.3108110  46.8660634
   2.6788186  98.3801299  47.6392196   2.6332131  98.1349095  46.1460130
   4.4002894 104.2082466  51.6142698   4.0567164 105.0984108  51.5381809
   4.7681857 104.0184124  50.7512283   6.1990560 103.4676026  46.7160436
   6.5049437 102.6073389  46.4286351   6.9243165 104.0593646  46.5159430
   6.4692178 105.8970261  49.2144357   5.5555258 106.1274488  49.3826564
   6.8985279 105.9808705  50.0658389   3.9044732 103.2674352  48.1389418
   4.1846485 102.5997541  48.7649845   4.6895339 103.4603447  47.6264082
   8.0646883 105.4450164  47.0057389   7.8671704 105.1365253  47.8900721
   8.6746589 106.1711803  47.1355319   3.8220530 105.3259071  44.7553920
   4.3751568 105.7454525  45.4143943   4.0590616 104.3994819  44.7976876
   3.8148263 102.3969890  44.6623007   3.0480659 101.8428376  44.8079690
   4.2258968 102.4691758  45.5237159   4.8218049  77.4908707  34.1334392
   4.0681758  76.9216105  33.9778397   4.9565591  77.4571372  35.0805027
   1.6433797  77.4611457  32.0378059   2.0864943  76.7118783  31.6397182
   0.7660307  77.4521594  31.6551791   1.1866662  78.9316696  34.4300507
   2.0213553  79.3706500  34.5938067   1.3225791  78.4555349  33.6108752
   5.2324464  77.6484317  36.8654637   5.9627853  77.3869605  37.4262340
   4.6231410  76.9113039  36.9056705   3.3139762  75.7892180  37.4629088
   2.5872925  75.6548145  36.8545579   2.8987048  76.0969008  38.2685806
   0.9317556  72.0104032  34.8162519   1.5262047  71.7699768  34.1055828
   1.0044140  71.2911162  35.4436056   3.2388629  75.3170233  33.5905941
   2.6788187  75.3863422  34.3637503   2.6332133  75.1411217  32.8705437
   4.8244648  91.9926747  36.2835896   5.4623058  91.8733494  35.5799236
   4.7065491  92.9407591  36.3423848   1.6334354  91.9454175  36.2197421
   1.2952865  91.8295239  35.3317956   2.5024122  91.5445340  36.1998427
   2.1154137  93.0989027  42.1783626   2.1042778  92.7041825  41.3064130
   2.2774776  92.3655099  42.7717398   4.3785916  89.7178201  33.3589104
   5.1649005  89.2997624  33.0079521   4.6424620  90.6224293  33.5270753
   9.7794343  89.6553434  34.2622083  10.5119515  89.0852651  34.4959912
   9.0233699  89.2675034  34.7028588   1.3970463  92.0780675  31.4585425
   1.0328670  91.5511296  32.1698347   2.2537579  91.6879144  31.2851911
   7.3019764  83.3675008  38.7216691   6.9703088  84.2370419  38.4977906
   6.7065377  83.0511292  39.4010722   3.7951283  95.5687554  38.1212604
   3.4952006  96.4712593  38.0128411   3.4502343  95.3019737  38.9733757
   7.1948427  88.0870094  35.8010041   6.2865304  88.0185502  35.5068802
   7.1436023  88.5642039  36.6291867   1.2689293  89.5059740  43.7444939
   0.4922627  90.0653660  43.7347803   1.9079856  89.9916523  44.2659809
   9.0610073  86.2886532  37.5787915   8.4184454  86.5819066  36.9327710
   8.5565002  86.1739453  38.3841112   6.7150237  90.0349706  28.2673775
   7.6268093  90.2677092  28.0921472   6.2059884  90.6186750  27.7048853
   4.9991005  94.4574333  41.9035067   5.4074361  94.0156744  41.1589700
   4.2768266  93.8826961  42.1569260   1.3522075  89.3946940  39.2768624
   2.1983270  89.8186354  39.4203273   1.2920712  88.7380565  39.9707187
   5.3219819  95.0175524  35.6587356   4.6928682  95.1821238  34.9563424
   4.9345481  95.4317134  36.4298320   9.2009051  95.9529962  33.0131720
   8.5160089  96.3328863  32.4628753   9.2852900  96.5625289  33.7463668
   4.5021520  87.0551309  40.9349798   4.2582452  87.8093369  40.3984073
   4.7781451  87.4336656  41.7697045   6.4559983  93.5989921  39.6127063
   6.6676878  94.2421681  38.9361444   6.4089731  92.7652237  39.1448993
   4.0586212  86.2107742  36.5163636   3.1970691  86.5088995  36.8080373
   4.0848646  86.4278140  35.5844668   0.8747781  94.7549932  32.9237441
   1.3386127  95.0337635  32.1342064   0.6104579  93.8533377  32.7410532
   7.5705811  96.4761876  37.7849421   8.3923254  96.0742064  37.5032102
   7.5668214  96.3730111  38.7365537   1.3362414  96.0245920  39.9410131
   1.4006847  96.4866327  40.7768303   0.6273338  95.3943285  40.0692441
  15.6611804  92.8200625  34.1334392  14.9075512  92.2508023  33.9778397
  15.7959345  92.7863289  35.0805027   2.6778908  98.3137594  43.9389454
   2.2342762  97.5273972  43.6210358   3.3396122  98.5016744  43.2733344
   4.7760146  98.5940394  41.9670855   4.7578622  99.4149275  41.4751124
   5.6980066  98.4694469  42.1920996   1.2333200  96.1084523  42.8094363
   1.7661537  95.3472811  42.5793671   0.7047282  95.8158175  43.5518518
   4.4002895  81.2144589  38.3388005   4.0567165  82.1046231  38.2627116
   4.7681858  81.0246247  37.4757590   4.3653178  91.2053200  26.8460440
   3.8499802  91.9757805  27.0848828   4.0930487  90.5318336  27.4693502
   1.9500289  86.0502901  31.9045679   1.0941886  85.6609751  31.7251317
   2.3627241  86.1294862  31.0445464   3.4799436  83.5849244  36.3037238
   2.9764231  83.5479379  35.4905044   3.7730043  84.4941987  36.3633895
   9.3387452  93.9585555  28.7813614   8.5616895  93.6196714  28.3368776
  10.0178933  93.9638178  28.1068579   4.1539481  89.0780292  28.6720221
   3.8489617  89.3926441  29.5230365   5.1069923  89.1561712  28.7147554
   7.5778759  93.4319536  35.4380222   6.9202434  94.1218797  35.5260350
   8.3819158  93.8215968  35.7814208   6.3884218  91.7863909  33.4884163
   6.9016100  92.4193901  33.9905873   7.0385442  91.1865104  33.1227523
   2.8665049  89.2613364  35.7342504   1.9487610  89.4828311  35.5764192
   3.2825192  89.3359675  34.8754211   3.6500097  90.6604780  30.8645184
   4.3971916  91.1726177  30.5552306   3.9191686  90.3388833  31.7249578
   7.1546014  96.7669910  31.6163306   6.7008341  95.9260820  31.6728496
   6.5239981  97.4031309  31.9538086   6.0978934  87.6961896  32.8463973
   5.3601691  87.1839282  33.1774216   6.3505707  87.2562278  32.0347250
   5.5978953  98.6046407  32.5513124   5.8901928  99.1651464  31.8325490
   6.1077574  98.8974968  33.3066283   6.1990561  80.4738148  33.4405743
   6.5049438  79.6135512  33.1531658   6.9243166  81.0655768  33.2404737
   4.0078212  89.8510825  40.5387207   4.3627600  90.0782299  41.3981672
   4.6550344  90.1829202  39.9164462   9.7375949  92.9729261  31.2436536
   9.5993848  93.1630857  30.3157725   9.3812168  93.7348644  31.7004587
   9.7645329  95.0405788  36.2547807  10.1981836  94.9481077  37.1030861
  10.4776910  95.0163289  35.6167823   3.4973224  98.6407882  37.7880908
   3.5510246  99.2098819  38.5558624   2.6288005  98.8109768  37.4234945
  10.6260879  95.0829489  38.7880692  10.8196769  95.9875300  39.0339967
  10.5261497  94.6236908  39.6219277   2.2797189  84.9687380  41.2871020
   1.6325104  85.6677329  41.1935496   3.0498205  85.4023524  41.6547268
   5.6875987  95.2336232  44.3621573   5.5361494  95.0046783  43.4451657
   5.6780667  96.1906833  44.3752918   2.4561324  92.8068145  39.3467840
   3.3853384  92.9579304  39.1736807   2.0352354  92.8952165  38.4916486
   2.8054871  96.2100412  34.5055215   2.4704703  96.1701182  35.4012865
   2.3058816  95.5445128  34.0325625   7.3968194  98.2655354  42.4398055
   7.3380740  97.5814574  41.7728638   7.7987712  99.0074344  41.9878681
   7.3985601  96.2294938  40.6712035   6.5112380  95.8920860  40.7938433
   7.9684152  95.4977970  40.9080800   0.9286755 100.8896391  37.6373278
   0.8556926 101.6951362  38.1492582   0.4864148 101.0888356  36.8121299
   4.0273184  85.9362790  33.7910305   4.5241884  85.1832752  33.4711375
   3.2560166  85.9727107  33.2253514  11.8802942  91.6403156  35.4328596
  11.8692818  92.5227871  35.0622529  11.0120321  91.2874706  35.2383133
   3.3885438 100.7883225  39.7931436   4.1013410 101.4230689  39.7207338
   2.8975467 100.8847091  38.9771438   5.1102965  94.6934477  31.3648728
   4.1759244  94.8135940  31.1953432   5.2879633  93.7906944  31.1008738
   8.4975516  90.5351797  31.8998762   8.9635968  91.3679788  31.8259065
   8.9483017  90.0696778  32.6044021   6.5651747  96.8795618  28.8984914
   6.8411591  96.7652212  29.8078788   5.6956246  96.4813103  28.8597087
   6.4692179  82.9032384  35.9389664   5.5555259  83.1336610  36.1071871
   6.8985280  82.9870828  36.7903696   6.2398638  91.0922276  38.4389558
   5.5870088  91.3398183  37.7842010   6.6179017  90.2786414  38.1052035
   3.2005811 101.1281969  32.5417728   3.3828206 100.3103625  33.0045480
   4.0238797 101.3449661  32.1042618   2.2886211  91.8342087  44.9255595
   1.6126848  91.7336216  45.5957970   3.1113844  91.6781300  45.3891592
   1.0308993 103.1409014  39.1613211   1.5827301 103.3040636  39.9262296
   1.3715187 103.7313452  38.4893236   5.8819868  97.9670272  45.0161865
   6.4259772  98.5800230  44.5216820   5.3006713  98.5249850  45.5328878
   4.1677381 101.0890990  36.1476893   4.0428520 100.2880729  35.6387838
   4.8256472 101.5837183  35.6590863   6.2312289  98.8900010  37.7756443
   5.2842625  98.7705361  37.7034770   6.5795062  98.0022508  37.8582704
   3.2358722  98.6852726  33.9760795   3.0883685  97.7569433  34.1568365
   4.0612216  98.7072817  33.4917870   6.8392844  99.5081285  35.0625668
   7.7639392  99.3024146  34.9250119   6.6708148  99.2597686  35.9715009
   3.2320237  86.5390564  28.9692912   3.4483851  87.4215201  28.6681741
   2.7514304  86.1476777  28.2398554   1.6841972  86.9216165  37.6397674
   1.4259750  87.8433236  37.6382004   1.1527012  86.5246599  38.3298138
   6.6288160 100.0266952  30.4187759   6.8025038  99.4613375  29.6661612
   7.1217052 100.8267847  30.2367249   2.1043927  83.0548115  33.9998837
   2.1265624  83.1187449  33.0450816   2.5211986  82.2152624  34.1939343
  12.4827552  92.7903375  32.0378059  12.9258698  92.0410700  31.6397182
  11.6054062  92.7813511  31.6551791   9.5154756  96.7933422  29.0471988
  10.0406080  97.1320695  28.3221308   9.4277109  95.8580437  28.8635123
   1.1774805 100.7067496  41.1761865   1.4861931 100.4616642  42.0484565
   1.9750287 100.9114134  40.6880735   9.2048662  97.4266326  44.3523186
   8.4144206  97.4090465  43.8127686   8.9682017  97.9654619  45.1072223
   9.3246537  94.2758792  41.6655915   9.3744542  94.1108799  42.6071438
   9.2160461  93.4086051  41.2753796   6.6150300  90.2589720  42.9815222
   7.5160162  90.1196185  42.6899219   6.6898274  90.4244175  43.9213399
  10.8264734  96.6955734  41.9097936  10.5349542  97.0585714  42.7461397
  10.2136865  95.9822742  41.7311269  12.0260416  94.2608613  34.4300507
  12.8607308  94.6998417  34.5938067  12.1619545  93.7847267  33.6108752
   9.0751922  91.8188348  40.3777994   9.5506044  92.0115994  39.5696846
   8.1517488  91.8747534  40.1321378   3.6532139  83.8536192  39.3433828
   4.1714083  84.5897219  39.0180317   3.2987271  84.1600185  40.1780587
   3.9044733  80.2736474  34.8634725   4.1846487  79.6059663  35.4895152
   4.6895340  80.4665570  34.3509389   7.7753591  88.6954108  38.6106300
   8.7271014  88.7952206  38.6318524   7.6057042  87.9032377  39.1204384
   5.7967971  85.7809691  38.7965701   5.2017903  86.0614704  38.1012190
   5.5117667  86.2703592  39.5682442  10.2541669  91.9160228  37.7248600
  10.2217989  90.9776229  37.9108284  10.8642293  91.9944265  36.9914425
  10.4036158  88.7071271  37.7706883   9.8875206  87.9229728  37.5836812
  11.2876106  88.3789988  37.9353402   8.0646884  82.4512287  33.7302696
   7.8671706  82.1427375  34.6146028   8.6746590  83.1773926  33.8600625
  16.0718219  92.9776235  36.8654637  16.8021607  92.7161523  37.4262340
  15.4625164  92.2404957  36.9056705  14.1533516  91.1184097  37.4629088
  13.4266680  90.9840062  36.8545579  13.7380803  91.4260926  38.2685806
   1.9763692  94.8374027  45.2276461   2.8966702  95.0152626  45.4216507
   1.9413275  93.8930072  45.0756160   1.8929983  83.2543147  29.8574930
   1.0830711  82.9090232  30.2330176   2.5814400  82.9450691  30.4462542
   3.8220531  82.3321194  31.4799227   4.3751570  82.7516647  32.1389250
   4.0590617  81.4056942  31.5222183   7.1999338  84.4421719  30.9877891
   6.6198007  85.1006523  30.6055944   6.9335271  83.6199064  30.5765309
   5.6502905  83.8426777  33.1899212   6.1502683  83.9543311  32.3813530
   6.2938512  83.5387830  33.8300020   5.9824216  86.6021809  30.0434239
   5.0950071  86.8871460  29.8254434   6.3978205  86.4415573  29.1961516
   9.3338752  86.6268330  33.7588579  10.1099142  87.1164783  34.0313196
   8.6086886  87.0526385  34.2160448  11.7711311  87.3395950  34.8162519
  12.3655802  87.0991686  34.1055828  11.8437895  86.6203080  35.4436056
   5.9565240  92.1176345  30.2584530   5.9000441  92.5744897  29.4192162
   6.5093582  91.3567030  30.0807372   9.7670046  87.9066077  31.0834649
   9.5106980  87.5062713  31.9142857   9.1422914  88.6209871  30.9584788
  14.0782384  90.6462150  33.5905941  13.5181942  90.7155340  34.3637503
  13.4725887  90.4703135  32.8705437   6.6900019  93.3081127  27.5537059
   6.6348823  93.1425398  26.6125503   6.0646074  94.0157159  27.7099249
   4.0045926  95.6130038  46.8790622   4.8737086  95.7870691  46.5177256
   3.5252678  96.4324455  46.7566351   3.8148264  79.4032012  31.3868314
   3.0480660  78.8490499  31.5324996   4.2258969  79.4753881  32.2482466
  15.6638402 107.3218664  36.2835896  16.3016812 107.2025412  35.5799236
  15.5459245 108.2699508  36.3423848  12.4728108 107.2746092  36.2197421
  12.1346620 107.1587157  35.3317956  13.3417877 106.8737258  36.1998427
  12.9547891 108.4280944  42.1783626  12.9436532 108.0333742  41.3064130
  13.1168531 107.6947017  42.7717398  15.2179671 105.0470118  33.3589104
  16.0042760 104.6289541  33.0079521  15.4818375 105.9516210  33.5270753
  20.6188098 104.9845351  34.2622083  21.3513270 104.4144568  34.4959912
  19.8627453 104.5966952  34.7028588  12.2364217 107.4072593  31.4585425
  11.8722425 106.8803214  32.1698347  13.0931333 107.0171062  31.2851911
  18.1413518  98.6966926  38.7216691  17.8096843  99.5662336  38.4977906
  17.5459131  98.3803210  39.4010722  18.0342181 103.4162012  35.8010041
  17.1259059 103.3477420  35.5068802  17.9829777 103.8933957  36.6291867
  12.1083047 104.8351657  43.7444939  11.3316381 105.3945577  43.7347803
  12.7473610 105.3208440  44.2659809  19.9003828 101.6178450  37.5787915
  19.2578208 101.9110983  36.9327710  19.3958756 101.5031370  38.3841112
  17.5543991 105.3641623  28.2673775  18.4661848 105.5969010  28.0921472
  17.0453639 105.9478667  27.7048853  15.8384759 109.7866251  41.9035067
  16.2468115 109.3448662  41.1589700  15.1162021 109.2118879  42.1569260
  12.1915829 104.7238858  39.2768624  13.0377024 105.1478271  39.4203273
  12.1314467 104.0672482  39.9707187  15.3415275 102.3843226  40.9349798
  15.0976206 103.1385287  40.3984073  15.6175205 102.7628574  41.7697045
  17.2953737 108.9281839  39.6127063  17.5070633 109.5713598  38.9361444
  17.2483486 108.0944155  39.1448993  14.8979966 101.5399659  36.5163636
  14.0364445 101.8380913  36.8080373  14.9242401 101.7570058  35.5844668
  10.6510422 106.2065002  29.7327006  11.3534465 106.6586046  30.2000933
  10.3191050 105.5648821  30.3606899   9.0990783 104.7976759  44.1078216
   8.4689444 105.4793040  44.3413613   8.9926871 104.6859840  43.1631354
   4.3935756 104.4648555  35.0344140   3.6034810 104.7206083  34.5584251
   4.8847003 105.2796893  35.1396180  26.5005558 108.1492543  34.1334392
  25.7469267 107.5799941  33.9778397  26.6353099 108.1155207  35.0805027
   8.3771526  99.0997525  46.4703467   7.9838472  98.5463723  47.1451111
   9.1937666  99.4108103  46.8609984  11.2939487 100.5155404  44.0623723
  12.0349200 101.1162557  43.9828186  11.5257410  99.7733042  43.5041766
   6.4380825 105.7011771  42.3401953   6.3234340 104.7997028  42.6409052
   5.5825343 105.9475468  41.9886770  15.2396650  96.5436507  38.3388005
  14.8960919  97.4338148  38.2627116  15.6075613  96.3538164  37.4757590
  15.2046933 106.5345118  26.8460440  14.6893556 107.3049722  27.0848828
  14.9324241 105.8610254  27.4693502  12.7894044 101.3794819  31.9045679
  11.9335640 100.9901669  31.7251317  13.2020995 101.4586779  31.0445464
  14.3193190  98.9141162  36.3037238  13.8157986  98.8771297  35.4905044
  14.6123797  99.8233905  36.3633895  10.5636076  98.9979892  35.3103420
  11.4289073  98.8022700  34.9509309  10.6313585  98.7690243  36.2372777
  20.1781207 109.2877472  28.7813614  19.4010650 108.9488632  28.3368776
  20.8572688 109.2930096  28.1068579  14.9933236 104.4072210  28.6720221
  14.6883371 104.7218359  29.5230365  15.9463678 104.4853630  28.7147554
  18.4172514 108.7611454  35.4380222  17.7596188 109.4510715  35.5260350
  19.2212913 109.1507886  35.7814208   8.1698395 101.2282099  32.6819787
   8.7442147 101.0057281  31.9492980   8.7569378 101.2970794  33.4348388
  17.2277972 107.1155826  33.4884163  17.7409854 107.7485818  33.9905873
  17.8779196 106.5157022  33.1227523  10.4721063  98.1023348  31.4094856
   9.8185475  97.7872366  30.7851471  10.4301537  97.4799089  32.1354679
  13.7058803 104.5905282  35.7342504  12.7881365 104.8120229  35.5764192
  14.1218947 104.6651592  34.8754211  14.4893851 105.9896698  30.8645184
  15.2365670 106.5018095  30.5552306  14.7585441 105.6680750  31.7249578
  16.9372688 103.0253814  32.8463973  16.1995445 102.5131200  33.1774216
  17.1899462 102.5854195  32.0347250  17.0384316  95.8030066  33.4405743
  17.3443192  94.9427429  33.1531658  17.7636920  96.3947686  33.2404737
  11.3105395 106.0983859  33.9481934  11.3654005 105.1457695  33.8724410
  10.4996597 106.2543298  34.4323232   9.2497755 104.7160919  31.7072313
   8.4365621 105.0155089  32.1137505   9.7456749 104.3216607  32.4246795
  14.8471967 105.1802743  40.5387207  15.2021355 105.4074216  41.3981672
  15.4944098 105.5121120  39.9164462  20.5769704 108.3021179  31.2436536
  20.4387602 108.4922775  30.3157725  20.2205923 109.0640562  31.7004587
   8.7411830 102.2879274  37.3233548   9.3811209 102.1468033  36.6256511
   7.9089361 102.0013788  36.9472150  20.6039083 110.3697706  36.2547807
  21.0375590 110.2772995  37.1030861  21.3170664 110.3455207  35.6167823
   5.7440446 102.2579599  32.1006534   6.0047264 103.1724932  31.9915695
   6.5657619 101.7904042  32.2503147   7.2165372 103.6717356  39.2705359
   7.8888425 103.4634719  38.6218008   6.3895158 103.4739442  38.8310591
  21.4654633 110.4121407  38.7880692  21.6590523 111.3167217  39.0339967
  21.3655251 109.9528826  39.6219277  13.1190944 100.2979297  41.2871020
  12.4718859 100.9969247  41.1935496  13.8891959 100.7315441  41.6547268
  13.2955078 108.1360062  39.3467840  14.2247138 108.2871222  39.1736807
  12.8746108 108.2244083  38.4916486   7.6192869 106.9459959  40.0307796
   7.4812667 106.2140198  40.6319335   8.5297792 106.8568859  39.7491984
  10.2475170 106.6579919  39.5191476  10.9574788 106.0173111  39.4778094
  10.2044478 106.9092814  40.4417657   8.9604104 103.6445137  41.3387115
   8.4241461 103.1935875  41.9908712   8.3720812 103.7791045  40.5957580
   4.6943225 102.7801144  38.4240110   4.6101414 102.1726814  37.6890520
   3.8725931 103.2710163  38.4249606  14.8666939 101.2654708  33.7910305
  15.3635638 100.5124670  33.4711375  14.0953920 101.3019024  33.2253514
  22.7196696 106.9695073  35.4328596  22.7086572 107.8519789  35.0622529
  21.8514076 106.6166624  35.2383133  11.4501907 103.4072091  33.5181989
  11.0799695 102.8543131  34.2062895  11.9461000 102.8030224  32.9656989
  19.3369271 105.8643714  31.8998762  19.8029723 106.6971706  31.8259065
  19.7876771 105.3988696  32.6044021  17.3085934  98.2324301  35.9389664
  16.3949013  98.4628528  36.1071871  17.7379035  98.3162745  36.7903696
  17.0792392 106.4214193  38.4389558  16.4263842 106.6690101  37.7842010
  17.4572772 105.6078331  38.1052035  13.1279965 107.1634004  44.9255595
  12.4520602 107.0628134  45.5957970  13.9507599 107.0073218  45.3891592
   6.8467241 100.8176082  39.7635095   6.9108568 101.6790912  39.3512493
   6.7834361 100.2050083  39.0307454   6.3219514 102.8899214  43.4108130
   6.9491552 102.5076291  44.0245654   5.4647433 102.6713416  43.7763822
   6.6279303 102.7731640  35.3254033   5.9065889 103.3867607  35.1861506
   7.4172559 103.3089405  35.2470679   9.4305617 100.1086066  41.5994685
   9.9540019 100.3548363  42.3620994   9.2117950 100.9406101  41.1797822
  10.6358162 101.0499761  39.2844355  10.2954982 100.2507574  39.6865035
   9.9297168 101.3501472  38.7121189  11.2874634  98.1349074  37.7371678
  12.1100703  97.6609552  37.6150569  11.5312697  98.9139558  38.2370365
   9.9282868 101.1637332  28.0334580  10.6491231 101.5418585  27.5298297
   9.3048172 101.8826209  28.1369558  14.0713991 101.8682481  28.9692912
  14.2877606 102.7507119  28.6681741  13.5908058 101.4768695  28.2398554
   8.8113213 104.8268194  35.5463657   8.6657793 105.1408498  36.4387939
   8.3338416 105.4453095  34.9934556  10.6709595 101.8170742  35.5944547
  10.6571164 100.9211836  35.2576845  11.3882024 101.8241406  36.2282833
  12.5235726 102.2508083  37.6397674  12.2653504 103.1725153  37.6382004
  11.9920767 101.8538517  38.3298138  10.0746491 100.6985123  30.8632117
  10.1962403  99.7701769  31.0623004   9.7848534 100.7123809  29.9510432
  12.9437682  98.3840033  33.9998837  12.9659379  98.4479366  33.0450816
  13.3605741  97.5444542  34.1939343  23.3221306 108.1195293  32.0378059
  23.7652452 107.3702618  31.6397182  22.4447816 108.1105429  31.6551791
   9.5587571 102.2117120  45.0722049   9.6075726 103.0879243  44.6899819
  10.1010085 101.6694513  44.4993693  20.1640292 109.6050710  41.6655915
  20.2138297 109.4400717  42.6071438  20.0554215 108.7377969  41.2753796
  17.4544054 105.5881638  42.9815222  18.3553917 105.4488103  42.6899219
  17.5292029 105.7536093  43.9213399  11.7886859 102.9648492  41.8268408
  10.9190169 103.2582059  41.5550997  12.0246340 103.5488937  42.5475672
  22.8654171 109.5900531  34.4300507  23.7001062 110.0290335  34.5938067
  23.0013300 109.1139184  33.6108752  19.9145677 107.1480266  40.3777994
  20.3899798 107.3407912  39.5696846  18.9911242 107.2039452  40.1321378
  14.4925893  99.1828109  39.3433828  15.0107837  99.9189136  39.0180317
  14.1381026  99.4892103  40.1780587  14.7438487  95.6028392  34.8634725
  15.0240241  94.9351581  35.4895152  15.5289094  95.7957488  34.3509389
  18.6147346 104.0246026  38.6106300  19.5664769 104.1244124  38.6318524
  18.4450796 103.2324294  39.1204384  16.6361725 101.1101609  38.7965701
  16.0411657 101.3906622  38.1012190  16.3511422 101.5995510  39.5682442
  21.0935424 107.2452146  37.7248600  21.0611744 106.3068146  37.9108284
  21.7036047 107.3236182  36.9914425  21.2429912 104.0363189  37.7706883
  20.7268961 103.2521646  37.5836812  22.1269861 103.7081906  37.9353402
  18.9040639  97.7804205  33.7302696  18.7065460  97.4719293  34.6146028
  19.5140344  98.5065844  33.8600625  26.9111973 108.3068152  36.8654637
  27.6415362 108.0453441  37.4262340  26.3018919 107.5696874  36.9056705
  24.9927270 106.4476015  37.4629088  24.2660434 106.3131980  36.8545579
  24.5774557 106.7552844  38.2685806  12.7323737  98.5835065  29.8574930
  11.9224466  98.2382150  30.2330176  13.4208154  98.2742608  30.4462542
  14.6614286  97.6613112  31.4799227  15.2145324  98.0808565  32.1389250
  14.8984372  96.7348860  31.5222183  10.6847385 103.6500185  47.2601991
  10.5844112 104.5994542  47.1914082  10.4668927 103.3218424  46.3878061
  18.0393093  99.7713637  30.9877891  17.4591762 100.4298441  30.6055944
  17.7729025  98.9490981  30.5765309  16.4896659  99.1718694  33.1899212
  16.9896437  99.2835229  32.3813530  17.1332267  98.8679747  33.8300020
  10.5478655 107.0797324  46.0767052  10.0645737 107.8797684  46.2830942
  10.6339594 107.0905269  45.1234496  16.8217971 101.9313727  30.0434239
  15.9343826 102.2163378  29.8254434  17.2371960 101.7707490  29.1961516
  20.1732507 101.9560248  33.7588579  20.9492897 102.4456700  34.0313196
  19.4480641 102.3818302  34.2160448  22.6105065 102.6687867  34.8162519
  23.2049556 102.4283603  34.1055828  22.6831649 101.9494998  35.4436056
  16.7958994 107.4468263  30.2584530  16.7394196 107.9036814  29.4192162
  17.3487337 106.6858948  30.0807372  20.6063800 103.2357995  31.0834649
  20.3500735 102.8354631  31.9142857  19.9816668 103.9501789  30.9584788
  24.9176138 105.9754068  33.5905941  24.3575696 106.0447257  34.3637503
  24.3119642 105.7995053  32.8705437  17.5293774 108.6373044  27.5537059
  17.4742577 108.4717316  26.6125503  16.9039829 109.3449077  27.7099249
   2.3186289 103.8741109  41.3798481   2.9645152 103.3640063  41.8685706
   2.1103440 104.6109790  41.9541906  10.8389899  98.1381153  27.1322377
  10.8268569  99.0822993  27.2890648  11.7313321  97.9551299  26.8381838
  14.6542019  94.7323930  31.3868314  13.8874414  94.1782417  31.5324996
  15.0652724  94.8045799  32.2482466   6.6583780 101.0208726  45.4773495
   7.5215241 100.6645531  45.6876820   6.0849190 100.6822621  46.1648900
  26.0790404 111.8728424  38.3388005  25.7354674 112.7630066  38.2627116
  26.4469367 111.6830082  37.4757590  27.8778070 111.1321984  33.4405743
  28.1836947 110.2719347  33.1531658  28.6030675 111.7239604  33.2404737
  28.1479688 113.5616219  35.9389664  27.2342768 113.7920446  36.1071871
  28.5772789 113.6454663  36.7903696  25.5832242 110.9320310  34.8634725
  25.8633996 110.2643499  35.4895152  26.3682849 111.1249405  34.3509389
  29.7434393 113.1096122  33.7302696  29.5459215 112.8011210  34.6146028
  30.3534099 113.8357761  33.8600625  25.5008040 112.9905029  31.4799227
  26.0539079 113.4100483  32.1389250  25.7378126 112.0640777  31.5222183
  25.4935773 110.0615848  31.3868314  24.7268169 109.5074334  31.5324996
  25.9046478 110.1337716  32.2482466   4.8218051  54.4970830  20.8579699
   4.0681759  53.9278228  20.7023703   4.9565592  54.4633494  21.8050334
   1.6433798  54.4673580  18.7623366   2.0864944  53.7180905  18.3642489
   0.7660309  54.4583716  18.3797098   1.1866663  55.9378818  21.1545813
   2.0213554  56.3768622  21.3183374   1.3225792  55.4617471  20.3354059
   5.2324466  54.6546440  23.5899943   5.9627854  54.3931728  24.1507647
   4.6231411  53.9175162  23.6302011   3.3139763  52.7954302  24.1874394
   2.5872926  52.6610267  23.5790886   2.8987050  53.1031131  24.9931112
   0.9317558  49.0166154  21.5407826   1.5262048  48.7761890  20.8301134
   1.0044141  48.2973285  22.1681362   3.2388630  52.3232355  20.3151247
   2.6788188  52.3925545  21.0882809   2.6332134  52.1473340  19.5950743
   4.8244649  68.9988869  23.0081203   5.4623059  68.8795617  22.3044543
   4.7065492  69.9469713  23.0669155   1.6334355  68.9516297  22.9442728
   1.2952867  68.8357362  22.0563262   2.5024123  68.5507462  22.9243734
   2.1154138  70.1051149  28.9028933   2.1042779  69.7103947  28.0309437
   2.2774778  69.3717222  29.4962705   4.3785917  66.7240323  20.0834411
   5.1649007  66.3059746  19.7324828   4.6424622  67.6286415  20.2516059
   9.7794345  66.6615556  20.9867389  10.5119516  66.0914773  21.2205219
   9.0233700  66.2737157  21.4273895   1.3970464  69.0842798  18.1830732
   1.0328671  68.5573419  18.8943653   2.2537580  68.6941267  18.0097217
   7.3019765  60.3737130  25.4461998   6.9703090  61.2432541  25.2223213
   6.7065378  60.0573414  26.1256028   3.7951284  72.5749676  24.8457911
   3.4952007  73.4774715  24.7373718   3.4502344  72.3081860  25.6979064
   7.1948428  65.0932217  22.5255348   6.2865306  65.0247625  22.2314109
   7.1436024  65.5704162  23.3537174   1.2689294  66.5121862  30.4690245
   0.4922628  67.0715782  30.4593110   1.9079857  66.9978645  30.9905115
   9.0610075  63.2948655  24.3033222   8.4184455  63.5881188  23.6573017
   8.5565003  63.1801575  25.1086419   6.7150238  67.0411828  14.9919081
   7.6268094  67.2739215  14.8166779   6.2059885  67.6248872  14.4294160
   4.9991006  71.4636456  28.6280374   5.4074362  71.0218867  27.8835006
   4.2768267  70.8889084  28.8814567   1.3522076  66.4009063  26.0013931
   2.1983271  66.8248476  26.1448580   1.2920714  65.7442687  26.6952494
   5.3219821  72.0237647  22.3832663   4.6928683  72.1883361  21.6808731
   4.9345483  72.4379256  23.1543627   9.2009052  72.9592085  19.7377027
   8.5160091  73.3390986  19.1874060   9.2852902  73.5687411  20.4708974
   4.5021521  64.0613431  27.6595104   4.2582453  64.8155492  27.1229380
   4.7781452  64.4398779  28.4942352   6.4559984  70.6052044  26.3372370
   6.6676879  71.2483803  25.6606751   6.4089732  69.7714360  25.8694300
   4.0586213  63.2169864  23.2408942   3.1970692  63.5151118  23.5325680
   4.0848648  63.4340263  22.3089975   0.8747782  71.7612055  19.6482748
   1.3386128  72.0399758  18.8587370   0.6104581  70.8595499  19.4655839
   7.5705812  73.4823999  24.5094727   8.3923256  73.0804186  24.2277409
   7.5668215  73.3792233  25.4610843   1.3362415  73.0308042  26.6655438
   1.4006848  73.4928449  27.5013610   0.6273339  72.4005407  26.7937748
  15.6611805  69.8262747  20.8579699  14.9075513  69.2570145  20.7023703
  15.7959346  69.7925412  21.8050334   2.6778909  75.3199716  30.6634760
   2.2342764  74.5336095  30.3455665   3.3396123  75.5078867  29.9978651
   4.7760148  75.6002516  28.6916162   4.7578623  76.4211397  28.1996431
   5.6980068  75.4756591  28.9166303   1.2333202  73.1146646  29.5339670
   1.7661538  72.3534934  29.3038978   0.7047283  72.8220297  30.2763824
   4.4002897  58.2206712  25.0633312   4.0567166  59.1108353  24.9872422
   4.7681859  58.0308369  24.2002897   4.3653179  68.2115323  13.5705747
   3.8499803  68.9819927  13.8094134   4.0930488  67.5380459  14.1938808
   1.9500290  63.0565023  18.6290985   1.0941887  62.6671874  18.4496624
   2.3627242  63.1356984  17.7690771   3.4799437  60.5911367  23.0282545
   2.9764233  60.5541502  22.2150350   3.7730044  61.5004109  23.0879202
   9.3387454  70.9647677  15.5058920   8.5616896  70.6258837  15.0614082
  10.0178934  70.9700301  14.8313885   4.1539483  66.0842415  15.3965528
   3.8489618  66.3988564  16.2475671   5.1069925  66.1623835  15.4392861
   7.5778760  70.4381659  22.1625528   6.9202435  71.1280920  22.2505657
   8.3819160  70.8278091  22.5059515   6.3884219  68.7926031  20.2129470
   6.9016101  69.4256023  20.7151180   7.0385443  68.1927227  19.8472830
   2.8665050  66.2675487  22.4587811   1.9487611  66.4890434  22.3009499
   3.2825194  66.3421797  21.5999518   3.6500098  67.6666903  17.5890491
   4.3971917  68.1788300  17.2797613   3.9191687  67.3450955  18.4494884
   7.1546015  73.7732033  18.3408613   6.7008343  72.9322943  18.3973803
   6.5239982  74.4093431  18.6783393   6.0978935  64.7024019  19.5709280
   5.3601692  64.1901405  19.9019523   6.3505709  64.2624400  18.7592557
   5.5978955  75.6108529  19.2758431   5.8901929  76.1713587  18.5570796
   6.1077575  75.9037090  20.0311590   6.1990562  57.4800271  20.1651049
   6.5049439  56.6197634  19.8776964   6.9243167  58.0717891  19.9650043
   4.0078214  66.8572948  27.2632513   4.3627601  67.0844421  28.1226979
   4.6550345  67.1891325  26.6409768   9.7375951  69.9791384  17.9681842
   9.5993849  70.1692980  17.0403031   9.3812169  70.7410767  18.4249893
   9.7645330  72.0467911  22.9793114  10.1981837  71.9543200  23.8276168
  10.4776911  72.0225411  22.3413130   3.4973225  75.6470005  24.5126214
   3.5510247  76.2160941  25.2803930   2.6288006  75.8171890  24.1480251
  10.6260880  72.0891612  25.5125999  10.8196770  72.9937422  25.7585274
  10.5261498  71.6299031  26.3464584   2.2797191  61.9749502  28.0116326
   1.6325106  62.6739452  27.9180803   3.0498206  62.4085646  28.3792575
   5.6875988  72.2398354  31.0866880   5.5361495  72.0108906  30.1696963
   5.6780668  73.1968956  31.0998225   2.4561325  69.8130267  26.0713146
   3.3853385  69.9641427  25.8982113   2.0352355  69.9014288  25.2161793
   2.8054872  73.2162534  21.2300522   2.4704704  73.1763304  22.1258171
   2.3058817  72.5507250  20.7570932   7.3968195  75.2717477  29.1643362
   7.3380741  74.5876697  28.4973945   7.7987713  76.0136467  28.7123988
   7.3985602  73.2357061  27.3957341   6.5112381  72.8982983  27.5183740
   7.9684153  72.5040092  27.6326107   0.9286756  77.8958513  24.3618584
   0.8556927  78.7013485  24.8737889   0.4864149  78.0950479  23.5366606
   4.0273185  62.9424913  20.5155611   4.5241885  62.1894875  20.1956682
   3.2560167  62.9789229  19.9498821  11.8802943  68.6465278  22.1573903
  11.8692819  69.5289994  21.7867836  11.0120322  68.2936829  21.9628440
   3.3885439  77.7945347  26.5176743   4.1013411  78.4292812  26.4452645
   2.8975468  77.8909213  25.7016745   5.1102966  71.6996600  18.0894035
   4.1759245  71.8198062  17.9198739   5.2879635  70.7969067  17.8254045
   8.4975518  67.5413919  18.6244069   8.9635970  68.3741911  18.5504372
   8.9483018  67.0758901  19.3289327   6.5651749  73.8857740  15.6230221
   6.8411593  73.7714335  16.5324095   5.6956247  73.4875225  15.5842394
   6.4692180  59.9094506  22.6634970   5.5555260  60.1398733  22.8317177
   6.8985282  59.9932950  23.5149003   6.2398639  68.0984398  25.1634864
   5.5870089  68.3460306  24.5087317   6.6179019  67.2848536  24.8297342
   3.2005813  78.1344091  19.2663035   3.3828207  77.3165747  19.7290787
   4.0238799  78.3511784  18.8287925   2.2886212  68.8404209  31.6500901
   1.6126849  68.7398339  32.3203277   3.1113846  68.6843423  32.1136899
   1.0308995  80.1471137  25.8858517   1.5827303  80.3102758  26.6507603
   1.3715188  80.7375574  25.2138542   5.8819869  74.9732394  31.7407172
   6.4259773  75.5862352  31.2462127   5.3006714  75.5311973  32.2574185
   4.1677382  78.0953112  22.8722200   4.0428521  77.2942852  22.3633145
   4.8256473  78.5899306  22.3836170   6.2312290  75.8962132  24.5001750
   5.2842626  75.7767483  24.4280076   6.5795063  75.0084630  24.5828011
   3.2358724  75.6914848  20.7006102   3.0883686  74.7631556  20.8813672
   4.0612217  75.7134939  20.2163177   6.8392845  76.5143407  21.7870975
   7.7639393  76.3086269  21.6495426   6.6708149  76.2659808  22.6960316
   3.2320238  63.5452686  15.6938219   3.4483852  64.4277324  15.3927047
   2.7514305  63.1538900  14.9643861   1.6841973  63.9278288  24.3642981
   1.4259751  64.8495358  24.3627311   1.1527013  63.5308722  25.0543445
   6.6288162  77.0329075  17.1433066   6.8025039  76.4675497  16.3906919
   7.1217053  77.8329970  16.9612556   2.1043929  60.0610238  20.7244143
   2.1265625  60.1249571  19.7696123   2.5211988  59.2214747  20.9184649
  12.4827553  69.7965498  18.7623366  12.9258699  69.0472823  18.3642489
  11.6054063  69.7875634  18.3797098   9.5154757  73.7995545  15.7717295
  10.0406081  74.1382817  15.0466615   9.4277110  72.8642560  15.5880430
   1.1774806  77.7129618  27.9007172   1.4861932  77.4678765  28.7729871
   1.9750288  77.9176257  27.4126042   9.2048663  74.4328448  31.0768493
   8.4144207  74.4152587  30.5372992   8.9682018  74.9716742  31.8317530
   9.3246538  71.2820915  28.3901222   9.3744543  71.1170922  29.3316744
   9.2160462  70.4148174  27.9999102   6.6150301  67.2651843  29.7060528
   7.5160164  67.1258308  29.4144526   6.6898275  67.4306297  30.6458706
  10.8264735  73.7017856  28.6343243  10.5349544  74.0647837  29.4706704
  10.2136867  72.9884864  28.4556575  12.0260418  71.2670736  21.1545813
  12.8607309  71.7060540  21.3183374  12.1619546  70.7909389  20.3354059
   9.0751923  68.8250471  27.1023301   9.5506045  69.0178117  26.2942153
   8.1517489  68.8809657  26.8566685   3.6532140  60.8598314  26.0679135
   4.1714084  61.5959341  25.7425624   3.2987273  61.1662308  26.9025894
   3.9044734  57.2798597  21.5880032   4.1846488  56.6121786  22.2140458
   4.6895341  57.4727692  21.0754695   7.7753592  65.7016231  25.3351607
   8.7271015  65.8014329  25.3563831   7.6057043  64.9094499  25.8449691
   5.7967972  62.7871814  25.5211008   5.2017904  63.0676827  24.8257496
   5.5117669  63.2765715  26.2927749  10.2541670  68.9222351  24.4493906
  10.2217990  67.9838351  24.6353590  10.8642294  69.0006387  23.7159731
  10.4036159  65.7133394  24.4952190   9.8875207  64.9291851  24.3082118
  11.2876107  65.3852111  24.6598709   8.0646886  59.4574410  20.4548002
   7.8671707  59.1489498  21.3391334   8.6746591  60.1836048  20.5845932
  16.0718220  69.9838357  23.5899943  16.8021609  69.7223646  24.1507647
  15.4625166  69.2467079  23.6302011  14.1533517  68.1246220  24.1874394
  13.4266681  67.9902185  23.5790886  13.7380804  68.4323049  24.9931112
   1.9763694  71.8436150  31.9521767   2.8966703  72.0214749  32.1461814
   1.9413277  70.8992195  31.8001467   1.8929984  60.2605270  16.5820237
   1.0830712  59.9152355  16.9575483   2.5814401  59.9512813  17.1707849
   3.8220532  59.3383316  18.2044534   4.3751571  59.7578770  18.8634557
   4.0590619  58.4119065  18.2467490   7.1999339  61.4483842  17.7123198
   6.6198008  62.1068646  17.3301250   6.9335272  60.6261186  17.3010615
   5.6502906  60.8488899  19.9144518   6.1502684  60.9605434  19.1058837
   6.2938514  60.5449952  20.5545327   5.9824217  63.6083932  16.7679546
   5.0950072  63.8933583  16.5499741   6.3978206  63.4477695  15.9206823
   9.3338754  63.6330453  20.4833885  10.1099144  64.1226905  20.7558502
   8.6086888  64.0588507  20.9405755  11.7711312  64.3458072  21.5407826
  12.3655803  64.1053808  20.8301134  11.8437896  63.6265203  22.1681362
   5.9565241  69.1238468  16.9829836   5.9000443  69.5807019  16.1437469
   6.5093584  68.3629153  16.8052679   9.7670047  64.9128200  17.8079956
   9.5106981  64.5124835  18.6388163   9.1422915  65.6271994  17.6830095
  14.0782385  67.6524273  20.3151247  13.5181943  67.7217462  21.0882809
  13.4725888  67.4765258  19.5950743   6.6900020  70.3143249  14.2782365
   6.6348824  70.1487521  13.3370810   6.0646076  71.0219282  14.4344555
   4.0045928  72.6192161  33.6035928   4.8737087  72.7932813  33.2422563
   3.5252679  73.4386578  33.4811658   3.8148265  56.4094135  18.1113621
   3.0480661  55.8552621  18.2570303   4.2258970  56.4816004  18.9727772
  15.6638403  84.3280787  23.0081203  16.3016813  84.2087534  22.3044543
  15.5459246  85.2761631  23.0669155  12.4728110  84.2808215  22.9442728
  12.1346621  84.1649280  22.0563262  13.3417878  83.8799380  22.9243734
  12.9547893  85.4343067  28.9028933  12.9436533  85.0395865  28.0309437
  13.1168532  84.7009139  29.4962705   9.6755154  88.2180179  27.8508117
   9.3845020  89.1225809  27.7354783  10.3112138  88.2596706  28.5652187
  10.6011361  85.5957027  24.4409477  11.1974933  85.3713050  23.7266440
  10.6586332  84.8541773  25.0434925  15.2179672  82.0532241  20.0834411
  16.0042761  81.6351664  19.7324828  15.4818376  82.9578333  20.2516059
  20.6188099  81.9907474  20.9867389  21.3513271  81.4206691  21.2205219
  19.8627455  81.6029074  21.4273895  12.2364219  84.4134716  18.1830732
  11.8722426  83.8865336  18.8943653  13.0931335  84.0233185  18.0097217
  18.1413519  75.7029048  25.4461998  17.8096844  76.5724459  25.2223213
  17.5459133  75.3865332  26.1256028  14.6345039  87.9041594  24.8457911
  14.3345762  88.8066633  24.7373718  14.2896098  87.6373777  25.6979064
   8.0857520  84.3555391  20.8794615   7.1608017  84.2231605  21.0872307
   8.3341934  85.1349610  21.3764558  18.0342183  80.4224134  22.5255348
  17.1259060  80.3539543  22.2314109  17.9829778  80.8996079  23.3537174
  12.1083048  81.8413780  30.4690245  11.3316383  82.4007700  30.4593110
  12.7473611  82.3270563  30.9905115  19.9003829  78.6240573  24.3033222
  19.2578209  78.9173106  23.6573017  19.3958758  78.5093493  25.1086419
  17.5543993  82.3703746  14.9919081  18.4661849  82.6031133  14.8166779
  17.0453640  82.9540790  14.4294160  10.3629421  84.6499233  30.0308212
  11.1044105  85.1884277  29.7543036   9.6566406  85.2765522  30.1879764
  15.8384760  86.7928374  28.6280374  16.2468116  86.3510784  27.8835006
  15.1162022  86.2181001  28.8814567  12.1915830  81.7300980  26.0013931
  13.0377026  82.1540394  26.1448580  12.1314468  81.0734605  26.6952494
  16.1613575  87.3529564  22.3832663  15.5322437  87.5175278  21.6808731
  15.7739237  87.7671174  23.1543627  20.0402807  88.2884002  19.7377027
  19.3553845  88.6682904  19.1874060  20.1246656  88.8979329  20.4708974
  15.3415276  79.3905349  27.6595104  15.0976208  80.1447409  27.1229380
  15.6175206  79.7690696  28.4942352  17.2953739  85.9343961  26.3372370
  17.5070634  86.5775721  25.6606751  17.2483487  85.1006278  25.8694300
  14.8979967  78.5461782  23.2408942  14.0364447  78.8443035  23.5325680
  14.9242402  78.7632181  22.3089975  11.7141537  87.0903972  19.6482748
  12.1779882  87.3691675  18.8587370  11.4498335  86.1887417  19.4655839
   8.6065618  86.6375454  22.5862511   9.1766975  87.0662722  21.9479996
   9.1973730  86.3558039  23.2846697  10.6510423  83.2127125  16.4572313
  11.3534466  83.6648168  16.9246239  10.3191051  82.5710944  17.0852206
   9.0990784  81.8038881  30.8323522   8.4689445  82.4855162  31.0658919
   8.9926872  81.6921963  29.8876661   4.3935757  81.4710677  21.7589447
   3.6034811  81.7268206  21.2829557   4.8847004  82.2859015  21.8641487
  18.4099566  88.8115917  24.5094727  19.2317010  88.4096104  24.2277409
  18.4061969  88.7084151  25.4610843  12.1756170  88.3599960  26.6655438
  12.2400602  88.8220367  27.5013610  11.4667094  87.7297325  26.7937748
   2.6773460  81.7241168  24.1904437   2.9281498  82.6088178  24.4562013
   3.2133008  81.5445769  23.4179529  26.5005560  85.1554665  20.8579699
  25.7469268  84.5862063  20.7023703  26.6353101  85.1217330  21.8050334
   8.3771527  76.1059647  33.1948773   7.9838473  75.5525846  33.8696418
   9.1937668  76.4170226  33.5855291  11.2939488  77.5217526  30.7869030
  12.0349202  78.1224679  30.7073492  11.5257411  76.7795164  30.2287073
   6.4380826  82.7073894  29.0647260   6.3234341  81.8059151  29.3654359
   5.5825344  82.9537590  28.7132076  13.5172664  90.6491634  30.6634760
  13.0736518  89.8628012  30.3455665  14.1789878  90.8370784  29.9978651
   8.2759785  92.1787436  25.1895439   8.8267210  92.0504499  24.4172433
   7.4371261  92.4782325  24.8390332  15.6153902  90.9294434  28.6916162
  15.5972377  91.7503315  28.1996431  16.5373822  90.8048509  28.9166303
  12.0726956  88.4438563  29.5339670  12.6055293  87.6826852  29.3038978
  11.5441037  88.1512215  30.2763824  15.2396651  73.5498629  25.0633312
  14.8960921  74.4400271  24.9872422  15.6075614  73.3600287  24.2002897
  15.2046934  83.5407240  13.5705747  14.6893557  84.3111845  13.8094134
  14.9324242  82.8672377  14.1938808  12.7894045  78.3856941  18.6290985
  11.9335641  77.9963792  18.4496624  13.2020997  78.4648902  17.7690771
  14.3193192  75.9203284  23.0282545  13.8157987  75.8833420  22.2150350
  14.6123798  76.8296027  23.0879202  10.5636077  76.0042014  22.0348727
  11.4289074  75.8084823  21.6754616  10.6313586  75.7752366  22.9618083
  20.1781208  86.2939595  15.5058920  19.4010651  85.9550755  15.0614082
  20.8572689  86.2992218  14.8313885  14.9933237  81.4134332  15.3965528
  14.6883373  81.7280482  16.2475671  15.9463679  81.4915752  15.4392861
  18.4172515  85.7673576  22.1625528  17.7596189  86.4572838  22.2505657
  19.2212914  86.1570008  22.5059515   8.1698397  78.2344222  19.4065093
   8.7442148  78.0119404  18.6738286   8.7569379  78.3032917  20.1593695
  17.2277974  84.1217949  20.2129470  17.7409855  84.7547941  20.7151180
  17.8779198  83.5219144  19.8472830  10.4721064  75.1085471  18.1340163
   9.8185477  74.7934488  17.5096778  10.4301538  74.4861211  18.8599986
  13.7058805  81.5967405  22.4587811  12.7881366  81.8182352  22.3009499
  14.1218948  81.6713715  21.5999518  14.4893852  82.9958820  17.5890491
  15.2365671  83.5080217  17.2797613  14.7585442  82.6742873  18.4494884
  17.9939770  89.1023950  18.3408613  17.5402097  88.2614860  18.3973803
  17.3633737  89.7385349  18.6783393  16.9372689  80.0315936  19.5709280
  16.1995446  79.5193323  19.9019523  17.1899463  79.5916318  18.7592557
  16.4372709  90.9400447  19.2758431  16.7295684  91.5005504  18.5570796
  16.9471330  91.2329008  20.0311590  17.0384317  72.8092188  20.1651049
  17.3443194  71.9489552  19.8776964  17.7636922  73.4009809  19.9650043
  11.3105397  83.1045982  20.6727240  11.3654006  82.1519818  20.5969717
  10.4996599  83.2605421  21.1568539   9.2497756  81.7223041  18.4317619
   8.4365622  82.0217212  18.8382811   9.7456751  81.3278730  19.1492102
  14.8471968  82.1864866  27.2632513  15.2021356  82.4136339  28.1226979
  15.4944099  82.5183243  26.6409768  20.5769705  85.3083302  17.9681842
  20.4387604  85.4984898  17.0403031  20.2205924  86.0702684  18.4249893
   8.7411831  79.2941397  24.0478854   9.3811211  79.1530156  23.3501818
   7.9089362  79.0075910  23.6717456  20.6039085  87.3759829  22.9793114
  21.0375591  87.2835118  23.8276168  21.3170665  87.3517329  22.3413130
  14.3366980  90.9761923  24.5126214  14.3904002  91.5452859  25.2803930
  13.4681761  91.1463808  24.1480251   5.7440448  79.2641722  18.8251841
   6.0047265  80.1787055  18.7161002   6.5657620  78.7966164  18.9748454
   7.2165373  80.6779479  25.9950666   7.8888426  80.4696841  25.3463314
   6.3895160  80.4801565  25.5555898  21.4654634  87.4183529  25.5125999
  21.6590524  88.3229340  25.7585274  21.3655252  86.9590948  26.3464584
  13.1190945  77.3041420  28.0116326  12.4718860  78.0031370  27.9180803
  13.8891960  77.7377564  28.3792575  16.5269743  87.5690272  31.0866880
  16.3755249  87.3400824  30.1696963  16.5174422  88.5260873  31.0998225
  13.2955079  85.1422185  26.0713146  14.2247139  85.2933344  25.8982113
  12.8746109  85.2306206  25.2161793  12.0943411  89.1672849  23.8411684
  11.9554497  88.7991634  24.7137622  11.3058007  89.6820489  23.6695642
  13.6448626  88.5454452  21.2300522  13.3098459  88.5055222  22.1258171
  13.1452572  87.8799168  20.7570932   7.6192870  83.9522082  26.7553103
   7.4812668  83.2202321  27.3564642   8.5297794  83.8630982  26.4737290
  10.2475171  83.6642041  26.2436782  10.9574789  83.0235233  26.2023401
  10.2044479  83.9154936  27.1662963  18.2361950  90.6009395  29.1643362
  18.1774496  89.9168615  28.4973945  18.6381468  91.3428385  28.7123988
   8.9604105  80.6507259  28.0632422   8.4241462  80.1997998  28.7154018
   8.3720813  80.7853168  27.3202886  18.2379357  88.5648979  27.3957341
  17.3506136  88.2274900  27.5183740  18.8077908  87.8332010  27.6326107
   4.6943226  79.7863267  25.1485416   4.6101415  79.1788936  24.4135826
   3.8725933  80.2772285  25.1494913  11.7680510  93.2250431  24.3618584
  11.6950682  94.0305402  24.8737889  11.3257903  93.4242397  23.5366606
  14.8666940  78.2716830  20.5155611  15.3635640  77.5186793  20.1956682
  14.0953921  78.3081147  19.9498821  22.7196697  83.9757196  22.1573903
  22.7086574  84.8581911  21.7867836  21.8514077  83.6228747  21.9628440
  14.2279194  93.1237265  26.5176743  14.9407166  93.7584730  26.4452645
  13.7369222  93.2201131  25.7016745  15.9496721  87.0288518  18.0894035
  15.0152999  87.1489980  17.9198739  16.1273389  86.1260984  17.8254045
  11.4501909  80.4134213  20.2427296  11.0799696  79.8605254  20.9308202
  11.9461001  79.8092347  19.6902296  19.3369272  82.8705837  18.6244069
  19.8029724  83.7033828  18.5504372  19.7876773  82.4050818  19.3289327
   9.2791107  90.8731708  27.3382314   9.9800567  91.5068191  27.4911708
   8.8086222  91.2146440  26.5777953  17.4045503  89.2149658  15.6230221
  17.6805347  89.1006253  16.5324095  16.5350002  88.8167143  15.5842394
  17.3085935  75.2386424  22.6634970  16.3949015  75.4690651  22.8317177
  17.7379036  75.3224868  23.5149003  17.0792393  83.4276316  25.1634864
  16.4263844  83.6752223  24.5087317  17.4572773  82.6140454  24.8297342
  14.0399567  93.4636009  19.2663035  14.2221962  92.6457665  19.7290787
  14.8632553  93.6803701  18.8287925  13.1279966  84.1696127  31.6500901
  12.4520603  84.0690256  32.3203277  13.9507600  84.0135341  32.1136899
  11.8702749  95.4763054  25.8858517  12.4221057  95.6394676  26.6507603
  12.2108943  96.0667492  25.2138542   6.8467242  77.8238204  26.4880402
   6.9108569  78.6853035  26.0757800   6.7834363  77.2112206  25.7552761
   6.3219515  79.8961337  30.1353436   6.9491554  79.5138414  30.7490961
   5.4647434  79.6775539  30.5009129  16.7213623  90.3024312  31.7407172
  17.2653527  90.9154270  31.2462127  16.1400468  90.8603890  32.2574185
  15.0071136  93.4245030  22.8722200  14.8822276  92.6234770  22.3633145
  15.6650228  93.9191223  22.3836170   6.6279305  79.7793762  22.0499340
   5.9065890  80.3929730  21.9106813   7.4172560  80.3151527  21.9715986
  17.0706045  91.2254050  24.5001750  16.1236380  91.1059401  24.4280076
  17.4188818  90.3376548  24.5828011   9.4305618  77.1148189  28.3239992
   9.9540020  77.3610485  29.0866301   9.2117951  77.9468224  27.9043129
  14.0752478  91.0206766  20.7006102  13.9277441  90.0923474  20.8813672
  14.9005972  91.0426857  20.2163177  17.6786600  91.8435325  21.7870975
  18.6033147  91.6378186  21.6495426  17.5101903  91.5951726  22.6960316
  10.6358163  78.0561884  26.0089662  10.2954984  77.2569697  26.4110342
   9.9297170  78.3563595  25.4366495  11.2874635  75.1411196  24.4616985
  12.1100704  74.6671675  24.3395875  11.5312699  75.9201680  24.9615671
   9.9282870  78.1699455  14.7579887  10.6491232  78.5480708  14.2543604
   9.3048174  78.8888332  14.8614865  14.0713992  78.8744604  15.6938219
  14.2877607  79.7569242  15.3927047  13.5908060  78.4830817  14.9643861
   8.8113214  81.8330317  22.2708964   8.6657795  82.1470620  23.1633245
   8.3338417  82.4515217  21.7179862  10.6709597  78.8232865  22.3189853
  10.6571165  77.9273958  21.9822151  11.3882025  78.8303529  22.9528139
  12.5235727  79.2570205  24.3642981  12.2653505  80.1787276  24.3627311
  11.9920768  78.8600640  25.0543445  17.4681916  92.3620992  17.1433066
  17.6418794  91.7967415  16.3906919  17.9610807  93.1621887  16.9612556
   3.2858876  84.3735661  25.2096625   2.7412344  85.1495469  25.3416899
   4.1638226  84.7206466  25.0515746  10.0746493  77.7047245  17.5877423
  10.1962404  76.7763891  17.7868311   9.7848535  77.7185931  16.6755739
  12.9437683  75.3902156  20.7244143  12.9659380  75.4541489  19.7696123
  13.3605742  74.5506664  20.9184649  23.3221307  85.1257415  18.7623366
  23.7652453  84.3764740  18.3642489  22.4447818  85.1167552  18.3797098
   4.0724898  83.5005558  28.1026782   3.3306634  83.6488193  28.6891412
   3.7517642  83.7613823  27.2393531  20.3548512  89.1287462  15.7717295
  20.8799836  89.4674735  15.0466615  20.2670864  88.1934478  15.5880430
  12.0168560  93.0421536  27.9007172  12.3255687  92.7970683  28.7729871
  12.8144043  93.2468174  27.4126042   9.4863045  90.7397455  22.2034850
   8.8643054  90.0768160  21.9037078  10.1567912  90.7658587  21.5208498
   9.5587572  79.2179243  31.7967356   9.6075728  80.0941365  31.4145126
  10.1010086  78.6756636  31.2238999  20.0442418  89.7620366  31.0768493
  19.2537962  89.7444505  30.5372992  19.8075772  90.3008660  31.8317530
  20.1640293  86.6112832  28.3901222  20.2138298  86.4462840  29.3316744
  20.0554216  85.7440091  27.9999102  17.4544055  82.5943760  29.7060528
  18.3553918  82.4550225  29.4144526  17.5292030  82.7598215  30.6458706
  11.7886861  79.9710615  28.5513715  10.9190170  80.2644181  28.2796303
  12.0246341  80.5551060  29.2720978  21.6658490  89.0309774  28.6343243
  21.3743298  89.3939754  29.4706704  21.0530621  88.3176782  28.4556575
  22.8654172  86.5962654  21.1545813  23.7001063  87.0352458  21.3183374
  23.0013301  86.1201307  20.3354059  19.9145678  84.1542388  27.1023301
  20.3899800  84.3470035  26.2942153  18.9911243  84.2101574  26.8566685
  14.4925894  76.1890232  26.0679135  15.0107838  76.9251259  25.7425624
  14.1381027  76.4954225  26.9025894  14.7438489  72.6090515  21.5880032
  15.0240242  71.9413704  22.2140458  15.5289096  72.8019610  21.0754695
  18.6147347  81.0308149  25.3351607  19.5664770  81.1306246  25.3563831
  18.4450797  80.2386417  25.8449691  16.6361726  78.1163732  25.5211008
  16.0411659  78.3968744  24.8257496  16.3511423  78.6057633  26.2927749
  21.0935425  84.2514268  24.4493906  21.0611745  83.3130269  24.6353590
  21.7036048  84.3298305  23.7159731  21.2429913  81.0425312  24.4952190
  20.7268962  80.2583768  24.3082118  22.1269862  80.7144028  24.6598709
  18.9040640  74.7866327  20.4548002  18.7065461  74.4781415  21.3391334
  19.5140346  75.5127966  20.5845932  26.9111975  85.3130275  23.5899943
  27.6415363  85.0515563  24.1507647  26.3018920  84.5758997  23.6302011
  24.9927272  83.4538138  24.1874394  24.2660435  83.3194103  23.5790886
  24.5774559  83.7614966  24.9931112  12.8157448  87.1728067  31.9521767
  13.7360458  87.3506666  32.1461814  12.7807031  86.2284113  31.8001467
   5.8119521  85.0829102  24.5944549   6.0305530  86.0146210  24.6132582
   6.2245295  84.7237076  25.3799352  12.7323739  75.5897187  16.5820237
  11.9224467  75.2444272  16.9575483  13.4208155  75.2804731  17.1707849
  14.6614287  74.6675234  18.2044534  15.2145325  75.0870688  18.8634557
  14.8984373  73.7410982  18.2467490  10.6847386  80.6562308  33.9847297
  10.5844113  81.6056665  33.9159389  10.4668928  80.3280547  33.1123368
  18.0393094  76.7775759  17.7123198  17.4591763  77.4360563  17.3301250
  17.7729027  75.9553104  17.3010615  16.4896660  76.1780817  19.9144518
  16.9896439  76.2897352  19.1058837  17.1332268  75.8741870  20.5545327
  10.5478656  84.0859447  32.8012359  10.0645738  84.8859807  33.0076248
  10.6339595  84.0967391  31.8479803   6.4751994  87.9763981  24.8380793
   7.4295247  87.9447924  24.7710724   6.2764517  87.5154605  25.6531019
   7.0651376  86.5465097  27.4051591   7.8844265  87.0409176  27.4286428
   7.3388183  85.6297065  27.3769158  16.8217972  78.9375850  16.7679546
  15.9343827  79.2225500  16.5499741  17.2371961  78.7769613  15.9206823
  20.1732508  78.9622371  20.4833885  20.9492898  79.4518823  20.7558502
  19.4480642  79.3880425  20.9405755  22.6105067  79.6749990  21.5407826
  23.2049557  79.4345726  20.8301134  22.6831650  78.9557120  22.1681362
  16.7958996  84.4530386  16.9829836  16.7394197  84.9098937  16.1437469
  17.3487338  83.6921070  16.8052679  20.6063802  80.2420117  17.8079956
  20.3500736  79.8416753  18.6388163  19.9816670  80.9563911  17.6830095
  24.9176139  82.9816191  20.3151247  24.3575697  83.0509380  21.0882809
  24.3119643  82.8057175  19.5950743  17.5293775  85.6435167  14.2782365
  17.4742579  85.4779438  13.3370810  16.9039830  86.3511200  14.4344555
   2.3186290  80.8803231  28.1043788   2.9645154  80.3702185  28.5931013
   2.1103441  81.6171913  28.6787213  14.8439682  87.9484079  33.6035928
  15.7130842  88.1224731  33.2422563  14.3646434  88.7678496  33.4811658
  10.8389900  75.1443276  13.8567684  10.8268570  76.0885116  14.0135955
  11.7313322  74.9613421  13.5627145   9.0125862  95.0681180  25.2825362
   9.9153109  95.1004790  25.5991857   8.7863232  94.1381631  25.2971698
  14.6542020  71.7386052  18.1113621  13.8874416  71.1844539  18.2570303
  15.0652725  71.8107921  18.9727772   6.6583781  78.0270848  32.2018802
   7.5215242  77.6707653  32.4122126   6.0849192  77.6884743  32.8894206
  26.5032158  99.6572705  23.0081203  27.1410568  99.5379452  22.3044543
  26.3853001 100.6053549  23.0669155  23.3121864  99.6100133  22.9442728
  22.9740376  99.4941197  22.0563262  24.1811632  99.2091298  22.9243734
  23.7941647 100.7634984  28.9028933  23.7830288 100.3687783  28.0309437
  23.9562287 100.0301057  29.4962705  20.5148908 103.5472096  27.8508117
  20.2238774 104.4517727  27.7354783  21.1505893 103.5888624  28.5652187
  21.4405115 100.9248945  24.4409477  22.0368687 100.7004967  23.7266440
  21.4980087 100.1833690  25.0434925  26.0573426  97.3824158  20.0834411
  26.8436516  96.9643582  19.7324828  26.3212131  98.2870251  20.2516059
  31.4581853  97.3199392  20.9867389  32.1907025  96.7498608  21.2205219
  30.7021209  96.9320992  21.4273895  23.0757973  99.7426633  18.1830732
  22.7116180  99.2157254  18.8943653  23.9325089  99.3525102  18.0097217
  28.9807274  91.0320966  25.4461998  28.6490599  91.9016377  25.2223213
  28.3852887  90.7157250  26.1256028  25.4738793 103.2333512  24.8457911
  25.1739516 104.1358551  24.7373718  25.1289853 102.9665695  25.6979064
  18.9251275  99.6847309  20.8794615  18.0001771  99.5523523  21.0872307
  19.1735688 100.4641528  21.3764558  28.8735937  95.7516052  22.5255348
  27.9652814  95.6831460  22.2314109  28.8223533  96.2287997  23.3537174
  22.9476803  97.1705698  30.4690245  22.1710137  97.7299618  30.4593110
  23.5867366  97.6562481  30.9905115  30.7397584  93.9532490  24.3033222
  30.0971964  94.2465024  23.6573017  30.2352512  93.8385411  25.1086419
  28.3937747  97.6995664  14.9919081  29.3055603  97.9323050  14.8166779
  27.8847394  98.2832708  14.4294160  21.2023175  99.9791151  30.0308212
  21.9437860 100.5176195  29.7543036  20.4960161 100.6057440  30.1879764
  26.6778515 102.1220291  28.6280374  27.0861871 101.6802702  27.8835006
  25.9555776 101.5472919  28.8814567  23.0309585  97.0592898  26.0013931
  23.8770780  97.4832312  26.1448580  22.9708223  96.4026522  26.6952494
  27.0007330 102.6821482  22.3832663  26.3716192 102.8467196  21.6808731
  26.6132992 103.0963092  23.1543627  30.8796561 103.6175920  19.7377027
  30.1947600 103.9974821  19.1874060  30.9640411 104.2271247  20.4708974
  26.1809030  94.7197267  27.6595104  25.9369962  95.4739327  27.1229380
  26.4568961  95.0982614  28.4942352  28.1347493 101.2635879  26.3372370
  28.3464388 101.9067639  25.6606751  28.0877241 100.4298195  25.8694300
  25.7373722  93.8753700  23.2408942  24.8758201  94.1734953  23.5325680
  25.7636157  94.0924098  22.3089975  22.5535291 102.4195890  19.6482748
  23.0173637 102.6983593  18.8587370  22.2892090 101.5179335  19.4655839
  19.4459372 101.9667372  22.5862511  20.0160730 102.3954640  21.9479996
  20.0367484 101.6849956  23.2846697  21.4904177  98.5419042  16.4572313
  22.1928221  98.9940086  16.9246239  21.1584806  97.9002861  17.0852206
  19.9384539  97.1330799  30.8323522  19.3083200  97.8147080  31.0658919
  19.8320627  97.0213881  29.8876661  15.2329511  96.8002595  21.7589447
  14.4428565  97.0560124  21.2829557  15.7240759  97.6150933  21.8641487
  29.2493321 104.1407834  24.5094727  30.0710765 103.7388022  24.2277409
  29.2455724 104.0376068  25.4610843  23.0149924 103.6891878  26.6655438
  23.0794357 104.1512285  27.5013610  22.3060848 103.0589243  26.7937748
  13.5167214  97.0533086  24.1904437  13.7675253  97.9380095  24.4562013
  14.0526763  96.8737687  23.4179529  37.3399314 100.4846583  20.8579699
  36.5863022  99.9153981  20.7023703  37.4746855 100.4509247  21.8050334
  19.2165282  91.4351565  33.1948773  18.8232227  90.8817763  33.8696418
  20.0331422  91.7462143  33.5855291  22.1333243  92.8509444  30.7869030
  22.8742956  93.4516597  30.7073492  22.3651166  92.1087082  30.2287073
  17.2774581  98.0365811  29.0647260  17.1628096  97.1351069  29.3654359
  16.4219098  98.2829508  28.7132076  24.3566418 105.9783552  30.6634760
  23.9130273 105.1919930  30.3455665  25.0183632 106.1662702  29.9978651
  19.1153540 107.5079353  25.1895439  19.6660965 107.3796417  24.4172433
  18.2765016 107.8074242  24.8390332  26.4547657 106.2586352  28.6916162
  26.4366132 107.0795233  28.1996431  27.3767577 106.1340427  28.9166303
  22.9120711 103.7730481  29.5339670  23.4449047 103.0118769  29.3038978
  22.3834792 103.4804133  30.2763824  26.0790406  88.8790547  25.0633312
  25.7354675  89.7692189  24.9872422  26.4469368  88.6892205  24.2002897
  26.0440688  98.8699158  13.5705747  25.5287312  99.6403763  13.8094134
  25.7717997  98.1964294  14.1938808  23.6287799  93.7148859  18.6290985
  22.7729396  93.3255709  18.4496624  24.0414751  93.7940820  17.7690771
  25.1586946  91.2495202  23.0282545  24.6551742  91.2125337  22.2150350
  25.4517553  92.1587945  23.0879202  21.4029832  91.3333932  22.0348727
  22.2682829  91.1376741  21.6754616  21.4707341  91.1044284  22.9618083
  31.0174962 101.6231513  15.5058920  30.2404405 101.2842672  15.0614082
  31.6966443 101.6284136  14.8313885  25.8326992  96.7426250  15.3965528
  25.5277127  97.0572399  16.2475671  26.7857434  96.8207670  15.4392861
  29.2566269 101.0965494  22.1625528  28.5989944 101.7864755  22.2505657
  30.0606669 101.4861926  22.5059515  19.0092151  93.5636140  19.4065093
  19.5835903  93.3411321  18.6738286  19.5963133  93.6324834  20.1593695
  28.0671728  99.4509867  20.2129470  28.5803610 100.0839858  20.7151180
  28.7172952  98.8511062  19.8472830  21.3114819  90.4377389  18.1340163
  20.6579231  90.1226406  17.5096778  21.2695293  89.8153129  18.8599986
  24.5452559  96.9259322  22.4587811  23.6275120  97.1474269  22.3009499
  24.9612703  97.0005633  21.5999518  25.3287607  98.3250738  17.5890491
  26.0759426  98.8372135  17.2797613  25.5979196  98.0034791  18.4494884
  28.8333524 104.4315868  18.3408613  28.3795852 103.5906778  18.3973803
  28.2027491 105.0677266  18.6783393  27.7766444  95.3607854  19.5709280
  27.0389201  94.8485240  19.9019523  28.0293218  94.9208236  18.7592557
  27.2766464 106.2692365  19.2758431  27.5689438 106.8297422  18.5570796
  27.7865084 106.5620926  20.0311590  27.8778071  88.1384106  20.1651049
  28.1836948  87.2781470  19.8776964  28.6030676  88.7301726  19.9650043
  22.1499151  98.4337899  20.6727240  22.2047761  97.4811736  20.5969717
  21.3390353  98.5897338  21.1568539  20.0891511  97.0514959  18.4317619
  19.2759376  97.3509130  18.8382811  20.5850505  96.6570648  19.1492102
  25.6865723  97.5156783  27.2632513  26.0415110  97.7428257  28.1226979
  26.3337854  97.8475160  26.6409768  31.4163460 100.6375219  17.9681842
  31.2781358 100.8276815  17.0403031  31.0599678 101.3994602  18.4249893
  19.5805586  94.6233314  24.0478854  20.2204965  94.4822074  23.3501818
  18.7483116  94.3367828  23.6717456  31.4432839 102.7051746  22.9793114
  31.8769346 102.6127035  23.8276168  32.1564420 102.6809247  22.3413130
  25.1760734 106.3053840  24.5126214  25.2297756 106.8744777  25.2803930
  24.3075515 106.4755725  24.1480251  16.5834202  94.5933639  18.8251841
  16.8441019  95.5078973  18.7161002  17.4051374  94.1258082  18.9748454
  18.0559127  96.0071397  25.9950666  18.7282181  95.7988759  25.3463314
  17.2288914  95.8093483  25.5555898  32.3048389 102.7475447  25.5125999
  32.4984279 103.6521257  25.7585274  32.2049007 102.2882866  26.3464584
  23.9584699  92.6333338  28.0116326  23.3112615  93.3323287  27.9180803
  24.7285715  93.0669481  28.3792575  27.3663497 102.8982190  31.0866880
  27.2149004 102.6692741  30.1696963  27.3568177 103.8552791  31.0998225
  24.1348834 100.4714102  26.0713146  25.0640894 100.6225262  25.8982113
  23.7139864 100.5598123  25.2161793  22.9337166 104.4964767  23.8411684
  22.7948251 104.1283551  24.7137622  22.1451762 105.0112406  23.6695642
  24.4842381 103.8746370  21.2300522  24.1492213 103.8347140  22.1258171
  23.9846326 103.2091086  20.7570932  18.4586625  99.2814000  26.7553103
  18.3206423  98.5494238  27.3564642  19.3691548  99.1922900  26.4737290
  21.0868925  98.9933959  26.2436782  21.7968544  98.3527151  26.2023401
  21.0438234  99.2446854  27.1662963  29.0755704 105.9301312  29.1643362
  29.0168250 105.2460532  28.4973945  29.4775222 106.6720302  28.7123988
  19.7997859  95.9799177  28.0632422  19.2635216  95.5289915  28.7154018
  19.2114568  96.1145086  27.3202886  29.0773111 103.8940896  27.3957341
  28.1899890 103.5566818  27.5183740  29.6471662 103.1623927  27.6326107
  15.5336981  95.1155185  25.1485416  15.4495169  94.5080854  24.4135826
  14.7119687  95.6064203  25.1494913  22.6074265 108.5542349  24.3618584
  22.5344436 109.3597320  24.8737889  22.1651658 108.7534314  23.5366606
  25.7060694  93.6008748  20.5155611  26.2029394  92.8478710  20.1956682
  24.9347676  93.6373065  19.9498821  33.5590452  99.3049114  22.1573903
  33.5480328 100.1873829  21.7867836  32.6907831  98.9520664  21.9628440
  25.0672948 108.4529183  26.5176743  25.7800920 109.0876647  26.4452645
  24.5762977 108.5493049  25.7016745  26.7890475 102.3580435  18.0894035
  25.8546754 102.4781898  17.9198739  26.9667144 101.4552902  17.8254045
  22.2895663  95.7426131  20.2427296  21.9193451  95.1897171  20.9308202
  22.7854756  95.1384265  19.6902296  30.1763027  98.1997755  18.6244069
  30.6423479  99.0325746  18.5504372  30.6270527  97.7342736  19.3289327
  20.1184862 106.2023626  27.3382314  20.8194321 106.8360109  27.4911708
  19.6479977 106.5438358  26.5777953  28.2439258 104.5441576  15.6230221
  28.5199102 104.4298170  16.5324095  27.3743756 104.1459061  15.5842394
  28.1479689  90.5678342  22.6634970  27.2342769  90.7982568  22.8317177
  28.5772791  90.6516786  23.5149003  27.9186148  98.7568234  25.1634864
  27.2657598  99.0044141  24.5087317  28.2966528  97.9432372  24.8297342
  24.8793322 108.7927927  19.2663035  25.0615716 107.9749583  19.7290787
  25.7026308 109.0095619  18.8287925  23.9673721  99.4988045  31.6500901
  23.2914358  99.3982174  32.3203277  24.7901355  99.3427258  32.1136899
  22.7096504 110.8054972  25.8858517  23.2614812 110.9686594  26.6507603
  23.0502697 111.3959410  25.2138542  17.6860997  93.1530122  26.4880402
  17.7502323  94.0144953  26.0757800  17.6228117  92.5404123  25.7552761
  17.1613269  95.2253254  30.1353436  17.7885308  94.8430332  30.7490961
  16.3041188  95.0067456  30.5009129  27.5607378 105.6316230  31.7407172
  28.1047282 106.2446188  31.2462127  26.9794223 106.1895808  32.2574185
  25.8464891 108.7536948  22.8722200  25.7216030 107.9526687  22.3633145
  26.5043982 109.2483141  22.3836170  17.4673059  95.1085680  22.0499340
  16.7459645  95.7221648  21.9106813  18.2566315  95.6443445  21.9715986
  27.9099799 106.5545968  24.5001750  26.9630135 106.4351319  24.4280076
  28.2582572 105.6668466  24.5828011  20.2699373  92.4440107  28.3239992
  20.7933775  92.6902403  29.0866301  20.0511706  93.2760141  27.9043129
  24.9146233 106.3498684  20.7006102  24.7671195 105.4215391  20.8813672
  25.7399726 106.3718775  20.2163177  28.5180354 107.1727243  21.7870975
  29.4426902 106.9670104  21.6495426  28.3495658 106.9243644  22.6960316
  21.4751918  93.3853802  26.0089662  21.1348738  92.5861615  26.4110342
  20.7690924  93.6855512  25.4366495  22.1268390  90.4703114  24.4616985
  22.9494459  89.9963592  24.3395875  22.3706453  91.2493598  24.9615671
  20.7676624  93.4991373  14.7579887  21.4884987  93.8772625  14.2543604
  20.1441928  94.2180249  14.8614865  24.9107747  94.2036521  15.6938219
  25.1271361  95.0861159  15.3927047  24.4301814  93.8122735  14.9643861
  19.6506968  97.1622235  22.2708964  19.5051549  97.4762538  23.1633245
  19.1732172  97.7807135  21.7179862  21.5103351  94.1524783  22.3189853
  21.4964920  93.2565876  21.9822151  22.2275779  94.1595446  22.9528139
  23.3629482  94.5862123  24.3642981  23.1047260  95.5079194  24.3627311
  22.8314522  94.1892557  25.0543445  28.3075671 107.6912910  17.1433066
  28.4812548 107.1259333  16.3906919  28.8004562 108.4913805  16.9612556
  14.1252630  99.7027579  25.2096625  13.5806099 100.4787387  25.3416899
  15.0031980 100.0498384  25.0515746  20.9140247  93.0339163  17.5877423
  21.0356158  92.1055809  17.7868311  20.6242290  93.0477849  16.6755739
  23.7831438  90.7194073  20.7244143  23.8053134  90.7833407  19.7696123
  24.1999497  89.8798582  20.9184649  34.1615062 100.4549333  18.7623366
  34.6046208  99.7056658  18.3642489  33.2841572 100.4459469  18.3797098
  14.9118652  98.8297475  28.1026782  14.1700388  98.9780111  28.6891412
  14.5911397  99.0905741  27.2393531  31.1942266 104.4579380  15.7717295
  31.7193590 104.7966653  15.0466615  31.1064619 103.5226395  15.5880430
  22.8562315 108.3713454  27.9007172  23.1649441 108.1262600  28.7729871
  23.6537797 108.5760092  27.4126042  20.3256799 106.0689372  22.2034850
  19.7036808 105.4060077  21.9037078  20.9961666 106.0950504  21.5208498
  20.3981327  94.5471160  31.7967356  20.4469482  95.4233283  31.4145126
  20.9403841  94.0048553  31.2238999  30.8836172 105.0912284  31.0768493
  30.0931716 105.0736422  30.5372992  30.6469527 105.6300577  31.8317530
  31.0034047 101.9404750  28.3901222  31.0532052 101.7754757  29.3316744
  30.8947971 101.0732009  27.9999102  28.2937810  97.9235678  29.7060528
  29.1947673  97.7842143  29.4144526  28.3685784  98.0890133  30.6458706
  22.6280615  95.3002533  28.5513715  21.7583925  95.5936099  28.2796303
  22.8640095  95.8842978  29.2720978  32.5052244 104.3601691  28.6343243
  32.2137053 104.7231672  29.4706704  31.8924376 103.6468700  28.4556575
  33.7047927 101.9254571  21.1545813  34.5394818 102.3644375  21.3183374
  33.8407055 101.4493224  20.3354059  30.7539432  99.4834306  27.1023301
  31.2293554  99.6761952  26.2942153  29.8304998  99.5393492  26.8566685
  25.3319649  91.5182150  26.0679135  25.8501593  92.2543177  25.7425624
  24.9774782  91.8246143  26.9025894  25.5832243  87.9382432  21.5880032
  25.8633997  87.2705621  22.2140458  26.3682850  88.1311528  21.0754695
  29.4541101  96.3600066  25.3351607  30.4058524  96.4598164  25.3563831
  29.2844552  95.5678335  25.8449691  27.4755481  93.4455649  25.5211008
  26.8805413  93.7260662  24.8257496  27.1905178  93.9349550  26.2927749
  31.9329179  99.5806186  24.4493906  31.9005499  98.6422187  24.6353590
  32.5429803  99.6590223  23.7159731  32.0823668  96.3717229  24.4952190
  31.5662716  95.5875686  24.3082118  32.9663616  96.0435946  24.6598709
  29.7434395  90.1158245  20.4548002  29.5459216  89.8073333  21.3391334
  30.3534100  90.8419884  20.5845932  37.7505729 100.6422193  23.5899943
  38.4809118 100.3807481  24.1507647  37.1412675  99.9050915  23.6302011
  35.8321026  98.7830055  24.1874394  35.1054190  98.6486020  23.5790886
  35.4168313  99.0906884  24.9931112  23.6551203 102.5019985  31.9521767
  24.5754212 102.6798584  32.1461814  23.6200786 101.5576030  31.8001467
  16.6513275 100.4121020  24.5944549  16.8699285 101.3438127  24.6132582
  17.0639049 100.0528994  25.3799352  23.5717493  90.9189105  16.5820237
  22.7618221  90.5736190  16.9575483  24.2601910  90.6096649  17.1707849
  25.5008041  89.9967152  18.2044534  26.0539080  90.4162605  18.8634557
  25.7378128  89.0702900  18.2467490  21.5241141  95.9854225  33.9847297
  21.4237867  96.9348582  33.9159389  21.3062683  95.6572464  33.1123368
  28.8786848  92.1067677  17.7123198  28.2985517  92.7652481  17.3301250
  28.6122781  91.2845022  17.3010615  27.3290415  91.5072735  19.9144518
  27.8290193  91.6189269  19.1058837  27.9726023  91.2033787  20.5545327
  21.3872411  99.4151364  32.8012359  20.9039492 100.2151724  33.0076248
  21.4733350  99.4259309  31.8479803  17.3145748 103.3055899  24.8380793
  18.2689002 103.2739841  24.7710724  17.1158272 102.8446523  25.6531019
  17.9045130 101.8757015  27.4051591  18.7238019 102.3701094  27.4286428
  18.1781938 100.9588983  27.3769158  27.6611726  94.2667767  16.7679546
  26.7737581  94.5517418  16.5499741  28.0765715  94.1061531  15.9206823
  31.0126263  94.2914288  20.4833885  31.7886653  94.7810741  20.7558502
  30.2874397  94.7172342  20.9405755  33.4498821  95.0041908  21.5407826
  34.0443312  94.7637643  20.8301134  33.5225405  94.2849038  22.1681362
  27.6352750  99.7822303  16.9829836  27.5787952 100.2390855  16.1437469
  28.1881093  99.0212988  16.8052679  31.4457556  95.5712035  17.8079956
  31.1894490  95.1708671  18.6388163  30.8210424  96.2855829  17.6830095
  35.7569894  98.3108108  20.3151247  35.1969452  98.3801298  21.0882809
  35.1513397  98.1349093  19.5950743  28.3687529 100.9727085  14.2782365
  28.3136333 100.8071356  13.3370810  27.7433585 101.6803117  14.4344555
  13.1580044  96.2095149  28.1043788  13.8038908  95.6994103  28.5931013
  12.9497196  96.9463831  28.6787213  25.6833437 103.2775996  33.6035928
  26.5524596 103.4516649  33.2422563  25.2040188 104.0970413  33.4811658
  21.6783655  90.4735194  13.8567684  21.6662325  91.4177033  14.0135955
  22.5707077  90.2905339  13.5627145  19.8519617 110.3973097  25.2825362
  20.7546864 110.4296708  25.5991857  19.6256987 109.4673548  25.2971698
  25.4935774  87.0677970  18.1113621  24.7268170  86.5136457  18.2570303
  25.9046479  87.1399839  18.9727772  17.4977535  93.3562766  32.2018802
  18.3608997  92.9999571  32.4122126  16.9242946  93.0176661  32.8894206
  37.3425912 114.9864622  23.0081203  37.9804322 114.8671370  22.3044543
  37.2246755 115.9345466  23.0669155  34.1515619 114.9392050  22.9442728
  33.8134130 114.8233115  22.0563262  35.0205387 114.5383216  22.9243734
  34.6335402 116.0926902  28.9028933  34.6224042 115.6979700  28.0309437
  34.7956041 115.3592975  29.4962705  36.8967181 112.7116076  20.0834411
  37.6830270 112.2935499  19.7324828  37.1605885 113.6162168  20.2516059
  42.2975608 112.6491309  20.9867389  43.0300780 112.0790526  21.2205219
  41.5414964 112.2612910  21.4273895  33.9151728 115.0718551  18.1830732
  33.5509935 114.5449172  18.8943653  34.7718844 114.6817020  18.0097217
  39.8201028 106.3612883  25.4461998  39.4884353 107.2308294  25.2223213
  39.2246642 106.0449167  26.1256028  39.7129692 111.0807970  22.5255348
  38.8046569 111.0123378  22.2314109  39.6617287 111.5579915  23.3537174
  33.7870557 112.4997615  30.4690245  33.0103891 113.0591535  30.4593110
  34.4261120 112.9854398  30.9905115  41.5791338 109.2824408  24.3033222
  40.9365718 109.5756941  23.6573017  41.0746267 109.1677328  25.1086419
  39.2331502 113.0287581  14.9919081  40.1449358 113.2614968  14.8166779
  38.7241149 113.6124625  14.4294160  37.5172269 117.4512209  28.6280374
  37.9255625 117.0094620  27.8835006  36.7949531 116.8764837  28.8814567
  33.8703339 112.3884816  26.0013931  34.7164535 112.8124229  26.1448580
  33.8101977 111.7318440  26.6952494  37.0202785 110.0489184  27.6595104
  36.7763717 110.8031245  27.1229380  37.2962715 110.4274532  28.4942352
  38.9741248 116.5927797  26.3372370  39.1858143 117.2359556  25.6606751
  38.9270996 115.7590113  25.8694300  36.5767476 109.2045617  23.2408942
  35.7151956 109.5026871  23.5325680  36.6029911 109.4216016  22.3089975
  32.3297932 113.8710960  16.4572313  33.0321975 114.3232004  16.9246239
  31.9978560 113.2294779  17.0852206  30.7778293 112.4622717  30.8323522
  30.1476954 113.1438998  31.0658919  30.6714381 112.3505798  29.8876661
  26.0723266 112.1294513  21.7589447  25.2822320 112.3852041  21.2829557
  26.5634513 112.9442851  21.8641487  48.1793069 115.8138500  20.8579699
  47.4256777 115.2445899  20.7023703  48.3140610 115.7801165  21.8050334
  30.0559036 106.7643483  33.1948773  29.6625982 106.2109681  33.8696418
  30.8725177 107.0754061  33.5855291  32.9726997 108.1801362  30.7869030
  33.7136711 108.7808515  30.7073492  33.2044920 107.4378999  30.2287073
  28.1168335 113.3657729  29.0647260  28.0021850 112.4642986  29.3654359
  27.2612853 113.6121426  28.7132076  36.9184160 104.2082465  25.0633312
  36.5748430 105.0984106  24.9872422  37.2863123 104.0184122  24.2002897
  36.8834443 114.1991076  13.5705747  36.3681066 114.9695680  13.8094134
  36.6111751 113.5256212  14.1938808  34.4681554 109.0440777  18.6290985
  33.6123150 108.6547627  18.4496624  34.8808506 109.1232737  17.7690771
  35.9980701 106.5787120  23.0282545  35.4945496 106.5417255  22.2150350
  36.2911307 107.4879863  23.0879202  32.2423586 106.6625850  22.0348727
  33.1076583 106.4668658  21.6754616  32.3101095 106.4336201  22.9618083
  41.8568717 116.9523430  15.5058920  41.0798160 116.6134590  15.0614082
  42.5360198 116.9576054  14.8313885  36.6720746 112.0718168  15.3965528
  36.3670882 112.3864317  16.2475671  37.6251188 112.1499588  15.4392861
  40.0960024 116.4257412  22.1625528  39.4383698 117.1156673  22.2505657
  40.9000423 116.8153844  22.5059515  29.8485905 108.8928057  19.4065093
  30.4229657 108.6703239  18.6738286  30.4356888 108.9616752  20.1593695
  38.9065483 114.7801784  20.2129470  39.4197364 115.4131776  20.7151180
  39.5566707 114.1802980  19.8472830  32.1508573 105.7669306  18.1340163
  31.4972986 105.4518324  17.5096778  32.1089047 105.1445047  18.8599986
  35.3846314 112.2551240  22.4587811  34.4668875 112.4766187  22.3009499
  35.8006457 112.3297550  21.5999518  36.1681361 113.6542656  17.5890491
  36.9153180 114.1664053  17.2797613  36.4372951 113.3326708  18.4494884
  38.6160198 110.6899772  19.5709280  37.8782955 110.1777158  19.9019523
  38.8686972 110.2500153  18.7592557  38.7171826 103.4676024  20.1651049
  39.0230703 102.6073387  19.8776964  39.4424431 104.0593644  19.9650043
  32.9892906 113.7629817  20.6727240  33.0441515 112.8103653  20.5969717
  32.1784108 113.9189256  21.1568539  30.9285265 112.3806877  18.4317619
  30.1153131 112.6801047  18.8382811  31.4244260 111.9862565  19.1492102
  36.5259477 112.8448701  27.2632513  36.8808865 113.0720174  28.1226979
  37.1731608 113.1767078  26.6409768  42.2557214 115.9667137  17.9681842
  42.1175113 116.1568733  17.0403031  41.8993433 116.7286520  18.4249893
  30.4199340 109.9525232  24.0478854  31.0598720 109.8113991  23.3501818
  29.5876871 109.6659746  23.6717456  42.2826594 118.0343664  22.9793114
  42.7163100 117.9418953  23.8276168  42.9958174 118.0101164  22.3413130
  27.4227957 109.9225557  18.8251841  27.6834774 110.8370890  18.7161002
  28.2445129 109.4550000  18.9748454  28.8952882 111.3363314  25.9950666
  29.5675935 111.1280676  25.3463314  28.0682668 111.1385400  25.5555898
  43.1442143 118.0767365  25.5125999  43.3378033 118.9813175  25.7585274
  43.0442761 117.6174784  26.3464584  34.7978454 107.9625255  28.0116326
  34.1506369 108.6615205  27.9180803  35.5679469 108.3961399  28.3792575
  34.9742588 115.8006020  26.0713146  35.9034648 115.9517180  25.8982113
  34.5533618 115.8890041  25.2161793  29.2980379 114.6105917  26.7553103
  29.1600177 113.8786156  27.3564642  30.2085303 114.5214817  26.4737290
  31.9262680 114.3225877  26.2436782  32.6362298 113.6819069  26.2023401
  31.8831988 114.5738771  27.1662963  30.6391614 111.3091095  28.0632422
  30.1028971 110.8581833  28.7154018  30.0508322 111.4437003  27.3202886
  26.3730735 110.4447102  25.1485416  26.2888924 109.8372772  24.4135826
  25.5513442 110.9356121  25.1494913  36.5454449 108.9300666  20.5155611
  37.0423149 108.1770628  20.1956682  35.7741430 108.9664982  19.9498821
  44.3984206 114.6341031  22.1573903  44.3874083 115.5165747  21.7867836
  43.5301586 114.2812582  21.9628440  33.1289418 111.0718049  20.2427296
  32.7587205 110.5189089  20.9308202  33.6248510 110.4676182  19.6902296
  41.0156781 113.5289672  18.6244069  41.4817233 114.3617664  18.5504372
  41.4664282 113.0634654  19.3289327  38.9873444 105.8970259  22.6634970
  38.0736524 106.1274486  22.8317177  39.4166545 105.9808703  23.5149003
  38.7579902 114.0860151  25.1634864  38.1051352 114.3336059  24.5087317
  39.1360282 113.2724289  24.8297342  34.8067475 114.8279962  31.6500901
  34.1308112 114.7274092  32.3203277  35.6295109 114.6719176  32.1136899
  28.5254751 108.4822040  26.4880402  28.5896078 109.3436870  26.0757800
  28.4621872 107.8696041  25.7552761  28.0007024 110.5545172  30.1353436
  28.6279063 110.1722249  30.7490961  27.1434943 110.3359374  30.5009129
  28.3066814 110.4377598  22.0499340  27.5853399 111.0513565  21.9106813
  29.0960069 110.9735363  21.9715986  31.1093127 107.7732024  28.3239992
  31.6327529 108.0194321  29.0866301  30.8905460 108.6052059  27.9043129
  32.3145672 108.7145719  26.0089662  31.9742493 107.9153532  26.4110342
  31.6084678 109.0147430  25.4366495  32.9662144 105.7995032  24.4616985
  33.7888213 105.3255510  24.3395875  33.2100208 106.5785516  24.9615671
  31.6070379 108.8283290  14.7579887  32.3278741 109.2064543  14.2543604
  30.9835683 109.5472167  14.8614865  35.7501501 109.5328439  15.6938219
  35.9665116 110.4153077  15.3927047  35.2695569 109.1414653  14.9643861
  30.4900723 112.4914152  22.2708964  30.3445304 112.8054455  23.1633245
  30.0125926 113.1099053  21.7179862  32.3497106 109.4816700  22.3189853
  32.3358674 108.5857794  21.9822151  33.0669534 109.4887364  22.9528139
  34.2023236 109.9154041  24.3642981  33.9441014 110.8371111  24.3627311
  33.6708277 109.5184475  25.0543445  31.7534002 108.3631081  17.5877423
  31.8749913 107.4347727  17.7868311  31.4636044 108.3769767  16.6755739
  34.6225192 106.0485991  20.7244143  34.6446889 106.1125324  19.7696123
  35.0393251 105.2090500  20.9184649  45.0008816 115.7841251  18.7623366
  45.4439962 115.0348576  18.3642489  44.1235327 115.7751387  18.3797098
  31.2375081 109.8763078  31.7967356  31.2863237 110.7525201  31.4145126
  31.7797595 109.3340471  31.2238999  41.8427802 117.2696668  28.3901222
  41.8925807 117.1046675  29.3316744  41.7341725 116.4023927  27.9999102
  39.1331564 113.2527596  29.7060528  40.0341427 113.1134061  29.4144526
  39.2079539 113.4182051  30.6458706  33.4674370 110.6294450  28.5513715
  32.5977679 110.9228016  28.2796303  33.7033850 111.2134895  29.2720978
  44.5441681 117.2546489  21.1545813  45.3788572 117.6936293  21.3183374
  44.6800810 116.7785142  20.3354059  41.5933187 114.8126224  27.1023301
  42.0687309 115.0053870  26.2942153  40.6698752 114.8685410  26.8566685
  36.1713403 106.8474067  26.0679135  36.6895347 107.5835094  25.7425624
  35.8168536 107.1538061  26.9025894  36.4225998 103.2674350  21.5880032
  36.7027751 102.5997539  22.2140458  37.2076605 103.4603446  21.0754695
  40.2934856 111.6891984  25.3351607  41.2452279 111.7890082  25.3563831
  40.1238306 110.8970252  25.8449691  38.3149235 108.7747567  25.5211008
  37.7199168 109.0552580  24.8257496  38.0298932 109.2641468  26.2927749
  42.7722934 114.9098104  24.4493906  42.7399254 113.9714104  24.6353590
  43.3823557 114.9882140  23.7159731  42.9217422 111.7009147  24.4952190
  42.4056471 110.9167604  24.3082118  43.8057371 111.3727864  24.6598709
  40.5828149 105.4450163  20.4548002  40.3852970 105.1365251  21.3391334
  41.1927855 106.1711801  20.5845932  48.5899484 115.9714110  23.5899943
  49.3202872 115.7099399  24.1507647  47.9806429 115.2342832  23.6302011
  46.6714781 114.1121973  24.1874394  45.9447944 113.9777938  23.5790886
  46.2562068 114.4198802  24.9931112  34.4111247 106.2481023  16.5820237
  33.6011976 105.9028108  16.9575483  35.0995664 105.9388566  17.1707849
  36.3401796 105.3259069  18.2044534  36.8932834 105.7454523  18.8634557
  36.5771882 104.3994818  18.2467490  32.3634895 111.3146143  33.9847297
  32.2631622 112.2640500  33.9159389  32.1456437 110.9864382  33.1123368
  39.7180603 107.4359595  17.7123198  39.1379272 108.0944399  17.3301250
  39.4516536 106.6136939  17.3010615  38.1684169 106.8364652  19.9144518
  38.6683948 106.9481187  19.1058837  38.8119777 106.5325705  20.5545327
  32.2266165 114.7443282  32.8012359  31.7433247 115.5443642  33.0076248
  32.3127104 114.7551227  31.8479803  38.5005481 109.5959685  16.7679546
  37.6131336 109.8809336  16.5499741  38.9159470 109.4353448  15.9206823
  41.8520017 109.6206206  20.4833885  42.6280407 110.1102658  20.7558502
  41.1268151 110.0464260  20.9405755  44.2892576 110.3333825  21.5407826
  44.8837066 110.0929561  20.8301134  44.3619159 109.6140956  22.1681362
  38.4746505 115.1114221  16.9829836  38.4181706 115.5682772  16.1437469
  39.0274847 114.3504906  16.8052679  42.2851311 110.9003953  17.8079956
  42.0288245 110.5000588  18.6388163  41.6604179 111.6147747  17.6830095
  46.5963648 113.6400026  20.3151247  46.0363206 113.7093215  21.0882809
  45.9907152 113.4641011  19.5950743  39.2081284 116.3019002  14.2782365
  39.1530088 116.1363274  13.3370810  38.5827339 117.0095035  14.4344555
  23.9973799 111.5387067  28.1043788  24.6432663 111.0286021  28.5931013
  23.7890950 112.2755748  28.6787213  32.5177409 105.8027111  13.8567684
  32.5056079 106.7468951  14.0135955  33.4100831 105.6197257  13.5627145
  36.3329529 102.3969888  18.1113621  35.5661925 101.8428375  18.2570303
  36.7440234 102.4691757  18.9727772  28.3371290 108.6854684  32.2018802
  29.2002751 108.3291488  32.4122126  27.7636701 108.3468578  32.8894206
  47.7577915 119.5374382  25.0633312  47.4142184 120.4276024  24.9872422
  48.1256877 119.3476040  24.2002897  49.5565580 118.7967942  20.1651049
  49.8624457 117.9365305  19.8776964  50.2818185 119.3885562  19.9650043
  49.8267198 121.2262177  22.6634970  48.9130278 121.4566404  22.8317177
  50.2560300 121.3100621  23.5149003  47.2619752 118.5966268  21.5880032
  47.5421506 117.9289457  22.2140458  48.0470359 118.7895363  21.0754695
  51.4221904 120.7742080  20.4548002  51.2246725 120.4657168  21.3391334
  52.0321609 121.5003719  20.5845932  47.1795550 120.6550987  18.2044534
  47.7326589 121.0746441  18.8634557  47.4165637 119.7286735  18.2467490
  47.1723283 117.7261805  18.1113621  46.4055679 117.1720292  18.2570303
  47.5833988 117.7983674  18.9727772   2.6778911  52.3261839  17.3880067
   2.2342765  51.5398217  17.0700971   3.3396124  52.5140989  16.7223958
   4.7760149  52.6064639  15.4161468   4.7578624  53.4273520  14.9241737
   5.6980069  52.4818714  15.6411609   5.6875990  49.2460477  17.8112186
   5.5361496  49.0171029  16.8942270   5.6780669  50.2031078  17.8243531
   7.3968196  52.2779600  15.8888668   7.3380743  51.5938820  15.2219251
   7.7987715  53.0198590  15.4369294   5.8819870  51.9794517  18.4652478
   6.4259774  52.5924475  17.9707433   5.3006715  52.5374095  18.9819491
   9.2048665  51.4390571  17.8013800   8.4144208  51.4214710  17.2618299
   8.9682019  51.9778865  18.5562836  10.8264737  50.7079979  15.3588550
  10.5349545  51.0709959  16.1952011  10.2136868  49.9946987  15.1801882
   4.0045929  49.6254284  20.3281235   4.8737089  49.7994936  19.9667870
   3.5252680  50.4448700  20.2056964  15.6638405  61.3342910   9.7326510
  16.3016815  61.2149657   9.0289850  15.5459248  62.2823754   9.7914462
  12.4728111  61.2870338   9.6688034  12.1346622  61.1711402   8.7808569
  13.3417879  60.8861503   9.6489040  12.9547894  62.4405189  15.6274240
  12.9436535  62.0457988  14.7554743  13.1168533  61.7071262  16.2208011
   9.6755155  65.2242301  14.5753424   9.3845021  66.1287932  14.4600090
  10.3112139  65.2658829  15.2897493  10.6011362  62.6019150  11.1654783
  11.1974934  62.3775172  10.4511746  10.6586333  61.8603895  11.7680231
  20.6188100  58.9969597   7.7112696  21.3513272  58.4268813   7.9450526
  19.8627456  58.6091197   8.1519202  18.1413521  52.7091171  12.1707305
  17.8096845  53.5786582  11.9468520  17.5459134  52.3927455  12.8501335
  14.6345040  64.9103717  11.5703217  14.3345763  65.8128756  11.4619025
  14.2896100  64.6435900  12.4224370  18.0342184  57.4286257   9.2500655
  17.1259061  57.3601665   8.9559416  17.9829780  57.9058202  10.0782480
  12.1083050  58.8475902  17.1935552  11.3316384  59.4069823  17.1838417
  12.7473613  59.3332685  17.7150422  19.9003830  55.6302695  11.0278529
  19.2578211  55.9235228  10.3818323  19.3958759  55.5155616  11.8331725
  10.3629422  61.6561356  16.7553519  11.1044106  62.1946400  16.4788343
   9.6566407  62.2827645  16.9125071  15.8384762  63.7990496  15.3525681
  16.2468118  63.3572907  14.6080313  15.1162023  63.2243124  15.6059873
  12.1915832  58.7363103  12.7259237  13.0377027  59.1602517  12.8693886
  12.1314469  58.0796727  13.4197801  16.1613576  64.3591687   9.1077969
  15.5322439  64.5237401   8.4054037  15.7739238  64.7733296   9.8788933
  20.0402808  65.2946125   6.4622333  19.3553846  65.6745026   5.9119366
  20.1246657  65.9041451   7.1954281  15.3415277  56.3967471  14.3840411
  15.0976209  57.1509532  13.8474687  15.6175208  56.7752819  15.2187658
  17.2953740  62.9406084  13.0617677  17.5070635  63.5837844  12.3852058
  17.2483488  62.1068400  12.5939607  11.7141538  64.0966095   6.3728054
  12.1779884  64.3753798   5.5832677  11.4498336  63.1949540   6.1901145
   8.6065619  63.6437577   9.3107818   9.1766976  64.0724845   8.6725302
   9.1973731  63.3620161  10.0092003   9.0990786  58.8101004  17.5568829
   8.4689446  59.4917285  17.7904226   8.9926874  58.6984086  16.6121967
  18.4099568  65.8178039  11.2340034  19.2317011  65.4158226  10.9522716
  18.4061971  65.7146273  12.1856150  12.1756171  65.3662083  13.3900745
  12.2400604  65.8282490  14.2258916  11.4667095  64.7359447  13.5183054
  26.5005561  62.1616788   7.5825005  25.7469269  61.5924186   7.4269010
  26.6353102  62.1279452   8.5295640   8.3771528  53.1121770  19.9194080
   7.9838474  52.5587968  20.5941724   9.1937669  53.4232348  20.3100598
  11.2939489  54.5279649  17.5114337  12.0349203  55.1286802  17.4318799
  11.5257412  53.7857287  16.9532379   6.4380827  59.7136016  15.7892566
   6.3234343  58.8121273  16.0899665   5.5825345  59.9599713  15.4377383
  13.5172665  67.6553757  17.3880067  13.0736519  66.8690135  17.0700971
  14.1789879  67.8432907  16.7223958   8.2759786  69.1849558  11.9140745
   8.8267212  69.0566621  11.1417739   7.4371262  69.4844447  11.5635638
  15.6153903  67.9356556  15.4161468  15.5972379  68.7565437  14.9241737
  16.5373823  67.8110632  15.6411609  12.0726957  65.4500686  16.2584977
  12.6055294  64.6888974  16.0284285  11.5441039  65.1574338  17.0009131
  18.4172516  62.7735699   8.8870835  17.7596191  63.4634960   8.9750964
  19.2212915  63.1632131   9.2304821  17.2277975  61.1280072   6.9374777
  17.7409857  61.7610063   7.4396486  17.8779199  60.5281267   6.5718137
  13.7058806  58.6029527   9.1833117  12.7881367  58.8244474   9.0254805
  14.1218949  58.6775838   8.3244824  17.9939771  66.1086073   5.0653919
  17.5402098  65.2676983   5.1219110  17.3633738  66.7447471   5.4028699
  16.4372710  67.9462570   6.0003737  16.7295685  68.5067627   5.2816103
  16.9471331  68.2391131   6.7556897  14.8471969  59.1926988  13.9877820
  15.2021357  59.4198461  14.8472286  15.4944101  59.5245365  13.3655075
  20.5769706  62.3145424   4.6927149  20.4387605  62.5047020   3.7648338
  20.2205925  63.0764807   5.1495200  20.6039086  64.3821951   9.7038420
  21.0375593  64.2897240  10.5521474  21.3170667  64.3579452   9.0658436
  14.3366981  67.9824045  11.2371521  14.3904003  68.5514982  12.0049237
  13.4681762  68.1525930  10.8725558   7.2165374  57.6841602  12.7195972
   7.8888428  57.4758964  12.0708621   6.3895161  57.4863688  12.2801204
  21.4654636  64.4245652  12.2371306  21.6590526  65.3291462  12.4830581
  21.3655254  63.9653071  13.0709891  13.1190946  54.3103542  14.7361633
  12.4718861  55.0093492  14.6426109  13.8891962  54.7439686  15.1037881
  16.5269744  64.5752395  17.8112186  16.3755251  64.3462946  16.8942270
  16.5174424  65.5322996  17.8243531  13.2955081  62.1484307  12.7958453
  14.2247141  62.2995467  12.6227420  12.8746111  62.2368328  11.9407099
  12.0943412  66.1734972  10.5656990  11.9554498  65.8053756  11.4382929
  11.3058009  66.6882611  10.3940948  13.6448628  65.5516575   7.9545828
  13.3098460  65.5117344   8.8503478  13.1452573  64.8861290   7.4816238
   7.6192871  60.9584205  13.4798409   7.4812669  60.2264443  14.0809948
   8.5297795  60.8693105  13.1982597  10.2475172  60.6704164  12.9682089
  10.9574791  60.0297356  12.9268707  10.2044480  60.9217059  13.8908270
  18.2361951  67.6071517  15.8888668  18.1774497  66.9230737  15.2219251
  18.6381469  68.3490507  15.4369294   8.9604106  57.6569382  14.7877728
   8.4241463  57.2060120  15.4399325   8.3720815  57.7915291  14.0448193
  18.2379358  65.5711101  14.1202648  17.3506137  65.2337023  14.2429047
  18.8077909  64.8394132  14.3571413  11.7680512  70.2312553  11.0863891
  11.6950683  71.0367525  11.5983196  11.3257905  70.4304519  10.2611912
  22.7196699  60.9819319   8.8819210  22.7086575  61.8644034   8.5113143
  21.8514078  60.6290869   8.6873747  14.2279195  70.1299388  13.2422050
  14.9407167  70.7646852  13.1697951  13.7369224  70.2263254  12.4262052
  15.9496722  64.0350640   4.8139341  15.0153001  64.1552103   4.6444046
  16.1273390  63.1323107   4.5499351  19.3369273  59.8767959   5.3489376
  19.8029725  60.7095951   5.2749678  19.7876774  59.4112941   6.0534634
   9.2791109  67.8793831  14.0627621   9.9800568  68.5130314  14.2157015
   8.8086224  68.2208563  13.3023260  17.0792395  60.4338438  11.8880171
  16.4263845  60.6814346  11.2332624  17.4572774  59.6202577  11.5542648
  14.0399568  70.4698132   5.9908341  14.2221963  69.6519788   6.4536094
  14.8632554  70.6865824   5.5533231  13.1279968  61.1758249  18.3746208
  12.4520605  61.0752379  19.0448583  13.9507601  61.0197463  18.8382205
  11.8702750  72.4825177  12.6103824  12.4221058  72.6456798  13.3752909
  12.2108944  73.0729615  11.9383849   6.3219516  56.9023459  16.8598743
   6.9491555  56.5200537  17.4736267   5.4647435  56.6837661  17.2254435
  16.7213625  67.3086434  18.4652478  17.2653529  67.9216393  17.9707433
  16.1400470  67.8666013  18.9819491  15.0071138  70.4307152   9.5967506
  14.8822277  69.6296892   9.0878452  15.6650229  70.9253346   9.1081476
  17.0706046  68.2316173  11.2247056  16.1236382  68.1121524  11.1525383
  17.4188819  67.3438671  11.3073318   9.4305619  54.1210311  15.0485298
   9.9540021  54.3672608  15.8111607   9.2117953  54.9530346  14.6288435
  14.0752479  68.0268889   7.4251408  13.9277442  67.0985596   7.6058979
  14.9005973  68.0488979   6.9408484  17.6786601  68.8497447   8.5116281
  18.6033149  68.6440309   8.3740732  17.5101905  68.6013849   9.4205623
  10.6358165  55.0624007  12.7334969  10.2954985  54.2631820  13.1355649
   9.9297171  55.3625717  12.1611802  12.5235729  56.2632328  11.0888287
  12.2653507  57.1849398  11.0872618  11.9920769  55.8662762  11.7788751
  17.4681917  69.3683115   3.8678373  17.6418795  68.8029537   3.1152225
  17.9610809  70.1684010   3.6857863   3.2858877  61.3797784  11.9341932
   2.7412345  62.1557592  12.0662206   4.1638227  61.7268589  11.7761053
  23.3221309  62.1319538   5.4868672  23.7652455  61.3826863   5.0887796
  22.4447819  62.1229674   5.1042404   4.0724899  60.5067680  14.8272088
   3.3306635  60.6550316  15.4136719   3.7517643  60.7675946  13.9638838
  20.3548513  66.1349585   2.4962602  20.8799837  66.4736858   1.7711922
  20.2670866  65.1996600   2.3125736  12.0168562  70.0483659  14.6252478
  12.3255688  69.8032805  15.4975178  12.8144044  70.2530297  14.1371349
   9.4863046  67.7459577   8.9280157   8.8643055  67.0830282   8.6282384
  10.1567913  67.7720709   8.2453804   9.5587573  56.2241365  18.5212663
   9.6075729  57.1003488  18.1390432  10.1010088  55.6818758  17.9484306
  20.0442419  66.7682489  17.8013800  19.2537963  66.7506627  17.2618299
  19.8075774  67.3070782  18.5562836  20.1640294  63.6174955  15.1146528
  20.2138299  63.4524962  16.0562051  20.0554218  62.7502214  14.7244409
  17.4544057  59.6005883  16.4305835  18.3553919  59.4612348  16.1389833
  17.5292031  59.7660338  17.3704012  11.7886862  56.9772738  15.2759021
  10.9190171  57.2706304  15.0041610  12.0246342  57.5613183  15.9966285
  21.6658491  66.0371896  15.3588550  21.3743299  66.4001877  16.1952011
  21.0530622  65.3238905  15.1801882  22.8654173  63.6024776   7.8791120
  23.7001065  64.0414580   8.0428680  23.0013302  63.1263429   7.0599366
  19.9145679  61.1604511  13.8268608  20.3899801  61.3532157  13.0187459
  18.9911245  61.2163697  13.5811991  14.4925896  53.1952355  12.7924442
  15.0107840  53.9313382  12.4670930  14.1381028  53.5016348  13.6271201
  18.6147348  58.0370271  12.0596913  19.5664771  58.1368369  12.0809137
  18.4450799  57.2448540  12.5694998  16.6361728  55.1225854  12.2456314
  16.0411660  55.4030867  11.5502803  16.3511424  55.6119755  13.0173055
  21.0935426  61.2576391  11.1739213  21.0611746  60.3192392  11.3598897
  21.7036050  61.3360428  10.4405038  21.2429915  58.0487434  11.2197496
  20.7268963  57.2645891  11.0327425  22.1269863  57.7206151  11.3844016
  26.9111976  62.3192398  10.3145250  27.6415364  62.0577686  10.8752953
  26.3018921  61.5821120  10.3547318  24.9927273  60.4600260  10.9119701
  24.2660437  60.3256225  10.3036193  24.5774560  60.7677089  11.7176419
  12.8157449  64.1790190  18.6767074  13.7360459  64.3568789  18.8707121
  12.7807032  63.2346235  18.5246773   5.8119522  62.0891225  11.3189855
   6.0305532  63.0208332  11.3377889   6.2245296  61.7299199  12.1044659
  10.6847387  57.6624430  20.7092604  10.5844114  58.6118787  20.6404695
  10.4668929  57.3342669  19.8368674  10.5478657  61.0921569  19.5257666
  10.0645739  61.8921929  19.7321555  10.6339596  61.1029514  18.5725110
   6.4751995  64.9826104  11.5626100   7.4295248  64.9510046  11.4956031
   6.2764518  64.5216728  12.3776325   7.0651377  63.5527220  14.1296897
   7.8844266  64.0471299  14.1531735   7.3388185  62.6359188  14.1014465
  20.1732509  55.9684493   7.2079192  20.9492899  56.4580946   7.4803809
  19.4480643  56.3942547   7.6651061  22.6105068  56.6812112   8.2653133
  23.2049559  56.4407848   7.5546441  22.6831652  55.9619243   8.8926669
  24.9176141  59.9878313   7.0396554  24.3575699  60.0571503   7.8128116
  24.3119644  59.8119298   6.3196050   2.3186291  57.8865354  14.8289094
   2.9645155  57.3764308  15.3176319   2.1103442  58.6234035  15.4032520
  14.8439683  64.9546201  20.3281235  15.7130843  65.1286854  19.9667870
  14.3646435  65.7740618  20.2056964   9.0125864  72.0743302  12.0070669
   9.9153110  72.1066913  12.3237163   8.7863234  71.1443753  12.0217004
   6.6583782  55.0332971  18.9264109   7.5215244  54.6769776  19.1367433
   6.0849193  54.6946866  19.6139513  26.5032159  76.6634827   9.7326510
  27.1410569  76.5441575   9.0289850  26.3853002  77.6115671   9.7914462
  23.3121865  76.6162255   9.6688034  22.9740377  76.5003320   8.7808569
  24.1811634  76.2153420   9.6489040  23.7941648  77.7697107  15.6274240
  23.7830289  77.3749905  14.7554743  23.9562288  77.0363180  16.2208011
  20.5148910  80.5534219  14.5753424  20.2238776  81.4579850  14.4600090
  21.1505894  80.5950746  15.2897493  21.4405116  77.9311067  11.1654783
  22.0368689  77.7067090  10.4511746  21.4980088  77.1895813  11.7680231
  26.0573428  74.3886281   6.8079718  26.8436517  73.9705704   6.4570135
  26.3212132  75.2932373   6.9761366  31.4581855  74.3261514   7.7112696
  32.1907027  73.7560731   7.9450526  30.7021210  73.9383115   8.1519202
  23.0757974  76.7488756   4.9076039  22.7116182  76.2219377   5.6188960
  23.9325090  76.3587225   4.7342524  28.9807275  68.0383088  12.1707305
  28.6490600  68.9078499  11.9468520  28.3852888  67.7219372  12.8501335
  25.4738795  80.2395634  11.5703217  25.1739518  81.1420673  11.4619025
  25.1289854  79.9727818  12.4224370  18.9251276  76.6909431   7.6039922
  18.0001773  76.5585645   7.8117614  19.1735689  77.4703650   8.1009864
  28.8735938  72.7578175   9.2500655  27.9652816  72.6893583   8.9559416
  28.8223534  73.2350119  10.0782480  22.9476804  74.1767820  17.1935552
  22.1710138  74.7361740  17.1838417  23.5867367  74.6624603  17.7150422
  30.7397585  70.9594613  11.0278529  30.0971965  71.2527146  10.3818323
  30.2352513  70.8447533  11.8331725  28.3937748  74.7057786   1.7164388
  29.3055605  74.9385173   1.5412085  27.8847396  75.2894830   1.1539467
  21.2023176  76.9853274  16.7553519  21.9437861  77.5238317  16.4788343
  20.4960162  77.6119562  16.9125071  26.6778516  79.1282414  15.3525681
  27.0861872  78.6864824  14.6080313  25.9555778  78.5535041  15.6059873
  23.0309586  74.0655021  12.7259237  23.8770781  74.4894434  12.8693886
  22.9708224  73.4088645  13.4197801  27.0007331  79.6883605   9.1077969
  26.3716193  79.8529319   8.4054037  26.6132993  80.1025214   9.8788933
  30.8796563  80.6238042   6.4622333  30.1947601  81.0036944   5.9119366
  30.9640412  81.2333369   7.1954281  26.1809032  71.7259389  14.3840411
  25.9369963  72.4801450  13.8474687  26.4568962  72.1044737  15.2187658
  28.1347494  78.2698001  13.0617677  28.3464390  78.9129761  12.3852058
  28.0877243  77.4360318  12.5939607  25.7373723  70.8815822   9.9654249
  24.8758202  71.1797076  10.2570986  25.7636158  71.0986221   9.0335281
  22.5535293  79.4258013   6.3728054  23.0173638  79.7045716   5.5832677
  22.2892091  78.5241457   6.1901145  19.4459374  78.9729494   9.3107818
  20.0160731  79.4016763   8.6725302  20.0367486  78.6912079  10.0092003
  21.4904179  75.5481165   3.1817620  22.1928222  76.0002209   3.6491546
  21.1584807  74.9064984   3.8097513  19.9384540  74.1392922  17.5568829
  19.3083201  74.8209203  17.7904226  19.8320628  74.0276003  16.6121967
  15.2329513  73.8064718   8.4834753  14.4428567  74.0622246   8.0074864
  15.7240760  74.6213056   8.5886794  29.2493322  81.1469957  11.2340034
  30.0710766  80.7450144  10.9522716  29.2455725  81.0438191  12.1856150
  23.0149926  80.6954000  13.3900745  23.0794358  81.1574407  14.2258916
  22.3060850  80.0651365  13.5183054  13.5167216  74.0595208  10.9149744
  13.7675254  74.9442218  11.1807320  14.0526764  73.8799810  10.1424836
  37.3399315  77.4908705   7.5825005  36.5863024  76.9216103   7.4269010
  37.4746856  77.4571370   8.5295640  19.2165283  68.4413688  19.9194080
  18.8232229  67.8879886  20.5941724  20.0331423  68.7524266  20.3100598
  22.1333244  69.8571567  17.5114337  22.8742957  70.4578720  17.4318799
  22.3651167  69.1149204  16.9532379  17.2774582  75.0427934  15.7892566
  17.1628097  74.1413191  16.0899665  16.4219100  75.2891631  15.4377383
  24.3566420  82.9845674  17.3880067  23.9130274  82.1982053  17.0700971
  25.0183633  83.1724825  16.7223958  19.1153541  84.5141476  11.9140745
  19.6660966  84.3858539  11.1417739  18.2765017  84.8136365  11.5635638
  26.4547658  83.2648474  15.4161468  26.4366133  84.0857355  14.9241737
  27.3767578  83.1402549  15.6411609  22.9120712  80.7792604  16.2584977
  23.4449049  80.0180892  16.0284285  22.3834793  80.4866255  17.0009131
  26.0790407  65.8852670  11.7878618  25.7354676  66.7754311  11.7117729
  26.4469370  65.6954327  10.9248203  26.0440690  75.8761281   0.2951053
  25.5287313  76.6465885   0.5339441  25.7717998  75.2026417   0.9184115
  23.6287801  70.7210981   5.3536292  22.7729397  70.3317832   5.1741930
  24.0414752  70.8002942   4.4936077  25.1586947  68.2557325   9.7527852
  24.6551743  68.2187460   8.9395657  25.4517554  69.1650067   9.8124508
  21.4029833  68.3396054   8.7594033  22.2682830  68.1438863   8.3999923
  21.4707342  68.1106406   9.6863390  31.0174964  78.6293635   2.2304227
  30.2404407  78.2904795   1.7859389  31.6966445  78.6346258   1.5559192
  25.8326993  73.7488373   2.1210835  25.5277128  74.0634522   2.9720978
  26.7857435  73.8269793   2.1638168  29.2566271  78.1027617   8.8870835
  28.5989945  78.7926878   8.9750964  30.0606670  78.4924049   9.2304821
  19.0092152  70.5698262   6.1310400  19.5835904  70.3473444   5.3983593
  19.5963135  70.6386957   6.8839001  28.0671729  76.4571989   6.9374777
  28.5803611  77.0901981   7.4396486  28.7172953  75.8573185   6.5718137
  21.3114820  67.4439511   4.8585470  20.6579232  67.1288528   4.2342084
  21.2695294  66.8215252   5.5845292  24.5452560  73.9321445   9.1833117
  23.6275122  74.1536392   9.0254805  24.9612704  74.0067755   8.3244824
  25.3287608  75.3312860   4.3135797  26.0759427  75.8434258   4.0042919
  25.5979198  75.0096913   5.1740191  28.8333526  81.4377991   5.0653919
  28.3795853  80.5968901   5.1219110  28.2027492  82.0739389   5.4028699
  27.7766445  72.3669977   6.2954587  27.0389202  71.8547363   6.6264829
  28.0293219  71.9270358   5.4837864  27.2766465  83.2754487   6.0003737
  27.5689439  83.8359545   5.2816103  27.7865085  83.5683048   6.7556897
  27.8778073  65.1446229   6.8896356  28.1836949  64.2843592   6.6022271
  28.6030677  65.7363849   6.6895350  22.1499152  75.4400022   7.3972547
  22.2047762  74.4873858   7.3215024  21.3390354  75.5959461   7.8813845
  20.0891512  74.0577082   5.1562926  19.2759378  74.3571252   5.5628118
  20.5850506  73.6632770   5.8737408  25.6865724  74.5218906  13.9877820
  26.0415112  74.7490379  14.8472286  26.3337855  74.8537283  13.3655075
  31.4163461  77.6437342   4.6927149  31.2781359  77.8338938   3.7648338
  31.0599680  78.4056725   5.1495200  19.5805587  71.6295437  10.7724161
  20.2204966  71.4884196  10.0747124  18.7483118  71.3429950  10.3962763
  31.4432840  79.7113869   9.7038420  31.8769347  79.6189158  10.5521474
  32.1564421  79.6871369   9.0658436  25.1760735  83.3115963  11.2371521
  25.2297758  83.8806899  12.0049237  24.3075517  83.4817848  10.8725558
  16.5834203  71.5995762   5.5497148  16.8441021  72.5141095   5.4406308
  17.4051376  71.1320205   5.6993760  18.0559129  73.0133519  12.7195972
  18.7282182  72.8050881  12.0708621  17.2288915  72.8155605  12.2801204
  32.3048390  79.7537570  12.2371306  32.4984280  80.6583380  12.4830581
  32.2049008  79.2944989  13.0709891  23.9584701  69.6395460  14.7361633
  23.3112616  70.3385410  14.6426109  24.7285716  70.0731604  15.1037881
  27.3663499  79.9044312  17.8112186  27.2149005  79.6754864  16.8942270
  27.3568178  80.8614914  17.8243531  24.1348835  77.4776225  12.7958453
  25.0640895  77.6287385  12.6227420  23.7139865  77.5660246  11.9407099
  22.9337167  81.5026889  10.5656990  22.7948253  81.1345674  11.4382929
  22.1451763  82.0174529  10.3940948  24.4842382  80.8808492   7.9545828
  24.1492215  80.8409262   8.8503478  23.9846328  80.2153208   7.4816238
  18.4586626  76.2876122  13.4798409  18.3206424  75.5556361  14.0809948
  19.3691549  76.1985022  13.1982597  21.0868927  75.9996082  12.9682089
  21.7968545  75.3589274  12.9268707  21.0438235  76.2508976  13.8908270
  29.0755705  82.9363435  15.8888668  29.0168251  82.2522655  15.2219251
  29.4775224  83.6782425  15.4369294  19.7997861  72.9861299  14.7877728
  19.2635218  72.5352038  15.4399325  19.2114569  73.1207208  14.0448193
  29.0773113  80.9003019  14.1202648  28.1899891  80.5628941  14.2429047
  29.6471664  80.1686050  14.3571413  15.5336982  72.1217307  11.8730723
  15.4495171  71.5142977  11.1381133  14.7119688  72.6126325  11.8740219
  22.6074266  85.5604471  11.0863891  22.5344437  86.3659443  11.5983196
  22.1651659  85.7596437  10.2611912  25.7060696  70.6070871   7.2400918
  26.2029395  69.8540833   6.9201988  24.9347677  70.6435187   6.6744127
  33.5590453  76.3111236   8.8819210  33.5480329  77.1935952   8.5113143
  32.6907833  75.9582787   8.6873747  25.0672950  85.4591305  13.2422050
  25.7800922  86.0938770  13.1697951  24.5762978  85.5555171  12.4262052
  26.7890476  79.3642558   4.8139341  25.8546755  79.4844020   4.6444046
  26.9667145  78.4615025   4.5499351  22.2895664  72.7488254   6.9672603
  21.9193452  72.1959294   7.6553508  22.7854757  72.1446387   6.4147603
  30.1763028  75.2059877   5.3489376  30.6423480  76.0387869   5.2749678
  30.6270528  74.7404859   6.0534634  20.1184863  83.2085749  14.0627621
  20.8194323  83.8422232  14.2157015  19.6479978  83.5500480  13.3023260
  28.2439259  81.5503698   2.3475528  28.5199103  81.4360293   3.2569402
  27.3743758  81.1521183   2.3087701  28.1479691  67.5740464   9.3880277
  27.2342770  67.8044691   9.5562484  28.5772792  67.6578908  10.2394309
  27.9186149  75.7630356  11.8880171  27.2657599  76.0106264  11.2332624
  28.2966529  74.9494494  11.5542648  24.8793323  85.7990049   5.9908341
  25.0615717  84.9811705   6.4536094  25.7026309  86.0157742   5.5533231
  23.9673722  76.5050167  18.3746208  23.2914359  76.4044296  19.0448583
  24.7901356  76.3489381  18.8382205  22.7096505  87.8117095  12.6103824
  23.2614813  87.9748716  13.3752909  23.0502698  88.4021532  11.9383849
  17.6860998  70.1592244  13.2125709  17.7502325  71.0207075  12.8003106
  17.6228118  69.5466246  12.4798067  17.1613271  72.2315377  16.8598743
  17.7885309  71.8492454  17.4736267  16.3041190  72.0129579  17.2254435
  27.5607379  82.6378352  18.4652478  28.1047283  83.2508310  17.9707433
  26.9794224  83.1957931  18.9819491  25.8464892  85.7599070   9.5967506
  25.7216032  84.9588810   9.0878452  26.5043983  86.2545264   9.1081476
  17.4673060  72.1147803   8.7744646  16.7459646  72.7283770   8.6352120
  18.2566316  72.6505567   8.6961292  27.9099801  83.5608090  11.2247056
  26.9630136  83.4413441  11.1525383  28.2582574  82.6730588  11.3073318
  20.2699374  69.4502229  15.0485298  20.7933776  69.6964526  15.8111607
  20.0511707  70.2822264  14.6288435  24.9146234  83.3560806   7.4251408
  24.7671196  82.4277514   7.6058979  25.7399727  83.3780897   6.9408484
  28.5180356  84.1789365   8.5116281  29.4426903  83.9732227   8.3740732
  28.3495659  83.9305766   9.4205623  21.4751919  70.3915924  12.7334969
  21.1348739  69.5923737  13.1355649  20.7690925  70.6917635  12.1611802
  22.1268391  67.4765237  11.1862292  22.9494460  67.0025715  11.0641182
  22.3706454  68.2555720  11.6860978  20.7676625  70.5053495   1.4825193
  21.4884988  70.8834748   0.9788910  20.1441929  71.2242372   1.5860171
  24.9107748  71.2098644   2.4183526  25.1271363  72.0923282   2.1172354
  24.4301815  70.8184857   1.6889168  19.6506970  74.1684357   8.9954270
  19.5051550  74.4824660   9.8878552  19.1732173  74.7869258   8.4425169
  21.5103352  71.1586905   9.0435160  21.4964921  70.2627999   8.7067458
  22.2275781  71.1657569   9.6773446  23.3629483  71.5924246  11.0888287
  23.1047261  72.5141316  11.0872618  22.8314524  71.1954680  11.7788751
  28.3075672  84.6975033   3.8678373  28.4812549  84.1321455   3.1152225
  28.8004563  85.4975928   3.6857863  14.1252632  76.7089702  11.9341932
  13.5806100  77.4849510  12.0662206  15.0031982  77.0560506  11.7761053
  20.9140248  70.0401286   4.3122730  21.0356160  69.1117932   4.5113618
  20.6242291  70.0539972   3.4001045  23.7831439  67.7256196   7.4489450
  23.8053136  67.7895529   6.4941429  24.1999498  66.8860705   7.6429956
  34.1615063  77.4611456   5.4868672  34.6046209  76.7118781   5.0887796
  33.2841573  77.4521592   5.1042404  14.9118654  75.8359598  14.8272088
  14.1700390  75.9842233  15.4136719  14.5911398  76.0967864  13.9638838
  31.1942268  81.4641503   2.4962602  31.7193592  81.8028775   1.7711922
  31.1064620  80.5288518   2.3125736  22.8562316  85.3775576  14.6252478
  23.1649443  85.1324723  15.4975178  23.6537798  85.5822215  14.1371349
  20.3256800  83.0751495   8.9280157  19.7036810  82.4122200   8.6282384
  20.9961667  83.1012627   8.2453804  20.3981328  71.5533283  18.5212663
  20.4469483  72.4295406  18.1390432  20.9403842  71.0110676  17.9484306
  30.8836174  82.0974406  17.8013800  30.0931717  82.0798545  17.2618299
  30.6469528  82.6362700  18.5562836  31.0034049  78.9466873  15.1146528
  31.0532054  78.7816880  16.0562051  30.8947972  78.0794132  14.7244409
  28.2937811  74.9297801  16.4305835  29.1947674  74.7904265  16.1389833
  28.3685786  75.0952255  17.3704012  22.6280616  72.3064655  15.2759021
  21.7583926  72.5998221  15.0041610  22.8640097  72.8905100  15.9966285
  32.5052245  81.3663814  15.3588550  32.2137054  81.7293795  16.1952011
  31.8924377  80.6530822  15.1801882  33.7047928  78.9316694   7.8791120
  34.5394819  79.3706498   8.0428680  33.8407057  78.4555347   7.0599366
  30.7539434  76.4896429  13.8268608  31.2293555  76.6824075  13.0187459
  29.8304999  76.5455615  13.5811991  25.3319650  68.5244272  12.7924442
  25.8501594  69.2605299  12.4670930  24.9774783  68.8308266  13.6271201
  25.5832244  64.9444555   8.3125338  25.8633998  64.2767744   8.9385765
  26.3682851  65.1373650   7.8000002  29.4541103  73.3662189  12.0596913
  30.4058526  73.4660286  12.0809137  29.2844553  72.5740457  12.5694998
  27.4755482  70.4517772  12.2456314  26.8805414  70.7322785  11.5502803
  27.1905179  70.9411673  13.0173055  31.9329181  76.5868309  11.1739213
  31.9005501  75.6484309  11.3598897  32.5429804  76.6652345  10.4405038
  32.0823669  73.3779352  11.2197496  31.5662718  72.5937809  11.0327425
  32.9663618  73.0498069  11.3844016  29.7434396  67.1220368   7.1793309
  29.5459217  66.8135456   8.0636641  30.3534101  67.8482006   7.3091239
  37.7505730  77.6484315  10.3145250  38.4809119  77.3869603  10.8752953
  37.1412676  76.9113037  10.3547318  35.8321027  75.7892178  10.9119701
  35.1054191  75.6548143  10.3036193  35.4168314  76.0969007  11.7176419
  23.6551204  79.5082108  18.6767074  24.5754213  79.6860707  18.8707121
  23.6200787  78.5638153  18.5246773  16.6513276  77.4183142  11.3189855
  16.8699286  78.3500250  11.3377889  17.0639050  77.0591117  12.1044659
  23.5717494  67.9251228   3.3065544  22.7618223  67.5798313   3.6820790
  24.2601911  67.6158771   3.8953155  25.5008043  67.0029274   4.9289840
  26.0539081  67.4224728   5.5879863  25.7378129  66.0765022   4.9712796
  21.5241142  72.9916348  20.7092604  21.4237869  73.9410705  20.6404695
  21.3062684  72.6634587  19.8368674  28.8786850  69.1129800   4.4368504
  28.2985519  69.7714604   4.0546557  28.6122782  68.2907144   4.0255922
  27.3290416  68.5134857   6.6389825  27.8290194  68.6251392   5.8304144
  27.9726024  68.2095910   7.2790633  21.3872412  76.4213487  19.5257666
  20.9039494  77.2213847  19.7321555  21.4733351  76.4321432  18.5725110
  17.3145749  80.3118022  11.5626100  18.2689003  80.2801964  11.4956031
  17.1158273  79.8508645  12.3776325  17.9045131  78.8819138  14.1296897
  18.7238020  79.3763216  14.1531735  18.1781939  77.9651106  14.1014465
  27.6611728  71.2729890   3.4924853  26.7737583  71.5579541   3.2745047
  28.0765717  71.1123653   2.6452130  31.0126264  71.2976411   7.2079192
  31.7886654  71.7872863   7.4803809  30.2874398  71.7234465   7.6651061
  33.4498822  72.0104030   8.2653133  34.0443313  71.7699766   7.5546441
  33.5225406  71.2911161   8.8926669  27.6352751  76.7884426   3.7075143
  27.5787953  77.2452977   2.8682775  28.1881094  76.0275110   3.5297986
  31.4457557  72.5774158   4.5325262  31.1894492  72.1770793   5.3633470
  30.8210425  73.2917952   4.4075402  35.7569895  75.3170231   7.0396554
  35.1969453  75.3863420   7.8128116  35.1513399  75.1411216   6.3196050
  28.3687531  77.9789207   1.0027672  28.3136334  77.8133479   0.0616116
  27.7433586  78.6865240   1.1589862  13.1580046  73.2157271  14.8289094
  13.8038909  72.7056225  15.3176319  12.9497197  73.9525953  15.4032520
  25.6833438  80.2838119  20.3281235  26.5524598  80.4578771  19.9667870
  25.2040189  81.1032536  20.2056964  21.6783656  67.4797316   0.5812990
  21.6662326  68.4239156   0.7381261  22.5707078  67.2967462   0.2872452
  19.8519618  87.4035220  12.0070669  20.7546865  87.4358830  12.3237163
  19.6256988  86.4735671  12.0217004  25.4935776  64.0740093   4.8358927
  24.7268171  63.5198579   4.9815610  25.9046481  64.1461962   5.6973079
  17.4977537  70.3624889  18.9264109  18.3608998  70.0061693  19.1367433
  16.9242947  70.0238783  19.6139513  37.3425914  91.9926745   9.7326510
  37.9804324  91.8733492   9.0289850  37.2246757  92.9407589   9.7914462
  34.1515620  91.9454173   9.6688034  33.8134131  91.8295238   8.7808569
  35.0205388  91.5445338   9.6489040  34.6335403  93.0989025  15.6274240
  34.6224044  92.7041823  14.7554743  34.7956042  92.3655097  16.2208011
  31.3542664  95.8826137  14.5753424  31.0632530  96.7871767  14.4600090
  31.9899648  95.9242664  15.2897493  32.2798871  93.2602985  11.1654783
  32.8762443  93.0359007  10.4511746  32.3373842  92.5187731  11.7680231
  36.8967182  89.7178199   6.8079718  37.6830271  89.2997622   6.4570135
  37.1605886  90.6224291   6.9761366  42.2975609  89.6553432   7.7112696
  43.0300781  89.0852649   7.9450526  41.5414965  89.2675032   8.1519202
  33.9151729  92.0780673   4.9076039  33.5509936  91.5511294   5.6188960
  34.7718845  91.6879143   4.7342524  39.8201030  83.3675006  12.1707305
  39.4884354  84.2370417  11.9468520  39.2246643  83.0511290  12.8501335
  36.3132549  95.5687552  11.5703217  36.0133272  96.4712591  11.4619025
  35.9683609  95.3019735  12.4224370  29.7645031  92.0201349   7.6039922
  28.8395527  91.8877563   7.8117614  30.0129444  92.7995568   8.1009864
  39.7129693  88.0870092   9.2500655  38.8046570  88.0185501   8.9559416
  39.6617289  88.5642037  10.0782480  33.7870559  89.5059738  17.1935552
  33.0103893  90.0653658  17.1838417  34.4261122  89.9916521  17.7150422
  41.5791339  86.2886531  11.0278529  40.9365720  86.5819064  10.3818323
  41.0746268  86.1739451  11.8331725  39.2331503  90.0349704   1.7164388
  40.1449359  90.2677091   1.5412085  38.7241150  90.6186748   1.1539467
  32.0416931  92.3145191  16.7553519  32.7831615  92.8530235  16.4788343
  31.3353916  92.9411480  16.9125071  37.5172271  94.4574332  15.3525681
  37.9255627  94.0156742  14.6080313  36.7949532  93.8826959  15.6059873
  33.8703341  89.3946938  12.7259237  34.7164536  89.8186352  12.8693886
  33.8101978  88.7380563  13.4197801  37.8401085  95.0175522   9.1077969
  37.2109948  95.1821236   8.4054037  37.4526747  95.4317132   9.8788933
  41.7190317  95.9529960   6.4622333  41.0341355  96.3328861   5.9119366
  41.8034166  96.5625287   7.1954281  37.0202786  87.0551307  14.3840411
  36.7763718  87.8093367  13.8474687  37.2962717  87.4336654  15.2187658
  38.9741249  93.5989919  13.0617677  39.1858144  94.2421679  12.3852058
  38.9270997  92.7652236  12.5939607  36.5767478  86.2107740   9.9654249
  35.7151957  86.5088993  10.2570986  36.6029912  86.4278139   9.0335281
  33.3929047  94.7549930   6.3728054  33.8567393  95.0337633   5.5832677
  33.1285845  93.8533375   6.1901145  30.2853128  94.3021412   9.3107818
  30.8554485  94.7308680   8.6725302  30.8761240  94.0203997  10.0092003
  32.3297933  90.8773083   3.1817620  33.0321977  91.3294126   3.6491546
  31.9978562  90.2356902   3.8097513  30.7778295  89.4684839  17.5568829
  30.1476955  90.1501120  17.7904226  30.6714383  89.3567921  16.6121967
  26.0723267  89.1356635   8.4834753  25.2822321  89.3914164   8.0074864
  26.5634515  89.9504973   8.5886794  40.0887077  96.4761875  11.2340034
  40.9104520  96.0742062  10.9522716  40.0849480  96.3730109  12.1856150
  33.8543680  96.0245918  13.3900745  33.9188113  96.4866325  14.2258916
  33.1454604  95.3943283  13.5183054  24.3560970  89.3887126  10.9149744
  24.6069009  90.2734136  11.1807320  24.8920519  89.2091727  10.1424836
  48.1793070  92.8200623   7.5825005  47.4256778  92.2508021   7.4269010
  48.3140611  92.7863288   8.5295640  30.0559037  83.7705605  19.9194080
  29.6625983  83.2171804  20.5941724  30.8725178  84.0816184  20.3100598
  32.9726998  85.1863484  17.5114337  33.7136712  85.7870637  17.4318799
  33.2044921  84.4441122  16.9532379  28.1168336  90.3719852  15.7892566
  28.0021852  89.4705109  16.0899665  27.2612854  90.6183548  15.4377383
  35.1960174  98.3137592  17.3880067  34.7524028  97.5273970  17.0700971
  35.8577388  98.5016742  16.7223958  29.9547295  99.8433393  11.9140745
  30.5054720  99.7150457  11.1417739  29.1158771 100.1428282  11.5635638
  37.2941412  98.5940392  15.4161468  37.2759888  99.4149273  14.9241737
  38.2161332  98.4694467  15.6411609  33.7514466  96.1084521  16.2584977
  34.2842803  95.3472809  16.0284285  33.2228548  95.8158173  17.0009131
  36.9184161  81.2144587  11.7878618  36.5748431  82.1046229  11.7117729
  37.2863124  81.0246245  10.9248203  36.8834444  91.2053198   0.2951053
  36.3681068  91.9757803   0.5339441  36.6111753  90.5318335   0.9184115
  34.4681555  86.0502899   5.3536292  33.6123151  85.6609750   5.1741930
  34.8808507  86.1294860   4.4936077  35.9980702  83.5849242   9.7527852
  35.4945497  83.5479378   8.9395657  36.2911309  84.4941985   9.8124508
  32.2423588  83.6687972   8.7594033  33.1076584  83.4730781   8.3999923
  32.3101097  83.4398324   9.6863390  41.8568718  93.9585553   2.2304227
  41.0798161  93.6196712   1.7859389  42.5360199  93.9638176   1.5559192
  36.6720747  89.0780290   2.1210835  36.3670883  89.3926440   2.9720978
  37.6251189  89.1561710   2.1638168  40.0960025  93.4319534   8.8870835
  39.4383700  94.1218796   8.9750964  40.9000424  93.8215966   9.2304821
  29.8485907  85.8990180   6.1310400  30.4229659  85.6765362   5.3983593
  30.4356889  85.9678875   6.8839001  38.9065484  91.7863907   6.9374777
  39.4197366  92.4193899   7.4396486  39.5566708  91.1865102   6.5718137
  32.1508574  82.7731429   4.8585470  31.4972987  82.4580446   4.2342084
  32.1089049  82.1507169   5.5845292  35.3846315  89.2613362   9.1833117
  34.4668876  89.4828309   9.0254805  35.8006458  89.3359673   8.3244824
  36.1681363  90.6604778   4.3135797  36.9153182  91.1726175   4.0042919
  36.4372952  90.3388831   5.1740191  39.6727280  96.7669908   5.0653919
  39.2189607  95.9260818   5.1219110  39.0421247  97.4031307   5.4028699
  38.6160200  87.6961894   6.2954587  37.8782957  87.1839281   6.6264829
  38.8686973  87.2562276   5.4837864  38.1160219  98.6046405   6.0003737
  38.4083194  99.1651462   5.2816103  38.6258840  98.8974966   6.7556897
  38.7171827  80.4738146   6.8896356  39.0230704  79.6135510   6.6022271
  39.4424432  81.0655767   6.6895350  32.9892907  90.7691939   7.3972547
  33.0441517  89.8165776   7.3215024  32.1784109  90.9251379   7.8813845
  30.9285267  89.3868999   5.1562926  30.1153132  89.6863170   5.5628118
  31.4244261  88.9924688   5.8737408  36.5259478  89.8510824  13.9877820
  36.8808866  90.0782297  14.8472286  37.1731610  90.1829200  13.3655075
  42.2557215  92.9729260   4.6927149  42.1175114  93.1630856   3.7648338
  41.8993434  93.7348642   5.1495200  30.4199341  86.9587355  10.7724161
  31.0598721  86.8176114  10.0747124  29.5876872  86.6721868  10.3962763
  42.2826595  95.0405787   9.7038420  42.7163102  94.9481076  10.5521474
  42.9958176  95.0163287   9.0658436  36.0154490  98.6407881  11.2371521
  36.0691512  99.2098817  12.0049237  35.1469271  98.8109766  10.8725558
  27.4227958  86.9287680   5.5497148  27.6834775  87.8433013   5.4406308
  28.2445130  86.4612122   5.6993760  28.8952883  88.3425437  12.7195972
  29.5675937  88.1342799  12.0708621  28.0682670  88.1447523  12.2801204
  43.1442145  95.0829487  12.2371306  43.3378035  95.9875298  12.4830581
  43.0442763  94.6236906  13.0709891  34.7978455  84.9687378  14.7361633
  34.1506370  85.6677327  14.6426109  35.5679471  85.4023522  15.1037881
  38.2057253  95.2336230  17.8112186  38.0542760  95.0046782  16.8942270
  38.1961933  96.1906831  17.8243531  34.9742590  92.8068143  12.7958453
  35.9034650  92.9579302  12.6227420  34.5533620  92.8952164  11.9407099
  33.7730921  96.8318807  10.5656990  33.6342007  96.4637592  11.4382929
  32.9845518  97.3466447  10.3940948  35.3236137  96.2100410   7.9545828
  34.9885969  96.1701180   8.8503478  34.8240082  95.5445126   7.4816238
  29.2980380  91.6168040  13.4798409  29.1600178  90.8848279  14.0809948
  30.2085304  91.5276940  13.1982597  31.9262681  91.3287999  12.9682089
  32.6362300  90.6881191  12.9268707  31.8831989  91.5800894  13.8908270
  39.9149460  98.2655353  15.8888668  39.8562006  97.5814573  15.2219251
  40.3168978  99.0074343  15.4369294  30.6391615  88.3153217  14.7877728
  30.1028972  87.8643956  15.4399325  30.0508324  88.4499126  14.0448193
  39.9166867  96.2294936  14.1202648  39.0293646  95.8920858  14.2429047
  40.4865418  95.4977968  14.3571413  26.3730736  87.4509225  11.8730723
  26.2888925  86.8434894  11.1381133  25.5513443  87.9418243  11.8740219
  33.4468020 100.8896389  11.0863891  33.3738192 101.6951360  11.5983196
  33.0045414 101.0888355  10.2611912  36.5454450  85.9362788   7.2400918
  37.0423150  85.1832751   6.9201988  35.7741432  85.9727105   6.6744127
  44.3984208  91.6403154   8.8819210  44.3874084  92.5227869   8.5113143
  43.5301587  91.2874705   8.6873747  35.9066704 100.7883223  13.2422050
  36.6194676 101.4230688  13.1697951  35.4156733 100.8847089  12.4262052
  37.6284231  94.6934476   4.8139341  36.6940510  94.8135938   4.6444046
  37.8060899  93.7906942   4.5499351  33.1289419  88.0780171   6.9672603
  32.7587206  87.5251212   7.6553508  33.6248511  87.4738305   6.4147603
  41.0156782  90.5351795   5.3489376  41.4817234  91.3679786   5.2749678
  41.4664283  90.0696776   6.0534634  30.9578618  98.5377666  14.0627621
  31.6588077  99.1714149  14.2157015  30.4873733  98.8792398  13.3023260
  39.0833013  96.8795616   2.3475528  39.3592857  96.7652211   3.2569402
  38.2137512  96.4813101   2.3087701  38.9873445  82.9032382   9.3880277
  38.0736525  83.1336609   9.5562484  39.4166546  82.9870826  10.2394309
  38.7579904  91.0922274  11.8880171  38.1051354  91.3398181  11.2332624
  39.1360283  90.2786412  11.5542648  35.7187077 101.1281967   5.9908341
  35.9009472 100.3103623   6.4536094  36.5420063 101.3449659   5.5533231
  34.8067477  91.8342085  18.3746208  34.1308114  91.7336214  19.0448583
  35.6295110  91.6781299  18.8382205  33.5490259 103.1409012  12.6103824
  34.1008567 103.3040634  13.3752909  33.8896453 103.7313450  11.9383849
  28.5254753  85.4884162  13.2125709  28.5896079  86.3498993  12.8003106
  28.4621873  84.8758164  12.4798067  28.0007025  87.5607295  16.8598743
  28.6279064  87.1784372  17.4736267  27.1434944  87.3421497  17.2254435
  38.4001134  97.9670270  18.4652478  38.9441038  98.5800228  17.9707433
  37.8187979  98.5249848  18.9819491  36.6858647 101.0890988   9.5967506
  36.5609786 100.2880728   9.0878452  37.3437738 101.5837181   9.1081476
  28.3066815  87.4439720   8.7744646  27.5853401  88.0575688   8.6352120
  29.0960071  87.9797485   8.6961292  38.7493555  98.8900008  11.2247056
  37.8023891  98.7705359  11.1525383  39.0976328  98.0022506  11.3073318
  31.1093128  84.7794147  15.0485298  31.6327530  85.0256443  15.8111607
  30.8905462  85.6114182  14.6288435  35.7539988  98.6852724   7.4251408
  35.6064951  97.7569432   7.6058979  36.5793482  98.7072815   6.9408484
  39.3574110  99.5081283   8.5116281  40.2820658  99.3024144   8.3740732
  39.1889414  99.2597684   9.4205623  32.3145673  85.7207842  12.7334969
  31.9742494  84.9215655  13.1355649  31.6084680  86.0209553  12.1611802
  32.9662145  82.8057154  11.1862292  33.7888215  82.3317633  11.0641182
  33.2100209  83.5847638  11.6860978  31.6070380  85.8345413   1.4825193
  32.3278742  86.2126666   0.9788910  30.9835684  86.5534290   1.5860171
  35.7501503  86.5390562   2.4183526  35.9665117  87.4215200   2.1172354
  35.2695570  86.1476775   1.6889168  30.4900724  89.4976275   8.9954270
  30.3445305  89.8116578   9.8878552  30.0125928  90.1161175   8.4425169
  32.3497107  86.4878823   9.0435160  32.3358676  85.5919916   8.7067458
  33.0669535  86.4949487   9.6773446  34.2023238  86.9216163  11.0888287
  33.9441015  87.8433234  11.0872618  33.6708278  86.5246598  11.7788751
  39.1469426 100.0266950   3.8678373  39.3206304  99.4613373   3.1152225
  39.6398318 100.8267845   3.6857863  24.9646386  92.0381619  11.9341932
  24.4199854  92.8141427  12.0662206  25.8425736  92.3852424  11.7761053
  31.7534003  85.3693203   4.3122730  31.8749914  84.4409849   4.5113618
  31.4636045  85.3831889   3.4001045  34.6225193  83.0548114   7.4489450
  34.6446890  83.1187447   6.4941429  35.0393252  82.2152622   7.6429956
  45.0008818  92.7903373   5.4868672  45.4439964  92.0410698   5.0887796
  44.1235328  92.7813510   5.1042404  25.7512408  91.1651516  14.8272088
  25.0094144  91.3134151  15.4136719  25.4305152  91.4259781  13.9638838
  42.0336022  96.7933420   2.4962602  42.5587346  97.1320693   1.7711922
  41.9458375  95.8580436   2.3125736  33.6956071 100.7067494  14.6252478
  34.0043197 100.4616641  15.4975178  34.4931553 100.9114132  14.1371349
  31.1650555  98.4043413   8.9280157  30.5430564  97.7414118   8.6282384
  31.8355422  98.4304544   8.2453804  31.2375082  86.8825201  18.5212663
  31.2863238  87.7587323  18.1390432  31.7797597  86.3402594  17.9484306
  41.7229928  97.4266324  17.8013800  40.9325472  97.4090463  17.2618299
  41.4863283  97.9654618  18.5562836  41.8427803  94.2758790  15.1146528
  41.8925808  94.1108798  16.0562051  41.7341726  93.4086049  14.7244409
  39.1331566  90.2589718  16.4305835  40.0341428  90.1196183  16.1389833
  39.2079540  90.4244173  17.3704012  33.4674371  87.6356573  15.2759021
  32.5977680  87.9290139  15.0041610  33.7033851  88.2197018  15.9966285
  43.3446000  96.6955732  15.3588550  43.0530808  97.0585712  16.1952011
  42.7318131  95.9822740  15.1801882  44.5441682  94.2608612   7.8791120
  45.3788574  94.6998416   8.0428680  44.6800811  93.7847265   7.0599366
  41.5933188  91.8188346  13.8268608  42.0687310  92.0115993  13.0187459
  40.6698754  91.8747532  13.5811991  36.1713405  83.8536190  12.7924442
  36.6895349  84.5897217  12.4670930  35.8168537  84.1600183  13.6271201
  36.4225999  80.2736472   8.3125338  36.7027753  79.6059662   8.9385765
  37.2076606  80.4665568   7.8000002  40.2934857  88.6954106  12.0596913
  41.2452280  88.7952204  12.0809137  40.1238308  87.9032375  12.5694998
  38.3149237  85.7809690  12.2456314  37.7199169  86.0614702  11.5502803
  38.0298933  86.2703591  13.0173055  42.7722935  91.9160226  11.1739213
  42.7399255  90.9776227  11.3598897  43.3823559  91.9944263  10.4405038
  42.9217423  88.7071270  11.2197496  42.4056472  87.9229726  11.0327425
  43.8057372  88.3789986  11.3844016  40.5828150  82.4512285   7.1793309
  40.3852972  82.1427373   8.0636641  41.1927856  83.1773924   7.3091239
  48.5899485  92.9776233  10.3145250  49.3202873  92.7161521  10.8752953
  47.9806430  92.2404955  10.3547318  46.6714782  91.1184096  10.9119701
  45.9447946  90.9840061  10.3036193  46.2562069  91.4260924  11.7176419
  34.4944958  94.8374025  18.6767074  35.4147968  95.0152624  18.8707121
  34.4594541  93.8930071  18.5246773  27.4907031  92.7475060  11.3189855
  27.7093041  93.6792168  11.3377889  27.9032805  92.3883034  12.1044659
  34.4111249  83.2543145   3.3065544  33.6011977  82.9090230   3.6820790
  35.0995666  82.9450689   3.8953155  36.3401797  82.3321192   4.9289840
  36.8932836  82.7516645   5.5879863  36.5771883  81.4056940   4.9712796
  32.3634896  88.3208266  20.7092604  32.2631623  89.2702623  20.6404695
  32.1456438  87.9926505  19.8368674  39.7180604  84.4421717   4.4368504
  39.1379273  85.1006521   4.0546557  39.4516537  83.6199062   4.0255922
  38.1684170  83.8426775   6.6389825  38.6683949  83.9543309   5.8304144
  38.8119778  83.5387828   7.2790633  32.2266166  91.7505405  19.5257666
  31.7433248  92.5505765  19.7321555  32.3127105  91.7613349  18.5725110
  28.1539504  95.6409939  11.5626100  29.1082757  95.6093882  11.4956031
  27.9552027  95.1800563  12.3776325  28.7438886  94.2111055  14.1296897
  29.5631775  94.7055134  14.1531735  29.0175694  93.2943023  14.1014465
  38.5005482  86.6021808   3.4924853  37.6131337  86.8871458   3.2745047
  38.9159471  86.4415571   2.6452130  41.8520018  86.6268329   7.2079192
  42.6280408  87.1164781   7.4803809  41.1268152  87.0526383   7.6651061
  44.2892577  87.3395948   8.2653133  44.8837068  87.0991684   7.5546441
  44.3619161  86.6203078   8.8926669  38.4746506  92.1176344   3.7075143
  38.4181707  92.5744895   2.8682775  39.0274848  91.3567028   3.5297986
  42.2851312  87.9066075   4.5325262  42.0288246  87.5062711   5.3633470
  41.6604180  88.6209869   4.4075402  46.5963650  90.6462149   7.0396554
  46.0363208  90.7155338   7.8128116  45.9907153  90.4703133   6.3196050
  39.2081285  93.3081125   1.0027672  39.1530089  93.1425396   0.0616116
  38.5827340  94.0157158   1.1589862  23.9973800  88.5449189  14.8289094
  24.6432664  88.0348143  15.3176319  23.7890951  89.2817871  15.4032520
  36.5227192  95.6130037  20.3281235  37.3918352  95.7870689  19.9667870
  36.0433944  96.4324453  20.2056964  32.5177411  82.8089234   0.5812990
  32.5056080  83.7531074   0.7381261  33.4100833  82.6259379   0.2872452
  30.6913373 102.7327138  12.0070669  31.5940619 102.7650748  12.3237163
  30.4650743 101.8027589  12.0217004  36.3329530  79.4032010   4.8358927
  35.5661926  78.8490497   4.9815610  36.7440235  79.4753879   5.6973079
  28.3371291  85.6916806  18.9264109  29.2002753  85.3353611  19.1367433
  27.7636702  85.3530701  19.6139513  48.1819668 107.3218663   9.7326510
  48.8198078 107.2025410   9.0289850  48.0640511 108.2699507   9.7914462
  44.9909374 107.2746091   9.6688034  44.6527886 107.1587155   8.7808569
  45.8599143 106.8737256   9.6489040  45.4729157 108.4280942  15.6274240
  45.4617798 108.0333741  14.7554743  45.6349797 107.6947015  16.2208011
  42.1936419 111.2118054  14.5753424  41.9026284 112.1163685  14.4600090
  42.8293403 111.2534582  15.2897493  43.1192625 108.5894903  11.1654783
  43.7156198 108.3650925  10.4511746  43.1767597 107.8479648  11.7680231
  47.7360937 105.0470116   6.8079718  48.5224026 104.6289540   6.4570135
  47.9999641 105.9516209   6.9761366  50.6594784  98.6966924  12.1707305
  50.3278109  99.5662335  11.9468520  50.0640397  98.3803208  12.8501335
  47.1526304 110.8979470  11.5703217  46.8527027 111.8004509  11.4619025
  46.8077363 110.6311653  12.4224370  40.6038785 107.3493267   7.6039922
  39.6789282 107.2169481   7.8117614  40.8523198 108.1287486   8.1009864
  50.5523447 103.4162010   9.2500655  49.6440325 103.3477418   8.9559416
  50.5011043 103.8933955  10.0782480  44.6264313 104.8351656  17.1935552
  43.8497647 105.3945576  17.1838417  45.2654876 105.3208438  17.7150422
  52.4185094 101.6178448  11.0278529  51.7759474 101.9110981  10.3818323
  51.9140022 101.5031369  11.8331725  42.8810685 107.6437109  16.7553519
  43.6225370 108.1822153  16.4788343  42.1747671 108.2703398  16.9125071
  48.3566025 109.7866249  15.3525681  48.7649381 109.3448660  14.6080313
  47.6343287 109.2118877  15.6059873  44.7097095 104.7238856  12.7259237
  45.5558290 105.1478270  12.8693886  44.6495733 104.0672480  13.4197801
  47.8596540 102.3843224  14.3840411  47.6157472 103.1385285  13.8474687
  48.1356471 102.7628572  15.2187658  49.8135003 108.9281837  13.0617677
  50.0251899 109.5713597  12.3852058  49.7664752 108.0944153  12.5939607
  47.4161232 101.5399657   9.9654249  46.5545711 101.8380911  10.2570986
  47.4423667 101.7570056   9.0335281  41.1246883 109.6313330   9.3107818
  41.6948240 110.0600598   8.6725302  41.7154995 109.3495914  10.0092003
  41.6172049 104.7976757  17.5568829  40.9870710 105.4793038  17.7904226
  41.5108137 104.6859839  16.6121967  36.9117022 104.4648553   8.4834753
  36.1216076 104.7206082   8.0074864  37.4028269 105.2796891   8.5886794
  44.6937435 111.3537836  13.3900745  44.7581867 111.8158243  14.2258916
  43.9848359 110.7235200  13.5183054  35.1954725 104.7179044  10.9149744
  35.4462763 105.6026053  11.1807320  35.7314273 104.5383645  10.1424836
  40.8952792  99.0997523  19.9194080  40.5019738  98.5463721  20.5941724
  41.7118932  99.4108101  20.3100598  43.8120753 100.5155402  17.5114337
  44.5530466 101.1162555  17.4318799  44.0438676  99.7733040  16.9532379
  38.9562091 105.7011769  15.7892566  38.8415606 104.7997026  16.0899665
  38.1006609 105.9475466  15.4377383  46.0353929 113.6429510  17.3880067
  45.5917783 112.8565888  17.0700971  46.6971142 113.8308660  16.7223958
  40.7941050 115.1725311  11.9140745  41.3448475 115.0442374  11.1417739
  39.9552526 115.4720200  11.5635638  48.1335167 113.9232309  15.4161468
  48.1153642 114.7441191  14.9241737  49.0555087 113.7986385  15.6411609
  44.5908221 111.4376439  16.2584977  45.1236558 110.6764727  16.0284285
  44.0622302 111.1450091  17.0009131  47.7577916  96.5436505  11.7878618
  47.4142185  97.4338147  11.7117729  48.1256878  96.3538163  10.9248203
  45.3075310 101.3794817   5.3536292  44.4516906 100.9901667   5.1741930
  45.7202261 101.4586778   4.4936077  46.8374456  98.9141160   9.7527852
  46.3339252  98.8771295   8.9395657  47.1305063  99.8233903   9.8124508
  43.0817342  98.9979890   8.7594033  43.9470339  98.8022698   8.3999923
  43.1494851  98.7690242   9.6863390  40.6879661 101.2282098   6.1310400
  41.2623413 101.0057279   5.3983593  41.2750644 101.2970792   6.8839001
  42.9902329  98.1023347   4.8585470  42.3366741  97.7872364   4.2342084
  42.9482803  97.4799087   5.5845292  46.2240069 104.5905280   9.1833117
  45.3062631 104.8120227   9.0254805  46.6400213 104.6651591   8.3244824
  49.5565582  95.8030064   6.8896356  49.8624458  94.9427428   6.6022271
  50.2818186  96.3947684   6.6895350  43.8286661 106.0983857   7.3972547
  43.8835271 105.1457694   7.3215024  43.0177863 106.2543296   7.8813845
  41.7679021 104.7160917   5.1562926  40.9546887 105.0155087   5.5628118
  42.2638015 104.3216606   5.8737408  47.3653233 105.1802741  13.9877820
  47.7202621 105.4074215  14.8472286  48.0125364 105.5121118  13.3655075
  41.2593096 102.2879272  10.7724161  41.8992475 102.1468032  10.0747124
  40.4270627 102.0013786  10.3962763  46.8548244 113.9699798  11.2371521
  46.9085267 114.5390735  12.0049237  45.9863026 114.1401683  10.8725558
  38.2621712 102.2579597   5.5497148  38.5228530 103.1724931   5.4406308
  39.0838885 101.7904040   5.6993760  39.7346638 103.6717355  12.7195972
  40.4069691 103.4634717  12.0708621  38.9076424 103.4739441  12.2801204
  45.6372210 100.2979296  14.7361633  44.9900125 100.9969245  14.6426109
  46.4073225 100.7315439  15.1037881  49.0451008 110.5628148  17.8112186
  48.8936514 110.3338699  16.8942270  49.0355687 111.5198749  17.8243531
  45.8136344 108.1360060  12.7958453  46.7428404 108.2871220  12.6227420
  45.3927374 108.2244081  11.9407099  44.6124676 112.1610725  10.5656990
  44.4735762 111.7929509  11.4382929  43.8239272 112.6758364  10.3940948
  40.1374135 106.9459958  13.4798409  39.9993933 106.2140196  14.0809948
  41.0479058 106.8568858  13.1982597  42.7656436 106.6579917  12.9682089
  43.4756054 106.0173109  12.9268707  42.7225744 106.9092812  13.8908270
  50.7543214 113.5947270  15.8888668  50.6955760 112.9106490  15.2219251
  51.1562733 114.3366260  15.4369294  41.4785370 103.6445135  14.7877728
  40.9422727 103.1935873  15.4399325  40.8902078 103.7791044  14.0448193
  50.7560622 111.5586854  14.1202648  49.8687400 111.2212776  14.2429047
  51.3259173 110.8269885  14.3571413  37.2124491 102.7801142  11.8730723
  37.1282680 102.1726812  11.1381133  36.3907197 103.2710161  11.8740219
  47.3848205 101.2654706   7.2400918  47.8816904 100.5124668   6.9201988
  46.6135186 101.3019023   6.6744127  46.7460458 116.1175141  13.2422050
  47.4588431 116.7522605  13.1697951  46.2550487 116.2139007  12.4262052
  43.9683173 103.4072089   6.9672603  43.5980961 102.8543129   7.6553508
  44.4642266 102.8030222   6.4147603  41.7972372 113.8669584  14.0627621
  42.4981832 114.5006067  14.2157015  41.3267487 114.2084316  13.3023260
  49.8267200  98.2324299   9.3880277  48.9130279  98.4628526   9.5562484
  50.2560301  98.3162744  10.2394309  49.5973658 106.4214191  11.8880171
  48.9445108 106.6690099  11.2332624  49.9754038 105.6078330  11.5542648
  45.6461231 107.1634003  18.3746208  44.9701868 107.0628132  19.0448583
  46.4688865 107.0073216  18.8382205  39.3648507 100.8176080  13.2125709
  39.4289834 101.6790911  12.8003106  39.3015627 100.2050081  12.4798067
  38.8400780 102.8899212  16.8598743  39.4672818 102.5076290  17.4736267
  37.9828699 102.6713414  17.2254435  49.2394888 113.2962187  18.4652478
  49.7834792 113.9092146  17.9707433  48.6581733 113.8541766  18.9819491
  39.1460569 102.7731638   8.7744646  38.4247155 103.3867606   8.6352120
  39.9353825 103.3089403   8.6961292  41.9486883 100.1086064  15.0485298
  42.4721285 100.3548361  15.8111607  41.7299216 100.9406099  14.6288435
  43.1539428 101.0499760  12.7334969  42.8136248 100.2507573  13.1355649
  42.4478434 101.3501470  12.1611802  43.8055900  98.1349072  11.1862292
  44.6281969  97.6609550  11.0641182  44.0493963  98.9139556  11.6860978
  41.3294479 104.8268193   8.9954270  41.1839059 105.1408496   9.8878552
  40.8519682 105.4453093   8.4425169  43.1890861 101.8170741   9.0435160
  43.1752430 100.9211834   8.7067458  43.9063290 101.8241404   9.6773446
  45.0416992 102.2508081  11.0888287  44.7834770 103.1725152  11.0872618
  44.5102033 101.8538515  11.7788751  35.8040141 107.3673537  11.9341932
  35.2593609 108.1433345  12.0662206  36.6819491 107.7144342  11.7761053
  42.5927757 100.6985121   4.3122730  42.7143669  99.7701767   4.5113618
  42.3029800 100.7123807   3.4001045  45.4618948  98.3840031   7.4489450
  45.4840645  98.4479364   6.4941429  45.8787007  97.5444540   7.6429956
  36.5906163 106.4943433  14.8272088  35.8487899 106.6426069  15.4136719
  36.2698907 106.7551699  13.9638838  44.5349825 116.0359412  14.6252478
  44.8436952 115.7908558  15.4975178  45.3325307 116.2406050  14.1371349
  42.0768837 102.2117118  18.5212663  42.1256992 103.0879241  18.1390432
  42.6191351 101.6694511  17.9484306  52.5623683 112.7558242  17.8013800
  51.7719226 112.7382380  17.2618299  52.3257037 113.2946535  18.5562836
  52.6821558 109.6050708  15.1146528  52.7319563 109.4400715  16.0562051
  52.5735481 108.7377967  14.7244409  49.9725320 105.5881636  16.4305835
  50.8735183 105.4488101  16.1389833  50.0473295 105.7536091  17.3704012
  44.3068125 102.9648491  15.2759021  43.4371435 103.2582057  15.0041610
  44.5427606 103.5488936  15.9966285  54.1839754 112.0247649  15.3588550
  53.8924563 112.3877630  16.1952011  53.5711886 111.3114658  15.1801882
  52.4326943 107.1480264  13.8268608  52.9081064 107.3407910  13.0187459
  51.5092508 107.2039450  13.5811991  47.0107159  99.1828108  12.7924442
  47.5289103  99.9189135  12.4670930  46.6562292  99.4892101  13.6271201
  47.2619753  95.6028390   8.3125338  47.5421507  94.9351579   8.9385765
  48.0470360  95.7957486   7.8000002  51.1328612 104.0246024  12.0596913
  52.0846035 104.1244122  12.0809137  50.9632062 103.2324293  12.5694998
  49.1542991 101.1101607  12.2456314  48.5592923 101.3906620  11.5502803
  48.8692688 101.5995508  13.0173055  53.6116689 107.2452144  11.1739213
  53.5793010 106.3068145  11.3598897  54.2217313 107.3236181  10.4405038
  53.7611178 104.0363187  11.2197496  53.2450227 103.2521644  11.0327425
  54.6451127 103.7081904  11.3844016  51.4221905  97.7804203   7.1793309
  51.2246726  97.4719291   8.0636641  52.0321610  98.5065842   7.3091239
  45.3338713 110.1665943  18.6767074  46.2541722 110.3444542  18.8707121
  45.2988296 109.2221988  18.5246773  38.3300785 108.0766978  11.3189855
  38.5486795 109.0084085  11.3377889  38.7426559 107.7174952  12.1044659
  45.2505003  98.5835063   3.3065544  44.4405732  98.2382148   3.6820790
  45.9389420  98.2742607   3.8953155  47.1795552  97.6613110   4.9289840
  47.7326590  98.0808563   5.5879863  47.4165638  96.7348858   4.9712796
  43.2028651 103.6500183  20.7092604  43.1025378 104.5994540  20.6404695
  42.9850193 103.3218422  19.8368674  49.0077925  99.1718693   6.6389825
  49.5077703  99.2835227   5.8304144  49.6513533  98.8679745   7.2790633
  43.0659921 107.0797322  19.5257666  42.5827003 107.8797682  19.7321555
  43.1520860 107.0905267  18.5725110  38.9933258 110.9701857  11.5626100
  39.9476512 110.9385799  11.4956031  38.7945782 110.5092481  12.3776325
  39.5832640 109.5402973  14.1296897  40.4025529 110.0347052  14.1531735
  39.8569448 108.6234941  14.1014465  52.6913773 101.9560246   7.2079192
  53.4674163 102.4456699   7.4803809  51.9661907 102.3818300   7.6651061
  34.8367555 103.8741107  14.8289094  35.4826418 103.3640061  15.3176319
  34.6284706 104.6109788  15.4032520  47.3620947 110.9421954  20.3281235
  48.2312106 111.1162607  19.9667870  46.8827698 111.7616371  20.2056964
  41.5307127 118.0619055  12.0070669  42.4334374 118.0942666  12.3237163
  41.3044497 117.1319506  12.0217004  47.1723285  94.7323928   4.8358927
  46.4055680  94.1782415   4.9815610  47.5833990  94.8045797   5.6973079
  39.1765046 101.0208724  18.9264109  40.0396507 100.6645529  19.1367433
  38.6030456 100.6822619  19.6139513  51.7346546 114.4289441  19.9194080
  51.3413492 113.8755639  20.5941724  52.5512687 114.7400019  20.3100598
  54.6514507 115.8447320  17.5114337  55.3924221 116.4454473  17.4318799
  54.8832430 115.1024957  16.9532379  49.6794534 118.2191130  16.8598743
  50.3066573 117.8368207  17.4736267  48.8222453 118.0005332  17.2254435
  52.9162591 117.5409036  18.5212663  52.9650747 118.4171159  18.1390432
  53.4585106 116.9986429  17.9484306  54.0422405 118.9792101  20.7092604
  53.9419132 119.9286458  20.6404695  53.8243947 118.6510340  19.8368674
  45.6761309 119.2033025  14.8289094  46.3220173 118.6931978  15.3176319
  45.4678460 119.9401706  15.4032520  50.0158800 116.3500642  18.9264109
  50.8790262 115.9937446  19.1367433  49.4424211 116.0114536  19.6139513
  24.3566421  59.9907797   4.1125374  23.9130275  59.2044175   3.7946278
  25.0183635  60.1786947   3.4469264  26.4547659  60.2710597   2.1406775
  26.4366134  61.0919478   1.6487044  27.3767579  60.1464672   2.3656916
  27.3663500  56.9106435   4.5357493  27.2149006  56.6816987   3.6187577
  27.3568179  57.8677036   4.5488838  29.0755707  59.9425557   2.6133975
  29.0168253  59.2584778   1.9464558  29.4775225  60.6844547   2.1614601
  27.5607381  59.6440475   5.1897785  28.1047284  60.2570433   4.6952740
  26.9794225  60.2020053   5.7064798  30.8836175  59.1036529   4.5259106
  30.0931719  59.0860668   3.9863606  30.6469529  59.6424822   5.2808143
  32.5052247  58.3725937   2.0833856  32.2137055  58.7355917   2.9197317
  31.8924378  57.6592945   1.9047188  25.6833439  57.2900242   7.0526541
  26.5524599  57.4640894   6.6913176  25.2040191  58.1094658   6.9302271
  37.3425915  68.9988868  -3.5428184  37.9804325  68.8795615  -4.2464844
  37.2246758  69.9469711  -3.4840232  34.1515621  68.9516296  -3.6066659
  33.8134133  68.8357360  -4.4946124  35.0205389  68.5507461  -3.6265653
  34.6335404  70.1051147   2.3519546  34.6224045  69.7103946   1.4800050
  34.7956044  69.3717220   2.9453318  31.3542665  72.8888259   1.2998730
  31.0632531  73.7933890   1.1845397  31.9899650  72.9304787   2.0142800
  32.2798872  70.2665108  -2.1099910  32.8762444  70.0421130  -2.8242947
  32.3373844  69.5249853  -1.5074462  42.2975610  66.6615555  -5.5641997
  43.0300782  66.0914771  -5.3304168  41.5414966  66.2737155  -5.1235492
  39.8201031  60.3737129  -1.1047389  39.4884356  61.2432540  -1.3286174
  39.2246644  60.0573413  -0.4253358  36.3132550  72.5749675  -1.7051476
  36.0133273  73.4774713  -1.8135669  35.9683610  72.3081858  -0.8530323
  39.7129694  65.0932215  -4.0254039  38.8046571  65.0247623  -4.3195278
  39.6617290  65.5704160  -3.1972213  33.7870560  66.5121860   3.9180859
  33.0103894  67.0715781   3.9083723  34.4261123  66.9978643   4.4395729
  41.5791341  63.2948653  -2.2476165  40.9365721  63.5881186  -2.8936370
  41.0746269  63.1801574  -1.4422968  32.0416932  69.3207314   3.4798826
  32.7831617  69.8592358   3.2033649  31.3353918  69.9473603   3.6370377
  37.5172272  71.4636454   2.0770987  37.9255628  71.0218865   1.3325619
  36.7949533  70.8889082   2.3305180  33.8703342  66.4009061  -0.5495456
  34.7164537  66.8248475  -0.4060807  33.8101980  65.7442685   0.1443107
  37.8401087  72.0237645  -4.1676724  37.2109949  72.1883359  -4.8700656
  37.4526749  72.4379254  -3.3965760  41.7190318  72.9592083  -6.8132360
  41.0341357  73.3390984  -7.3635327  41.8034168  73.5687409  -6.0800412
  37.0202787  64.0613429   1.1085718  36.7763719  64.8155490   0.5719993
  37.2962718  64.4398777   1.9432965  38.9741250  70.6052042  -0.2137017
  39.1858145  71.2483802  -0.8902636  38.9270998  69.7714358  -0.6815087
  33.3929048  71.7612053  -6.9026639  33.8567394  72.0399756  -7.6922016
  33.1285847  70.8595498  -7.0853548  30.2853129  71.3083535  -3.9646876
  30.8554487  71.7370803  -4.6029391  30.8761241  71.0266119  -3.2662690
  30.7778296  66.4746962   4.2814136  30.1476957  67.1563243   4.5149532
  30.6714384  66.3630044   3.3367274  40.0887078  73.4823997  -2.0414659
  40.9104522  73.0804184  -2.3231978  40.0849481  73.3792231  -1.0898544
  33.8543681  73.0308040   0.1146051  33.9188114  73.4928448   0.9504223
  33.1454605  72.4005405   0.2428361  48.1793071  69.8262746  -5.6929688
  47.4256779  69.2570144  -5.8485683  48.3140612  69.7925410  -4.7459053
  30.0559039  60.7767728   6.6439387  29.6625984  60.2233926   7.3187031
  30.8725179  61.0878306   7.0345904  32.9727000  62.1925607   4.2359643
  33.7136713  62.7932760   4.1564106  33.2044923  61.4503245   3.6777686
  28.1168338  67.3781974   2.5137873  28.0021853  66.4767231   2.8144972
  27.2612855  67.6245671   2.1622689  35.1960175  75.3199714   4.1125374
  34.7524030  74.5336093   3.7946278  35.8577389  75.5078865   3.4469264
  29.9547297  76.8495516  -1.3613948  30.5054722  76.7212579  -2.1336954
  29.1158773  77.1490405  -1.7119055  37.2941414  75.6002514   2.1406775
  37.2759889  76.4211395   1.6487044  38.2161334  75.4756590   2.3656916
  33.7514468  73.1146644   2.9830283  34.2842804  72.3534932   2.7529591
  33.2228549  72.8220296   3.7254438  40.0960026  70.4381657  -4.3883858
  39.4383701  71.1280918  -4.3003730  40.9000426  70.8278089  -4.0449872
  38.9065485  68.7926030  -6.3379917  39.4197367  69.4256021  -5.8358207
  39.5566709  68.1927225  -6.7036557  35.3846316  66.2675485  -4.0921576
  34.4668877  66.4890432  -4.2499888  35.8006460  66.3421796  -4.9509869
  39.6727281  73.7732031  -8.2100774  39.2189609  72.9322941  -8.1535584
  39.0421248  74.4093429  -7.8725994  38.1160221  75.6108528  -7.2750956
  38.4083195  76.1713585  -7.9938590  38.6258841  75.9037089  -6.5197797
  36.5259480  66.8572946   0.7123126  36.8808867  67.0844419   1.5717592
  37.1731611  67.1891323   0.0900382  42.2557217  69.9791382  -8.5827545
  42.1175115  70.1692978  -9.5106355  41.8993435  70.7410765  -8.1259493
  42.2826596  72.0467909  -3.5716273  42.7163103  71.9543198  -2.7233219
  42.9958177  72.0225410  -4.2096257  36.0154491  75.6470003  -2.0383172
  36.0691513  76.2160940  -1.2705457  35.1469272  75.8171888  -2.4029135
  28.8952884  65.3487560  -0.5558721  29.5675938  65.1404922  -1.2046072
  28.0682671  65.1509646  -0.9953489  43.1442146  72.0891610  -1.0383388
  43.3378036  72.9937420  -0.7924113  43.0442764  71.6299029  -0.2044803
  34.7978456  61.9749500   1.4606940  34.1506372  62.6739450   1.3671416
  35.5679472  62.4085644   1.8283188  38.2057254  72.2398353   4.5357493
  38.0542761  72.0108904   3.6187577  38.1961934  73.1968954   4.5488838
  34.9742591  69.8130265  -0.4796241  35.9034651  69.9641425  -0.6527273
  34.5533621  69.9014286  -1.3347594  33.7730923  73.8380930  -2.7097703
  33.6342008  73.4699714  -1.8371765  32.9845519  74.3528569  -2.8813745
  35.3236138  73.2162532  -5.3208865  34.9885970  73.1763302  -4.4251215
  34.8240083  72.5507248  -5.7938455  29.2980382  68.6230162   0.2043716
  29.1600180  67.8910401   0.8055255  30.2085305  68.5339063  -0.0772096
  31.9262682  68.3350122  -0.3072604  32.6362301  67.6943314  -0.3485986
  31.8831991  68.5863017   0.6153576  39.9149461  75.2717475   2.6133975
  39.8562007  74.5876695   1.9464558  40.3168979  76.0136465   2.1614601
  30.6391616  65.3215340   1.5123035  30.1028973  64.8706078   2.1644631
  30.0508325  65.4561249   0.7693499  39.9166868  73.2357059   0.8447955
  39.0293647  72.8982981   0.9674353  40.4865419  72.5040090   1.0816720
  33.4468022  77.8958511  -2.1890802  33.3738193  78.7013483  -1.6771498
  33.0045415  78.0950477  -3.0142781  44.3984209  68.6465276  -4.3935484
  44.3874085  69.5289992  -4.7641551  43.5301588  68.2936827  -4.5880947
  35.9066705  77.7945345  -0.0332644  36.6194677  78.4292810  -0.1056742
  35.4156734  77.8909211  -0.8492642  37.6284232  71.6996598  -8.4615352
  36.6940511  71.8198061  -8.6310648  37.8060901  70.7969065  -8.7255342
  41.0156784  67.5413917  -7.9265318  41.4817236  68.3741909  -8.0005015
  41.4664284  67.0758899  -7.2220059  30.9578619  75.5439789   0.7872927
  31.6588078  76.1776272   0.9402321  30.4873734  75.8854520   0.0268566
  38.7579905  68.0984396  -1.3874522  38.1051355  68.3460304  -2.0422070
  39.1360285  67.2848535  -1.7212045  35.7187079  78.1344090  -7.2846352
  35.9009473  77.3165745  -6.8218600  36.5420065  78.3511782  -7.7221462
  34.8067478  68.8404207   5.0991515  34.1308115  68.7398337   5.7693890
  35.6295112  68.6843421   5.5627512  33.5490261  80.1471135  -0.6650869
  34.1008569  80.3102756   0.0998216  33.8896454  80.7375573  -1.3370845
  28.0007026  64.5669417   3.5844050  28.6279065  64.1846495   4.1981574
  27.1434945  64.3483619   3.9499742  38.4001135  74.9732392   5.1897785
  38.9441039  75.5862351   4.6952740  37.8187980  75.5311971   5.7064798
  36.6858648  78.0953110  -3.6787187  36.5609787  77.2942850  -4.1876242
  37.3437739  78.5899304  -4.1673217  38.7493556  75.8962131  -2.0507637
  37.8023892  75.7767482  -2.1229310  39.0976329  75.0084629  -1.9681376
  31.1093130  61.7856269   1.7730605  31.6327532  62.0318566   2.5356914
  30.8905463  62.6176304   1.3533742  35.7539990  75.6914847  -5.8503285
  35.6064952  74.7631554  -5.6695715  36.5793483  75.7134937  -6.3346210
  39.3574111  76.5143405  -4.7638412  40.2820659  76.3086267  -4.9013961
  39.1889415  76.2659807  -3.8549071  32.3145675  62.7269965  -0.5419725
  31.9742495  61.9277778  -0.1399045  31.6084681  63.0271675  -1.1142891
  34.2023239  63.9278286  -2.1866406  33.9441017  64.8495356  -2.1882076
  33.6708279  63.5308720  -1.4965942  39.1469428  77.0329073  -9.4076321
  39.3206305  76.4675495 -10.1602468  39.6398319  77.8329968  -9.5896831
  24.9646387  69.0443742  -1.3412762  24.4199856  69.8203550  -1.2092488
  25.8425737  69.3914546  -1.4993640  45.0008819  69.7965496  -7.7886021
  45.4439965  69.0472821  -8.1866898  44.1235329  69.7875632  -8.1712289
  25.7512409  68.1713638   1.5517395  25.0094145  68.3196274   2.1382025
  25.4305154  68.4321904   0.6884144  42.0336023  73.7995543 -10.7792092
  42.5587347  74.1382816 -11.5042772  41.9458376  72.8642558 -10.9628957
  33.6956072  77.7129616   1.3497785  34.0043198  77.4678763   2.2220485
  34.4931554  77.9176255   0.8616655  31.1650556  75.4105535  -4.3474537
  30.5430565  74.7476240  -4.6472309  31.8355423  75.4366667  -5.0300889
  31.2375084  63.8887323   5.2457969  31.2863239  64.7649446   4.8635739
  31.7797598  63.3464716   4.6729612  41.7229929  74.4328446   4.5259106
  40.9325473  74.4152585   3.9863606  41.4863284  74.9716740   5.2808143
  41.8427804  71.2820913   1.8391835  41.8925809  71.1170920   2.7807358
  41.7341728  70.4148172   1.4489716  39.1331567  67.2651841   3.1551142
  40.0341430  67.1258306   2.8635139  39.2079541  67.4306296   4.0949319
  33.4674372  64.6418696   2.0004328  32.5977682  64.9352262   1.7286916
  33.7033852  65.2259141   2.7211592  43.3446001  73.7017854   2.0833856
  43.0530810  74.0647835   2.9197317  42.7318133  72.9884863   1.9047188
  44.5441684  71.2670734  -5.3963573  45.3788575  71.7060538  -5.2326013
  44.6800812  70.7909387  -6.2155328  41.5933189  68.8250469   0.5513914
  42.0687311  69.0178115  -0.2567234  40.6698755  68.8809655   0.3057298
  36.1713406  60.8598313  -0.4830252  36.6895350  61.5959339  -0.8083763
  35.8168539  61.1662306   0.3516507  40.2934858  65.7016229  -1.2157780
  41.2452281  65.8014327  -1.1945556  40.1238309  64.9094498  -0.7059696
  38.3149238  62.7871812  -1.0298379  37.7199170  63.0676825  -1.7251890
  38.0298935  63.2765713  -0.2581638  42.7722936  68.9222349  -2.1015480
  42.7399256  67.9838349  -1.9155797  43.3823560  69.0006385  -2.8349655
  42.9217425  65.7133392  -2.0557197  42.4056473  64.9291849  -2.2427268
  43.8057373  65.3852109  -1.8910678  48.5899486  69.9838356  -2.9609444
  49.3202875  69.7223644  -2.4001740  47.9806432  69.2467078  -2.9207376
  46.6714783  68.1246218  -2.3634992  45.9447947  67.9902183  -2.9718501
  46.2562070  68.4323047  -1.5578274  34.4944960  71.8436148   5.4012381
  35.4147969  72.0214747   5.5952427  34.4594543  70.8992193   5.2492080
  27.4907032  69.7537183  -1.9564838  27.7093042  70.6854290  -1.9376804
  27.9032806  69.3945157  -1.1710034  32.3634898  65.3270388   7.4337911
  32.2631624  66.2764745   7.3650002  32.1456440  64.9988627   6.5613981
  32.2266168  68.7567527   6.2502972  31.7433249  69.5567887   6.4566861
  32.3127107  68.7675472   5.2970416  28.1539505  72.6472062  -1.7128594
  29.1082759  72.6156004  -1.7798662  27.9552029  72.1862686  -0.8978368
  28.7438887  71.2173178   0.8542204  29.5631776  71.7117257   0.8777041
  29.0175695  70.3005146   0.8259771  41.8520020  63.6330451  -6.0675501
  42.6280410  64.1226904  -5.7950885  41.1268154  64.0588505  -5.6103632
  44.2892578  64.3458070  -5.0101561  44.8837069  64.1053806  -5.7208253
  44.3619162  63.6265201  -4.3828024  46.5963651  67.6524271  -6.2358140
  46.0363209  67.7217461  -5.4626578  45.9907154  67.4765256  -6.9558643
  23.9973801  65.5511312   1.5534401  24.6432665  65.0410266   2.0421626
  23.7890953  66.2879993   2.1277826  36.5227194  72.6192159   7.0526541
  37.3918353  72.7932812   6.6913176  36.0433945  73.4386576   6.9302271
  30.6913374  79.7389260  -1.2684025  31.5940621  79.7712871  -0.9517530
  30.4650744  78.8089711  -1.2537689  28.3371292  62.6978929   5.6509415
  29.2002754  62.3415734   5.8612740  27.7636703  62.3592824   6.3384819
  48.1819669  84.3280785  -3.5428184  48.8198079  84.2087533  -4.2464844
  48.0640512  85.2761629  -3.4840232  44.9909376  84.2808213  -3.6066659
  44.6527887  84.1649278  -4.4946124  45.8599144  83.8799378  -3.6265653
  45.4729159  85.4343065   2.3519546  45.4617799  85.0395863   1.4800050
  45.6349798  84.7009138   2.9453318  42.1936420  88.2180177   1.2998730
  41.9026286  89.1225808   1.1845397  42.8293404  88.2596704   2.0142800
  43.1192627  85.5957025  -2.1099910  43.7156199  85.3713048  -2.8242947
  43.1767598  84.8541771  -1.5074462  47.7360938  82.0532239  -6.4674976
  48.5224027  81.6351662  -6.8184559  47.9999642  82.9578331  -6.2993327
  50.6594785  75.7029046  -1.1047389  50.3278110  76.5724457  -1.3286174
  50.0640399  75.3865330  -0.4253358  47.1526305  87.9041592  -1.7051476
  46.8527028  88.8066631  -1.8135669  46.8077364  87.6373776  -0.8530323
  40.6038786  84.3555389  -5.6714772  39.6789283  84.2231603  -5.4637080
  40.8523200  85.1349608  -5.1744829  50.5523449  80.4224133  -4.0254039
  49.6440326  80.3539541  -4.3195278  50.5011044  80.8996077  -3.1972213
  44.6264314  81.8413778   3.9180859  43.8497648  82.4007698   3.9083723
  45.2654877  82.3270561   4.4395729  52.4185095  78.6240571  -2.2476165
  51.7759475  78.9173104  -2.8936370  51.9140024  78.5093491  -1.4422968
  42.8810687  84.6499231   3.4798826  43.6225371  85.1884275   3.2033649
  42.1747672  85.2765520   3.6370377  48.3566026  86.7928372   2.0770987
  48.7649382  86.3510782   1.3325619  47.6343288  86.2180999   2.3305180
  44.7097096  81.7300979  -0.5495456  45.5558292  82.1540392  -0.4060807
  44.6495734  81.0734603   0.1443107  47.8596542  79.3905347   1.1085718
  47.6157474  80.1447408   0.5719993  48.1356472  79.7690695   1.9432965
  49.8135005  85.9343959  -0.2137017  50.0251900  86.5775719  -0.8902636
  49.7664753  85.1006276  -0.6815087  47.4161233  78.5461780  -3.3100445
  46.5545713  78.8443034  -3.0183707  47.4423668  78.7632179  -4.2419412
  41.1246884  86.6375452  -3.9646876  41.6948241  87.0662721  -4.6029391
  41.7154996  86.3558037  -3.2662690  41.6172050  81.8038880   4.2814136
  40.9870711  82.4855160   4.5149532  41.5108138  81.6921961   3.3367274
  36.9117023  81.4710676  -4.7919940  36.1216077  81.7268204  -5.2679830
  37.4028270  82.2859014  -4.6867900  44.6937436  88.3599958   0.1146051
  44.7581868  88.8220365   0.9504223  43.9848360  87.7297323   0.2428361
  35.1954726  81.7241166  -2.3604949  35.4462764  82.6088176  -2.0947373
  35.7314274  81.5445768  -3.1329858  40.8952793  76.1059645   6.6439387
  40.5019739  75.5525844   7.3187031  41.7118934  76.4170224   7.0345904
  43.8120754  77.5217525   4.2359643  44.5530468  78.1224678   4.1564106
  44.0438677  76.7795162   3.6777686  38.9562092  82.7073892   2.5137873
  38.8415607  81.8059149   2.8144972  38.1006610  82.9537589   2.1622689
  46.0353930  90.6491632   4.1125374  45.5917784  89.8628011   3.7946278
  46.6971144  90.8370783   3.4469264  40.7941051  92.1787434  -1.3613948
  41.3448476  92.0504497  -2.1336954  39.9552527  92.4782323  -1.7119055
  48.1335168  90.9294432   2.1406775  48.1153643  91.7503313   1.6487044
  49.0555088  90.8048507   2.3656916  44.5908222  88.4438562   2.9830283
  45.1236559  87.6826850   2.7529591  44.0622303  88.1512213   3.7254438
  47.7577917  73.5498628  -1.4876075  47.4142187  74.4400269  -1.5636964
  48.1256880  73.3600285  -2.3506490  45.3075311  78.3856939  -7.9218402
  44.4516907  77.9963790  -8.1012763  45.7202263  78.4648900  -8.7818616
  46.8374458  75.9203283  -3.5226842  46.3339253  75.8833418  -4.3359037
  47.1305064  76.8296025  -3.4630185  43.0817343  76.0042012  -4.5160660
  43.9470340  75.8084821  -4.8754771  43.1494852  75.7752364  -3.5891303
  40.6879662  78.2344220  -7.1444293  41.2623414  78.0119402  -7.8771100
  41.2750645  78.3032915  -6.3915692  42.9902330  75.1085469  -8.4169224
  42.3366743  74.7934486  -9.0412609  42.9482804  74.4861210  -7.6909401
  46.2240071  81.5967403  -4.0921576  45.3062632  81.8182350  -4.2499888
  46.6400214  81.6713713  -4.9509869  49.5565583  72.8092187  -6.3858337
  49.8624460  71.9489550  -6.6732422  50.2818188  73.4009807  -6.5859343
  43.8286663  83.1045980  -5.8782146  43.8835272  82.1519816  -5.9539670
  43.0177865  83.2605419  -5.3940848  41.7679022  81.7223040  -8.1191767
  40.9546888  82.0217210  -7.7126575  42.2638017  81.3278728  -7.4017285
  47.3653234  82.1864864   0.7123126  47.7202622  82.4136337   1.5717592
  48.0125365  82.5183241   0.0900382  41.2593097  79.2941395  -2.5030532
  41.8992477  79.1530154  -3.2007569  40.4270628  79.0075908  -2.8791931
  46.8548246  90.9761921  -2.0383172  46.9085268  91.5452857  -1.2705457
  45.9863027  91.1463806  -2.4029135  38.2621714  79.2641720  -7.7257546
  38.5228531  80.1787053  -7.8348385  39.0838886  78.7966163  -7.5760933
  39.7346639  80.6779477  -0.5558721  40.4069692  80.4696839  -1.2046072
  38.9076425  80.4801563  -0.9953489  45.6372211  77.3041418   1.4606940
  44.9900126  78.0031368   1.3671416  46.4073226  77.7377562   1.8283188
  49.0451009  87.5690270   4.5357493  48.8936515  87.3400822   3.6187577
  49.0355688  88.5260872   4.5488838  45.8136345  85.1422183  -0.4796241
  46.7428405  85.2933343  -0.6527273  45.3927375  85.2306204  -1.3347594
  44.6124677  89.1672847  -2.7097703  44.4735763  88.7991632  -1.8371765
  43.8239273  89.6820487  -2.8813745  40.1374136  83.9522080   0.2043716
  39.9993934  83.2202319   0.8055255  41.0479060  83.8630980  -0.0772096
  42.7656437  83.6642039  -0.3072604  43.4756055  83.0235232  -0.3485986
  42.7225745  83.9154934   0.6153576  50.7543216  90.6009393   2.6133975
  50.6955762  89.9168613   1.9464558  51.1562734  91.3428383   2.1614601
  41.4785371  80.6507257   1.5123035  40.9422728  80.1997996   2.1644631
  40.8902079  80.7853166   0.7693499  50.7560623  88.5648977   0.8447955
  49.8687402  88.2274899   0.9674353  51.3259174  87.8332008   1.0816720
  37.2124492  79.7863265  -1.4023970  37.1282681  79.1788935  -2.1373560
  36.3907199  80.2772283  -1.4014474  47.3848206  78.2716829  -6.0353775
  47.8816906  77.5186791  -6.3552705  46.6135187  78.3081145  -6.6010566
  46.7460460  93.1237263  -0.0332644  47.4588432  93.7584728  -0.1056742
  46.2550488  93.2201129  -0.8492642  43.9683175  80.4134212  -6.3082091
  43.5980962  79.8605252  -5.6201185  44.4642267  79.8092345  -6.8607091
  41.7972373  90.8731707   0.7872927  42.4981833  91.5068190   0.9402321
  41.3267488  91.2146438   0.0268566  49.8267201  75.2386422  -3.8874416
  48.9130281  75.4690649  -3.7192210  50.2560302  75.3224866  -3.0360384
  49.5973659  83.4276314  -1.3874522  48.9445109  83.6752222  -2.0422070
  49.9754039  82.6140452  -1.7212045  45.6461232  84.1696125   5.0991515
  44.9701869  84.0690254   5.7693890  46.4688866  84.0135339   5.5627512
  39.3648508  77.8238202  -0.0628985  39.4289835  78.6853033  -0.4751587
  39.3015629  77.2112204  -0.7956626  38.8400781  79.8961335   3.5844050
  39.4672820  79.5138412   4.1981574  37.9828700  79.6775537   3.9499742
  49.2394889  90.3024310   5.1897785  49.7834793  90.9154268   4.6952740
  48.6581734  90.8603888   5.7064798  39.1460571  79.7793761  -4.5010047
  38.4247156  80.3929728  -4.6402574  39.9353826  80.3151525  -4.5793401
  41.9486884  77.1148187   1.7730605  42.4721286  77.3610484   2.5356914
  41.7299217  77.9468222   1.3533742  43.1539429  78.0561882  -0.5419725
  42.8136250  77.2569695  -0.1399045  42.4478436  78.3563593  -1.1142891
  43.8055901  75.1411195  -2.0892402  44.6281970  74.6671673  -2.2113511
  44.0493965  75.9201678  -1.5893715  41.3294480  81.8330315  -4.2800423
  41.1839061  82.1470618  -3.3876142  40.8519683  82.4515216  -4.8329524
  43.1890863  78.8232863  -4.2319533  43.1752431  77.9273957  -4.5687236
  43.9063291  78.8303527  -3.5981247  45.0416993  79.2570203  -2.1866406
  44.7834771  80.1787274  -2.1882076  44.5102034  78.8600638  -1.4965942
  35.8040142  84.3735660  -1.3412762  35.2593610  85.1495468  -1.2092488
  36.6819492  84.7206464  -1.4993640  42.5927759  77.7047244  -8.9631963
  42.7143670  76.7763890  -8.7641076  42.3029801  77.7185929  -9.8753648
  45.4618949  75.3902154  -5.8265244  45.4840646  75.4541487  -6.7813264
  45.8787008  74.5506663  -5.6324737  36.5906164  83.5005556   1.5517395
  35.8487900  83.6488191   2.1382025  36.2698908  83.7613822   0.6884144
  44.5349826  93.0421534   1.3497785  44.8436953  92.7970681   2.2220485
  45.3325309  93.2468173   0.8616655  42.0768838  79.2179241   5.2457969
  42.1256994  80.0941364   4.8635739  42.6191352  78.6756634   4.6729612
  52.5623684  89.7620364   4.5259106  51.7719228  89.7444503   3.9863606
  52.3257038  90.3008658   5.2808143  52.6821559  86.6112831   1.8391835
  52.7319564  86.4462838   2.7807358  52.5735482  85.7440090   1.4489716
  49.9725321  82.5943759   3.1551142  50.8735184  82.4550223   2.8635139
  50.0473296  82.7598213   4.0949319  44.3068127  79.9710613   2.0004328
  43.4371436  80.2644179   1.7286916  44.5427607  80.5551058   2.7211592
  54.1839756  89.0309772   2.0833856  53.8924564  89.3939753   2.9197317
  53.5711887  88.3176780   1.9047188  52.4326944  84.1542387   0.5513914
  52.9081066  84.3470033  -0.2567234  51.5092509  84.2101572   0.3057298
  47.0107160  76.1890230  -0.4830252  47.5289104  76.9251257  -0.8083763
  46.6562293  76.4954224   0.3516507  47.2619755  72.6090513  -4.9629355
  47.5421508  71.9413702  -4.3368929  48.0470362  72.8019608  -5.4754691
  51.1328613  81.0308147  -1.2157780  52.0846036  81.1306244  -1.1945556
  50.9632063  80.2386415  -0.7059696  49.1542992  78.1163730  -1.0298379
  48.5592925  78.3968743  -1.7251890  48.8692689  78.6057631  -0.2581638
  53.6116691  84.2514266  -2.1015480  53.5793011  83.3130267  -1.9155797
  54.2217314  84.3298303  -2.8349655  53.7611179  81.0425310  -2.0557197
  53.2450228  80.2583767  -2.2427268  54.6451128  80.7144026  -1.8910678
  51.4221906  74.7866325  -6.0961384  51.2246727  74.4781414  -5.2118053
  52.0321612  75.5127964  -5.9663455  45.3338714  87.1728066   5.4012381
  46.2541724  87.3506665   5.5952427  45.2988297  86.2284111   5.2492080
  38.3300787  85.0829100  -1.9564838  38.5486796  86.0146208  -1.9376804
  38.7426561  84.7237075  -1.1710034  45.2505004  75.5897186  -9.9689150
  44.4405733  75.2444270  -9.5933904  45.9389421  75.2804729  -9.3801538
  47.1795553  74.6675232  -8.3464853  47.7326591  75.0870686  -7.6874830
  47.4165639  73.7410980  -8.3041897  43.2028652  80.6562306   7.4337911
  43.1025379  81.6056663   7.3650002  42.9850194  80.3280545   6.5613981
  49.0077926  76.1780815  -6.6364869  49.5077705  76.2897350  -7.4450550
  49.6513534  75.8741868  -5.9964060  43.0659922  84.0859445   6.2502972
  42.5827004  84.8859805   6.4566861  43.1520861  84.0967390   5.2970416
  38.9933260  87.9763980  -1.7128594  39.9476513  87.9447922  -1.7798662
  38.7945783  87.5154603  -0.8978368  39.5832642  86.5465096   0.8542204
  40.4025531  87.0409174   0.8777041  39.8569449  85.6297064   0.8259771
  52.6913774  78.9622369  -6.0675501  53.4674164  79.4518821  -5.7950885
  51.9661908  79.3880423  -5.6103632  34.8367556  80.8803229   1.5534401
  35.4826420  80.3702183   2.0421626  34.6284707  81.6171911   2.1277826
  47.3620948  87.9484077   7.0526541  48.2312108  88.1224729   6.6913176
  46.8827700  88.7678494   6.9302271  41.5307128  95.0681178  -1.2684025
  42.4334375  95.1004788  -0.9517530  41.3044498  94.1381629  -1.2537689
  47.1723286  71.7386051  -8.4395766  46.4055682  71.1844537  -8.2939084
  47.5833991  71.8107919  -7.5781614  39.1765047  78.0270846   5.6509415
  40.0396508  77.6707651   5.8612740  38.6030458  77.6884741   6.3384819
  51.7346548  91.4351563   6.6439387  51.3413493  90.8817762   7.3187031
  52.5512688  91.7462142   7.0345904  54.6514509  92.8509442   4.2359643
  55.3924222  93.4516595   4.1564106  54.8832432  92.1087080   3.6777686
  49.6794535  95.2253253   3.5844050  50.3066574  94.8430330   4.1981574
  48.8222454  95.0067455   3.9499742  52.9162593  94.5471159   5.2457969
  52.9650748  95.4233281   4.8635739  53.4585107  94.0048552   4.6729612
  54.0422406  95.9854224   7.4337911  53.9419133  96.9348581   7.3650002
  53.8243949  95.6572463   6.5613981  45.6761310  96.2095147   1.5534401
  46.3220174  95.6994101   2.0421626  45.4678462  96.9463829   2.1277826
  50.0158801  93.3562764   5.6509415  50.8790263  92.9999569   5.8612740
  49.4424212  93.0176659   6.3384819  46.0353931  67.6553755  -9.1629320
  45.5917785  66.8690133  -9.4808415  46.6971145  67.8432905  -9.8285429
  48.1335169  67.9356555 -11.1347919  48.1153645  68.7565436 -11.6267649
  49.0555089  67.8110630 -10.9097777  49.0451010  64.5752393  -8.7397200
  48.8936517  64.3462945  -9.6567117  49.0355690  65.5322994  -8.7265855
  50.7543217  67.6071515 -10.6620719  50.6955763  66.9230736 -11.3290135
  51.1562735  68.3490505 -11.1140093  49.2394891  67.3086433  -8.0856908
  49.7834795  67.9216391  -8.5801953  48.6581736  67.8666011  -7.5689895
  52.5623685  66.7682487  -8.7495587  51.7719229  66.7506626  -9.2891088
  52.3257040  67.3070780  -7.9946550  54.1839757  66.0371895 -11.1920837
  53.8924565  66.4001875 -10.3557376  53.5711888  65.3238903 -11.3707505
  47.3620949  64.9546200  -6.2228152  48.2312109  65.1286852  -6.5841517
  46.8827701  65.7740616  -6.3452423  51.7346549  68.4413686  -6.6315307
  51.3413495  67.8879884  -5.9567662  52.5512689  68.7524264  -6.2408789
  54.6514510  69.8571565  -9.0395050  55.3924223  70.4578718  -9.1190588
  54.8832433  69.1149203  -9.5977008  49.6794537  72.2315375  -9.6910644
  50.3066575  71.8492453  -9.0773119  48.8222456  72.0129577  -9.3254951
  52.9162594  71.5533281  -8.0296724  52.9650749  72.4295404  -8.4118954
  53.4585108  71.0110674  -8.6025081  54.0422408  72.9916346  -5.8416783
  53.9419135  73.9410703  -5.9104691  53.8243950  72.6634585  -6.7140713
  45.6761312  73.2157270 -11.7220292  46.3220175  72.7056224 -11.2333067
  45.4678463  73.9525951 -11.1476867  50.0158803  70.3624887  -7.6245278
  50.8790264  70.0061692  -7.4141954  49.4424213  70.0238782  -6.9369874
 122.8625618 122.8625618 122.8625618 109.4712190 109.4712190 109.4712190
