
49891  0.0000000e+00
  32.0168257  57.0919228  72.2694826  31.6661239  56.4827633  71.5441990
  31.3763261  57.2877789  73.0254602  32.7929640  56.5994883  72.6880646
  32.4047875  58.3523607  71.6100359  31.4637327  58.7293005  71.2094975
  32.7749252  59.4232225  72.6314354  33.6407351  59.0926838  73.2052183
  32.7970815  60.8342266  72.0650721  31.8668079  61.1027336  71.5644741
  32.9891610  61.5098143  72.8986120  33.6120224  61.0015202  71.3608122
  31.7210031  59.3623161  73.5601759  31.5775871  60.1874208  74.0294647
  33.3007383  58.0539274  70.4974985  34.1290498  57.1768904  70.6066656
  33.2397604  58.7725782  69.3922853  32.4849939  59.4328117  69.2717600
  34.2138028  58.7924910  68.3400536  33.9613843  59.6787071  67.7578115
  35.6637406  58.9783192  68.8427639  36.1200118  58.0499649  69.1863871
  36.2582970  59.1011333  67.9374933  35.8667207  60.1792574  69.6783924
  35.6534410  61.2822437  69.2043924  36.2903714  59.8852539  70.8974886
  36.6644120  60.6526566  71.4372015  36.5262246  58.9487457  71.1931610
  33.9570856  57.5388575  67.3543310  34.7103691  57.4663830  66.3859892
  32.9914999  56.6603422  67.5303888  32.3664594  56.7574692  68.3177853
  32.7689028  55.4257441  66.6617060  33.5672283  54.7376299  66.9396877
  31.4946175  54.6979237  67.0980597  30.6506944  55.3877735  67.0986271
  31.3477135  53.9072704  66.3622570  31.6706467  54.1547060  68.5078287
  31.0089135  53.2945395  68.6094189  32.6851511  53.7784290  68.6393404
  31.2283683  55.0232983  69.5889091  31.1082745  56.2730408  69.5475721
  30.9118176  54.3682051  70.6845760  30.5135250  54.8540878  71.4753914
  31.0615683  53.3695507  70.6654119  32.9067326  55.7119179  65.2140951
  33.7302947  55.0387669  64.6087122  32.1253061  56.6542053  64.6174049
  31.4914656  57.1467495  65.2303934  32.3337936  56.9942951  63.1766701
  32.2902870  56.0143614  62.7013397  31.2203336  57.9995251  62.7168751
  31.0545301  58.8033533  63.4341383  31.5407872  58.3986759  61.7545366
  29.8263860  57.3857164  62.5234175  29.5197272  56.8156767  63.4004116
  28.7947536  58.4242678  62.1608591  28.9595509  58.7174797  61.1240530
  27.8726101  57.8531599  62.2685146  28.7772322  59.3064976  62.8007507
  29.7759414  56.3675356  61.3607836  30.5381155  55.5948400  61.4614248
  28.8227010  55.8411217  61.3125324  29.9322343  56.8344879  60.3883457
  33.7337208  57.5152397  62.7917385  34.1122270  57.1961927  61.6951418
  34.4662428  58.2385111  63.6007643  34.2080212  58.4989882  64.5418119
  35.8666396  58.7027979  63.2968569  35.8194089  59.2258883  62.3417330
  36.2003255  59.7053623  64.4335794  35.3276181  60.3556871  64.4932127
  36.2839055  59.1808319  65.3854084  37.5379443  60.4501867  64.3367529
  38.2299662  59.8712111  63.7251997  37.3713446  61.3744211  63.7834501
  38.2366681  60.7441616  65.7305622  39.1933012  60.1232290  66.1129856
  37.5731158  61.4923191  66.5572834  38.0619812  61.6181898  67.4320793
  36.6910076  61.9448042  66.3642931  36.7521214  57.4997139  63.2181501
  37.5402093  57.4352980  62.2632313  36.5430117  56.5534639  64.1398525
  35.9496164  56.6923571  64.9452686  37.1908474  55.2693939  64.1276121
  38.2490444  55.5045509  64.2417192  36.9344115  54.4722271  65.4621363
  37.1350169  55.2358389  66.2136412  35.9048724  54.1144562  65.4742813
  37.8494024  53.3354330  65.8788538  38.9130211  53.4708548  66.8482685
  39.0203357  54.3728733  67.4324417  39.5471716  52.3149681  67.2784138
  40.3853655  52.4021101  67.9538679  39.3393135  51.0692787  66.5766144
  40.2392387  50.0711679  66.6361952  40.8440161  50.1740026  67.3746204
  38.3729315  51.0139561  65.5501318  38.1940937  50.0221968  65.1617622
  37.5540137  52.0759439  65.2741528  36.6377711  51.9733810  64.7116756
  36.9875646  54.4520807  62.8720617  37.9200840  53.9193535  62.2763777
  35.7558012  54.3230724  62.3984385  35.0283146  54.6912479  62.9945135
  35.4438925  53.5475254  61.2304878  35.8685708  52.5765419  61.4853334
  33.9299989  53.4900475  61.1027718  33.4486461  54.4463968  61.3072348
  33.6764550  53.3404684  60.0532770  33.2338786  52.3943377  62.1209049
  33.8334751  52.2951174  63.0257463  31.8930817  52.8728485  62.6400185
  31.3938975  52.0178366  63.0959463  32.0794320  53.6073208  63.4235573
  31.3144088  53.2739544  61.8079376  33.1430769  50.9471750  61.5418959
  34.1461849  50.6076717  61.2837934  32.7016234  50.3482723  62.3384762
  32.6929927  51.0217667  60.5519676  36.0278440  54.1625929  60.0033808
  36.4596200  53.4250641  59.0819693  36.0688663  55.5016565  59.8836708
  35.7137322  56.0546112  60.6506252  36.7500067  56.1987066  58.8061857
  36.3704705  55.8034563  57.8639412  36.4019299  57.6929951  58.8726282
  35.3623915  57.6573277  59.1984987  37.0511341  58.1359291  59.6279001
  36.5467811  58.5172129  57.5759792  36.0759735  57.9801559  56.7525673
  35.7600093  59.8057604  57.8484249  34.7120810  59.6231604  58.0863333
  36.2715364  60.2752638  58.6886692  35.8258653  60.4448318  56.9678831
  38.0144954  58.9355087  57.2164059  38.5713792  58.0029631  57.1250391
  37.9703116  59.4986296  56.2841797  38.4617662  59.6156645  57.9412746
  38.2971954  55.9131622  58.8134623  38.8314319  55.4621220  57.7883768
  38.9143729  56.1851358  59.9776030  38.2916474  56.4305067  60.7339811
  40.3852177  56.1229086  60.2779913  40.8722878  56.6498280  59.4574881
  40.7417870  56.8637466  61.5607834  40.0809431  56.5435696  62.3663139
  41.6984034  56.7058277  62.0588255  40.5014610  58.3343744  61.3221264
  41.0614443  58.6286354  60.4344702  39.4765735  58.5844898  61.0480070
  40.8979464  59.0851259  62.6490545  40.4595375  58.5829353  63.5114336
  41.9459200  58.8502884  62.8353739  40.6859064  60.5069923  62.6026821
  40.2546167  61.0126352  61.8421459  41.0135746  61.4541149  63.4740019
  41.5712070  61.0377312  64.5760393  41.4237595  60.0560522  64.7622156
  41.8801641  61.5978384  65.3576565  40.8892250  62.7288532  63.2543039
  40.5402565  63.1291866  62.3952007  41.2241507  63.4328938  63.8963699
  40.9165001  54.6792364  60.2921152  41.8657446  54.4307232  59.5813560
  40.2640629  53.7379599  60.9723997  39.4800043  54.0829897  61.5074778
  40.8446217  52.4386311  61.4012766  41.9002485  52.4378586  61.1296892
  40.7527113  52.2003269  62.9478788  39.7281742  52.2388458  63.3179331
  41.3404083  50.8771467  63.4004354  40.6689978  50.0787926  63.0842829
  42.2729349  50.7206345  62.8582096  41.5656042  50.7169914  64.4548225
  41.6297388  53.2579088  63.5647535  42.5368357  53.3723831  62.9713154
  41.2662363  54.2842340  63.5135698  41.8828630  53.1234503  64.6163940
  40.2115488  51.3197994  60.6903648  40.8749390  50.4410887  60.1675081
  38.9010835  51.2836218  60.5503654  38.4452319  51.9824171  61.1195660
  38.1679797  50.1061440  60.0355530  38.7257886  49.2432022  60.3992558
  36.7786598  50.0478125  60.5951071  36.2348962  50.9398031  60.2840137
  36.0689926  48.7936258  60.0885248  36.5850425  47.8902864  60.4137611
  35.0892830  48.7334204  60.5624914  36.0089707  48.8519335  59.0017414
  36.8108392  49.9048805  62.1180391  36.9885468  50.8488846  62.6331854
  35.8373737  49.5558167  62.4624634  37.5184035  49.1079283  62.3467970
  38.2736707  50.0272799  58.5096693  38.7926841  49.0410900  57.9694033
  37.8999519  51.1371899  57.7775097  37.5692797  51.9361115  58.2995081
  38.1407189  51.2547398  56.3351870  37.5607944  50.5112171  55.7884169
  37.7208543  52.6830673  55.8255291  36.6538715  52.8230143  55.9989262
  38.3108139  53.3531046  56.4509058  37.9915333  53.0095482  54.3200684
  39.0481544  52.8532362  54.1027594  37.1767879  52.1281147  53.3582354
  37.5771403  51.1147022  53.3297586  36.1797214  52.0783043  53.7958193
  37.1433210  52.6028872  52.3776388  37.5318313  54.4595766  54.0143156
  36.4563441  54.5350933  54.1746855  37.9299903  55.2369595  54.6664286
  37.7291679  54.7637510  52.9863834  39.5783019  50.9220409  56.0423470
  39.8733687  50.0728893  55.1836252  40.5066013  51.5851450  56.7228603
  40.2397490  52.1952677  57.4822283  41.9772530  51.5361929  56.2931585
  41.9221973  51.5978336  55.2062941  42.5736332  52.8507710  56.7893028
  41.9626284  53.7022018  56.4895773  42.7474546  52.8826332  57.8648853
  43.8993502  53.0154562  56.1605930  44.6113205  52.3468018  56.6444302
  43.8515329  52.8896475  55.0789356  44.3797588  54.4145346  56.5328836
  43.6458063  55.2141047  56.4323521  44.7199249  54.3623447  57.5671339
  45.6962967  54.8066807  55.7330227  46.1840200  55.5302286  56.3862467
  46.3202047  53.9387798  55.5195045  45.4105997  55.4460716  54.3899870
  46.2146091  55.4611492  53.7788963  44.6756649  54.8999214  53.9637280
  44.9867105  56.3612890  54.4428873  42.6506948  50.1370239  56.6658735
  43.4973621  49.6482182  56.0010958  42.2536182  49.4558859  57.7788258
  41.7123890  49.9846745  58.4478235  42.4767780  48.0300188  58.0363131
  43.5657263  48.0000162  58.0736446  41.9669962  47.5997972  59.4586039
  40.8972788  47.8007889  59.4002914  42.3472166  46.1245728  59.8552656
  41.7407656  45.4700613  59.2292213  43.4062767  45.9416103  59.6735239
  42.0965958  45.8757544  60.8864689  42.5339556  48.3230305  60.5081654
  42.0144701  49.1119576  60.6794357  42.0629168  47.0618963  56.9126511
  42.9743433  46.3720465  56.4542150  40.7825089  47.1123981  56.4088392
  40.1357412  47.7827692  56.7992163  40.2560854  46.3043308  55.3332806
  40.5764389  45.2706575  55.4636431  38.7393093  46.4574051  55.2408123
  38.4896088  47.5147820  55.1530266  38.3441043  45.8744287  54.4089127
  38.0678463  45.8578253  56.4646673  38.5326529  46.3732338  57.3051500
  36.5545940  46.2011337  56.4833307  36.4685750  47.2874308  56.5089703
  36.0139394  45.7027292  55.6787252  36.1793351  45.9777164  57.4820137
  38.3835030  44.3893051  56.6241407  37.8079486  44.0564775  57.4878883
  38.0160761  43.7628174  55.8113575  39.4393682  44.2225409  56.8373060
  40.8823061  46.6547108  53.9319181  41.0913563  45.7328558  53.0792475
  41.0678816  47.9429197  53.6395788  40.7395029  48.5781336  54.3528652
  41.6808128  48.4515905  52.4226427  40.9975386  48.0699921  51.6639471
  41.7830515  49.9472237  52.4371862  40.8800173  50.4277372  52.8136635
  42.6190805  50.1735449  53.0989552  42.0201159  50.5396509  51.1632442
  43.2336426  50.7836294  50.5887938  44.1475010  50.7238626  51.1612368
  43.1013346  51.2062168  49.3012285  43.8605833  51.5509558  48.7313223
  41.7406416  51.3527584  48.9681292  41.0271311  51.6399670  47.8273821
  41.5295458  51.8593073  46.8968582  39.6357536  51.6280270  47.8052664
  39.1427493  51.7626476  46.8538332  38.8895535  51.3211346  48.9664125
  37.8111291  51.3777542  48.9521360  39.6554375  50.9371233  50.1070213
  39.0806103  50.7123089  50.9932661  41.0992098  50.8921766  50.1447201
  43.0275393  47.8317881  52.0897770  43.3911514  47.5962734  50.8948278
  43.9219666  47.6755190  53.1144428  43.7116337  47.9834461  54.0530825
  45.2945280  47.1236134  53.0424309  45.8661127  47.5515366  52.2188520
  46.0377073  47.4598169  54.3431902  45.3976059  47.1622705  55.1737547
  46.9473505  46.8641758  54.4196987  46.3953781  48.9559555  54.4505167
  46.9051218  49.2175341  53.5232449  45.5143452  49.5957947  54.4005871
  47.1826172  49.2943001  55.7471704  47.4520683  50.3492928  55.7970428
  46.5114927  49.3195534  56.6056919  48.4449196  48.4761953  56.0180283
  48.2621384  47.4027634  55.9686947  49.1194105  48.7737226  55.2151299
  49.2020369  48.8462734  57.2389650  49.2545795  49.8445511  57.3830938
  48.8621330  48.4257936  58.0920601  50.1661634  48.6472034  57.0132923
  45.3915024  45.6581116  52.8583193  46.4693403  45.1531744  52.5224066
  44.2873812  44.9102926  53.2698774  43.4672308  45.4697371  53.4555626
  44.2809296  43.4432602  53.2564306  45.0513029  43.1701994  53.9775848
  42.9485226  42.9001522  53.8476372  42.5435495  43.5201979  54.6474123
  42.2073412  42.8691006  53.0490208  42.9919577  41.5014839  54.4683552
  42.9481268  40.3009701  53.6916304  43.1019354  39.3133545  54.5007896
  43.1459951  38.2858419  54.1711283  43.4096432  39.7910976  55.7152224
  43.4172726  39.1778684  56.5177155  43.3873558  41.1802483  55.7466793
  43.6522532  42.0035076  56.3935757  44.5220089  42.6925135  51.8934822
  44.0328312  43.1896591  50.8456612  45.2097034  41.5614653  51.9239902
  45.5590963  41.3171387  52.8395939  45.4835987  40.7191515  50.7614613
  46.0978317  41.2580156  50.0400448  46.2574720  39.4785810  51.2798882
  47.1937943  39.8162627  51.7241526  45.7153988  39.0411711  52.1182919
  46.4860916  38.2993126  50.2802372  46.8615103  37.4756408  50.8874655
  45.6128407  37.9353237  49.7389078  47.6464510  38.5407567  49.3193436
  48.3360004  39.5754409  49.2555285  47.8262186  37.5890303  48.3786011
  48.7378693  37.5164247  47.9499722  47.0816517  36.9083047  48.3302927
  44.2965317  40.3351974  49.9569082  44.3892908  40.2100801  48.7271595
  43.1600285  40.0966787  50.6092262  43.1504774  40.1366615  51.6183901
  41.9258308  39.7441387  49.9687529  42.1298647  39.1816068  49.0576887
  41.1928749  38.7195969  50.9141254  40.9432602  39.2121530  51.8539000
  40.3171301  38.3636475  50.3714705  41.8618584  37.4920702  51.2216377
  42.8394079  36.9244957  50.3849220  43.1232357  37.4727488  49.4987726
  43.3662081  35.6081390  50.6326246  44.1028023  35.2244639  49.9422455
  42.9836607  34.8963547  51.8494272  43.3278942  33.8780093  51.9537401
  41.9903040  35.4982042  52.6714659  41.7146111  34.9610949  53.5669565
  41.4829731  36.7787337  52.3933268  40.6877136  37.0923948  53.0533123
  40.8827496  40.8639145  49.5111227  39.7805834  40.6644154  49.0212584
  41.3561344  42.1185970  49.6193981  42.2877264  42.2294855  49.9934959
  40.5047464  43.3109045  49.4084978  39.6176672  43.1334782  50.0165367
  41.3142681  44.5381355  50.0314569  40.7877874  45.4925585  50.0327635
  41.6280603  44.3475199  51.0577631  42.1652222  44.6565962  49.3606853
  40.0867987  43.6004257  48.0140162  39.1242433  44.3653727  47.8709173
  40.6920576  43.0720282  46.9821405  41.4985228  42.4775648  47.1099138
  40.4256201  43.6595201  45.6216192  40.5103207  44.7446537  45.6799841
  41.4931059  43.2054949  44.5408678  41.4330292  43.9509487  43.7479067
  42.5137520  43.3246040  44.9044609  41.3445425  41.8873072  43.8432026
  42.0068264  40.7800198  44.2213726  42.5839901  40.6976366  45.1304913
  41.5682983  39.7544885  43.4113646  42.0479107  38.8673544  43.3559275
  40.6394243  40.0694084  42.4610519  40.0272894  39.3765712  41.3844967
  40.3792143  38.3872342  41.1319923  39.0561581  40.0890684  40.6108046
  38.6295462  39.5164800  39.8005223  38.6464715  41.3729668  40.9819794
  37.9059124  41.9191504  40.4165983  39.3866110  42.1431303  41.9927740
  39.2618418  43.2093191  42.1114063  40.4492426  41.4475060  42.7653933
  39.0142155  43.6174583  45.1743603  38.5148525  44.5400715  44.5318699
  38.2061529  42.6037455  45.4795837  38.5988283  41.2732553  45.9679604
  38.5910988  41.2843180  47.0578766  39.6072888  40.9979153  45.6592464
  37.5774837  40.2655935  45.3670835  37.5384283  39.3125677  45.8946466
  37.8119946  40.1768970  44.3063116  36.2986660  41.0493708  45.4414845
  35.8721042  40.9420538  46.4387989  35.5257440  40.6529570  44.7830439
  36.7596793  42.4459600  45.1131201  36.6739178  42.5517035  44.0316582
  35.8012056  43.4565210  45.7376957  34.6137953  43.5387230  45.4332113
  36.3290215  44.1246176  46.7911482  37.3166513  44.0285921  46.9794846
  35.5832815  44.8845053  47.8264189  34.5209718  44.9412394  47.5889683
  35.7826352  44.1687536  49.1598701  36.8359590  44.3236780  49.3935776
  35.2316713  44.5183420  50.0329828  35.4837227  42.6643562  49.1131258
  36.5850711  41.7659092  49.1502285  37.5874805  42.1326542  49.3147755
  36.3672614  40.3788280  48.9543152  37.2168398  39.7274923  49.0970802
  35.0679660  39.8342943  48.7872314  34.8801374  38.7713432  48.8227320
  33.9908910  40.7012367  48.9426470  33.0117559  40.2509260  49.0127993
  34.1844273  42.1395922  49.0018845  33.3685136  42.8260136  48.8301039
  35.9697008  46.3775444  47.8999567  35.2843404  47.1486044  48.5252762
  37.0897532  46.7748165  47.2771740  37.6211095  46.0156536  46.8753910
  37.6722217  48.1092072  47.1102762  37.6313281  48.5380077  48.1115532
  39.1525650  48.0897331  46.6788149  39.2610431  47.4501228  45.8028984
  39.4096184  49.0953398  46.3459730  40.2164507  47.8278160  47.7209282
  39.9692559  48.3531284  48.6434460  40.2125120  46.7630339  47.9540014
  41.5926218  48.2245731  47.1453857  41.8389273  48.4675074  45.9794378
  42.6497841  48.2835960  47.9160309  43.4653854  48.7896729  47.6017427
  42.6971340  47.9245234  48.8588572  36.8067813  49.0389490  46.1481857
  36.5783572  50.2267408  46.4605904  36.3406372  48.5066605  45.0098610
  36.7574739  47.6360273  44.7126389  35.6057954  49.2156696  44.0149879
  34.9243808  49.8962212  44.5254993  36.5578055  49.8860264  43.0034161
  36.1144328  50.6781340  42.4000216  37.3284292  50.3623056  43.6095524
  37.2542119  49.0399885  41.9315767  36.4766860  48.4364367  41.4633036
  37.6927471  49.6884203  41.1730766  38.2504964  48.0278683  42.5079346
  39.3742275  48.3543062  42.8868246  37.7500391  46.8027639  42.5259876
  38.3295703  46.0841560  42.9356766  36.7937303  46.5723181  42.2969246
  34.5510030  48.2192516  43.3080339  34.8013902  47.0028162  43.3068132
  33.4609532  48.7550306  42.6677704  32.9796839  50.1225138  42.6613808
  33.6322570  50.6163836  41.9414234  32.9888773  50.5854845  43.6481285
  31.6263342  50.0161266  42.1117163  31.2829256  50.9247303  41.6171360
  30.8978915  49.9388885  42.9188728  31.4328146  48.7520552  41.3153267
  31.6145110  48.9010286  40.2509499  30.4997849  48.1898069  41.3532686
  32.5934839  47.9398823  41.8389893  32.1877241  47.2152901  42.5449848
  33.3411908  47.1573925  40.7544136  34.1785455  47.7496862  40.0074863
  33.1641126  45.8047438  40.6379128  32.4775934  45.2930880  41.1736345
  34.0581441  44.9364567  39.8737335  35.0508714  45.3864002  39.8854733
  34.3068814  43.5522652  40.5892181  34.8080182  42.9479933  39.8330355
  35.1915622  43.6522102  41.8657446  36.1671901  43.9985943  41.5247631
  34.7629094  44.3224812  42.6107931  35.3618622  42.6376009  42.2258425
  33.0725265  42.8000021  40.8809519  33.3531284  41.8108130  41.2427092
  32.4025822  43.2685184  41.6019011  32.4295354  42.6918936  40.0074673
  33.5029817  44.8682070  38.4578323  32.3234606  45.1366520  38.1894279
  34.3715930  44.6953630  37.5092101  35.3599882  44.6212435  37.7033377
  33.9981842  44.6417761  36.0761905  33.1961179  45.3199387  35.7848501
  35.2224517  44.9087763  35.1567006  35.9796643  44.1251421  35.1820540
  34.8491168  44.9885082  34.1357374  36.0050607  46.2215710  35.4076791
  37.1794915  46.2606621  34.9972057  35.4299664  47.2693348  35.8482289
  33.4005308  43.2083654  35.9820127  34.0682101  42.2428036  35.6188273
  32.0638013  43.0674505  36.2273049  31.6479015  43.9398003  36.5207887
  31.5121317  41.7852831  36.4781308  32.2522426  41.2242651  37.0487428
  30.3139138  42.0102406  37.4121666  30.5363703  42.7713966  38.1599998
  29.4823933  42.2695017  36.7568374  30.1970005  41.0928392  37.9890585
  31.2789655  40.9741497  35.2098179  31.1460066  39.7531724  35.2605176
  31.2867641  41.6301727  34.0406227  31.3353634  42.6378489  34.0889812
  31.2845945  41.0121107  32.6809907  30.6146097  40.1568031  32.7685881
  30.7467079  41.8691111  31.5076685  31.3072371  42.8033161  31.5419269
  30.8506775  41.2217617  30.0917029  30.4440737  40.2111244  30.0544333
  30.3189135  41.9146776  29.4396353  31.9039917  41.3210869  29.8294830
  29.2656446  42.1253681  31.7826414  28.7391877  41.1818171  31.9263268
  29.2310715  42.6764202  32.7224565  28.7947249  42.6375914  30.9436154
  32.6627374  40.6051064  32.4091339  32.9020548  39.4356227  32.0414209
  33.6771822  41.4252901  32.6216865  33.4753227  42.3599672  32.9468465
  35.1287174  41.0951948  32.3469496  35.1916933  40.7893085  31.3026428
  35.9862447  42.3752832  32.4849296  35.6192684  43.1106377  31.7689109
  35.8391786  42.7606153  33.4938836  37.5001502  42.2131348  32.2915149
  37.8594637  41.6736889  33.1678653  37.7991104  41.6493559  31.4078426
  38.2370925  43.5447741  32.3927569  37.9666328  44.1481066  33.2593298
  39.2851233  43.2550335  32.4687862  38.1313968  44.3553638  31.1486292
  38.3729959  43.7108660  30.3034353  37.1039605  44.7019243  31.0373616
  38.9978242  45.5462503  31.2209034  39.7839737  45.3366709  31.8193626
  39.0422654  46.0908508  30.3714681  38.5020399  46.2571049  31.7395401
  35.5835295  39.8981047  33.2594728  36.3298917  39.0378404  32.8129721
  35.0770092  39.8622489  34.5083213  34.4825530  40.6632948  34.6666026
  35.5693603  39.0847754  35.6623220  36.4311123  38.4916496  35.3562212
  35.7990909  40.0584841  36.8755388  34.8904228  40.5839729  37.1692944
  36.2503123  39.4572496  37.6648521  36.8006444  41.1458921  36.6395450
  36.5019178  41.7541885  35.7858229  36.7355871  41.9126081  37.9475856
  36.6159558  41.3125229  38.8496327  37.5647116  42.6192427  37.9838967
  35.8404660  42.5252247  37.8400517  38.1749511  40.6407022  36.3077617
  38.8718867  41.4786196  36.3243198  38.4908247  39.9412203  37.0817471
  38.1046724  40.1966906  35.3147793  34.6573424  37.8778768  35.9555817
  34.8386645  37.3044038  37.0329785  33.7200141  37.5265169  35.1130056
  33.5645485  38.0757952  34.2798042  32.8655505  36.3246512  35.2332067
  32.1038461  36.5709496  34.4934440  33.7294817  35.1159954  34.9205685
  34.2940140  34.8719645  35.8204865  33.1100225  34.2215848  34.8542118
  34.6550012  35.0904250  33.7510443  34.2927456  35.6731892  32.6965666
  35.8120489  34.4307399  33.7962627  36.3427997  34.3575621  32.9400778
  36.0899901  33.9714193  34.6517587  32.0138478  36.2629795  36.4958549
  31.7732930  35.1760983  37.0114136  31.6073155  37.4129152  36.9807863
  31.9164467  38.2821083  36.5696359  30.5392647  37.5333905  37.9663491
  30.2223969  36.5357566  38.2703686  31.0583234  38.3206129  39.2092514
  31.1191344  39.3801975  38.9608979  30.3504229  38.3362699  40.0379467
  32.4673367  37.9362273  39.7298908  33.1865001  38.0510736  38.9188886
  32.8892231  38.8375425  40.9012794  32.1759152  38.7028217  41.7143869
  33.9125657  38.6007190  41.1924648  32.8383493  39.8987651  40.6577206
  32.2900105  36.4349151  40.2212191  32.1682072  35.7644367  39.3704963
  33.2355976  36.1826730  40.7011557  31.5914226  36.2808037  41.0436106
  29.2600965  38.2705545  37.3488426  28.6514449  39.0057755  38.0738878
  28.7922263  37.9915333  36.1455321  29.1219091  36.9250536  35.2787614
  29.2834139  35.9974408  35.8278942  30.0666165  37.1227026  34.7722292
  27.9337668  36.7459321  34.3263793  27.0786381  36.4118934  34.9139810
  28.1425667  36.1711359  33.4240937  27.7598882  38.1961632  34.0622878
  26.7250609  38.2675838  33.7274241  28.4928656  38.5456753  33.3351803
  27.9002786  38.8799763  35.4483199  28.4401727  39.8203754  35.3375411
  26.5410256  39.0831590  36.0163999  25.8500266  40.0243425  35.6048560
  25.9675956  38.2633162  36.9138527  26.4733005  37.4186039  37.1392941
  24.6452093  38.4051490  37.4672580  24.0464807  39.1552329  36.9505358
  23.8012862  37.1079087  37.4786901  24.2345238  36.3446069  38.1250453
  22.8320193  37.4468899  37.8443599  23.6888170  36.5135908  36.0545731
  23.7721181  35.2546430  35.9293532  23.3611727  37.1870518  35.0644493
  24.7321224  38.9874172  38.8745713  23.6818600  39.3696046  39.3770790
  25.8895206  39.1857481  39.5362449  26.7493486  38.9299512  39.0721679
  25.9796786  39.7587895  40.8523321  25.6627011  38.9944100  41.5618038
  27.4321222  40.0085402  41.0835552  27.9000831  39.0315008  41.2040138
  27.8351974  40.5738354  40.2432775  27.9837632  40.7468891  42.2396612
  27.2275472  40.8787680  43.4109545  26.2324810  40.4777098  43.5350370
  27.8842854  41.5650797  44.5331717  27.4384451  41.7062998  45.5066633
  29.1526222  42.1251488  44.4302464  29.5774078  42.7864170  45.5875111
  30.5139112  42.7402639  45.7934999  29.8327732  41.9241953  43.2563019
  30.8537841  42.2719717  43.3110046  29.2749786  41.1449814  42.1554995
  29.8723078  40.9337234  41.2808704  25.1223946  40.9893847  41.1044598
  24.2731547  40.9418011  42.0092916  25.1777887  41.9997787  40.2212954
  25.8043003  41.9271755  39.4324279  24.5007300  43.3035088  40.3907824
  24.4858813  43.5310030  41.4566755  25.3058052  44.4115829  39.7327971
  25.3327155  44.1123629  38.6850166  24.7451138  45.3450966  39.6850610
  26.7642474  44.5544338  40.3272104  27.9291916  44.5415974  39.5477414
  27.9057121  44.3566847  38.4839463  29.1999435  44.7271299  40.1917791
  30.0593305  44.8025036  39.5420289  29.3392038  44.9588919  41.5495777
  30.4855847  45.2795219  42.1441364  30.3971815  45.5124569  43.0712414
  28.0849671  45.1014280  42.3133898  28.1597638  45.3762245  43.3551598
  26.8343139  44.8202372  41.6880846  25.8932781  44.8833036  42.2142744
  23.0741143  43.2597637  39.7327948  22.3305368  44.1997766  40.0545788
  22.6192164  42.2020578  39.0451860  23.3095574  41.5025330  38.8123751
  21.2934518  41.7928362  38.6324215  20.6806707  42.6338243  38.3078551
  21.3829947  41.0183573  37.2949243  22.0955586  41.5348148  36.6517901
  21.7103195  39.9989271  37.4992037  20.0002217  40.9872150  36.6530275
  19.5011210  40.3382730  37.3726654  19.6103120  41.9803762  36.4301014
  20.0981522  40.2800274  35.2807999  20.6918001  40.8290291  34.5498562
  20.5211306  39.2881751  35.4402351  18.7647867  40.2256918  34.8241544
  18.0299664  39.9989271  35.5966282  18.4045315  41.1992693  34.4917893
  18.5590208  39.2556643  33.7396550  18.7069237  38.3179450  34.0844798
  17.5822520  39.2656898  33.4828973  19.1244948  39.4824052  32.9340935
  20.4932046  41.0532522  39.7628117  19.3026638  41.3671589  39.9516153
  21.2116385  40.2141857  40.4918194  22.0951462  40.0022316  40.0506926
  20.7666087  39.4892883  41.6359425  19.8416495  38.9849019  41.3563871
  21.6774106  38.2831049  41.8882227  22.7158666  38.6081481  41.8245220
  21.5598941  37.8507733  43.3873653  21.9214177  38.6751676  44.0020037
  20.4849339  37.8535318  43.5677862  22.0320964  36.8821406  43.5513067
  21.4286828  37.1238661  40.8497524  20.4290318  36.7073584  40.9735250
  21.2453747  37.5699401  39.8722434  22.5949430  36.1225581  40.7000303
  22.8119183  35.5864048  41.6239119  22.3265791  35.3671932  39.9614429
  23.4314775  36.7505383  40.3935146  20.6359768  40.4901981  42.8081322
  19.5096815  40.6820297  43.2668591  21.6706920  41.2104034  43.1843758
  22.5398493  41.1109161  42.6796341  21.6209316  42.1552324  44.3065166
  21.2076902  41.5582323  45.1194906  23.0153275  42.5167751  44.8000240
  23.5575294  42.7921867  43.8954449  23.0481243  43.6645746  45.7947683
  22.4967837  43.3877468  46.6933823  24.0843487  43.9303112  46.0038662
  22.6399541  44.5332766  45.2781868  23.8145423  41.2488556  45.2668619
  23.9257240  40.6292725  44.3769979  24.8064184  41.5859461  45.5679464
  23.2392097  40.2983665  46.3394403  23.8877082  39.4236517  46.3887501
  23.1215405  40.7536840  47.3227739  22.3477507  39.8700213  45.8812666
  20.6030059  43.4131861  44.3149042  20.4739594  44.0502071  43.2675362
  19.9104309  43.6757374  45.4065609  20.0284314  43.0294418  46.1736870
  18.8874471  44.7101116  45.5063057  18.5296285  44.9160194  44.4975138
  17.7786922  44.2257690  46.3985586  18.2517207  43.8396502  47.3014736
  17.0765269  45.0294638  46.6202354  17.0886087  43.0339432  45.7401943
  16.4584565  43.4393835  44.9485970  17.8358412  42.4000168  45.2628231
  16.2131226  42.2057629  46.7697287  16.9789159  41.8943691  47.4801445
  15.5135500  42.8666258  47.2815561  15.5820334  40.8351040  46.1950684
  16.3384616  40.0808144  45.9783459  14.8878908  40.5287933  46.9776535
  14.9037790  41.0133171  44.9181271  15.4664850  41.5077448  44.2406225
  14.7583103  40.1426601  44.4273186  14.0229023  41.5065050  44.8877382
  19.4641650  46.0442305  46.0130835  19.0675056  47.1074963  45.5151987
  20.4864907  45.9613228  46.8286848  20.6678629  45.0529909  47.2313595
  21.2995625  47.0214939  47.3777246  21.0864258  47.8797674  46.7405128
  20.9456730  47.3626423  48.8414574  21.1520672  46.4940739  49.4668293
  21.7860937  48.5187006  49.4531727  22.1096063  49.2460060  48.7085533
  21.1853337  49.0660429  50.1795483  22.6664042  48.1077862  49.9474430
  19.6806335  47.9501247  48.9153337  19.3794084  47.7766609  49.8101950
  22.7926826  46.8019390  47.3214817  23.3698440  46.3384628  48.2817221
  23.5575008  47.1832132  46.2704515  23.1610322  47.7257013  45.0445986
  23.3475208  48.7802219  45.2478409  22.1351361  47.4114847  44.8524666
  24.0895605  47.1193314  43.9833069  24.1596770  47.8145027  43.1466961
  23.7418699  46.1234665  43.7085819  25.4637599  47.1105528  44.6898746
  26.0251427  48.0428791  44.6288061  26.0119033  46.2573051  44.2903662
  25.0014853  46.9372129  46.1506033  25.2393675  45.8965731  46.3710213
  25.7602000  47.8804970  47.0265722  25.2514005  48.9828205  47.2869253
  26.9851255  47.5166750  47.3930168  27.3034668  46.6410112  47.0031786
  27.8833318  48.2708168  48.2645845  27.7265334  49.3193674  48.0114841
  27.4890232  48.0353880  49.7036457  26.4412522  48.3187389  49.8035955
  27.6558876  47.0041704  50.0148535  28.2506013  48.8924456  50.6934738
  27.7927089  48.7582016  51.6734791  29.2365980  48.4281540  50.7122087
  28.2104373  50.7102728  50.3315306  26.4723659  51.1906433  50.3977203
  25.8962703  50.7129765  51.1902142  26.4293742  52.2549057  50.6292534
  25.9214616  51.0630941  49.4658756  29.3813515  47.9347038  47.9459524
  29.6649742  46.8050575  47.4712086  30.2577233  48.9277124  48.2571363
  30.0263023  49.8168325  48.6766720  31.7530990  48.8445520  47.9479599
  32.1476221  47.8845263  48.2808304  31.9651127  49.1565180  46.4430475
  33.0109429  48.9247513  46.2414980  31.2842274  48.6355257  45.7699490
  31.7006040  50.6542397  46.2187576  32.6206446  51.5216064  46.2425375
  30.5469632  50.9342957  45.9837294  32.4647021  49.9235535  48.8602066
  31.8407130  50.9474611  49.2731142  33.7553024  49.6066761  49.2683029
  34.1788411  48.7522888  48.9355230  34.5249867  50.4563570  50.2254868
  34.0033460  50.4703617  51.1824608  35.7969952  49.7408247  50.7292747
  36.4689660  49.5454741  49.8935747  36.2908888  50.4239178  51.4203310
  35.6366158  48.5583973  51.6668844  34.8777080  48.7810135  52.4169540
  35.2560019  47.6526117  51.1948872  37.1685076  48.0787992  52.6299191
  38.1193376  47.4549675  51.2220812  38.3117723  48.2898808  50.5482912
  39.0009856  46.9657612  51.6361856  37.4817038  46.8336439  50.5932140
  34.7109675  51.8956804  49.7182560  34.8296952  52.7252960  50.6136560
  34.7095442  52.1309900  48.4022665  34.5899487  51.3628197  47.7575111
  34.5171785  53.4658670  47.8696346  35.2812696  54.0927887  48.3292389
  34.7382808  53.4424591  46.8025541  33.1509995  54.1951084  47.9776669
  33.1200933  55.3893995  47.9745293  31.9728374  53.4740686  48.1855679
  31.9828033  52.4694729  48.2894039  30.6926203  54.1390848  48.5645294
  30.6959367  55.0950766  48.0409193  29.4937181  53.3774710  47.9894781
  29.6281576  52.3271608  48.2480860  28.0684161  53.9629936  48.3331156
  27.2724581  53.3154249  47.9653978  27.9605579  54.0205240  49.4162369
  28.0157495  54.9522495  47.8784752  29.4700503  53.3480978  46.6359615
  30.1178360  52.7108765  46.3262463  30.5578661  54.2695665  50.1200390
  30.0557852  55.3264093  50.5835819  31.1913204  53.3487225  50.8257389
  31.4881086  52.5101662  50.3473616  31.4063931  53.5743380  52.2637463
  30.4372358  53.8291454  52.6925898  31.8480539  52.3067856  53.0248690
  32.8238893  52.1150160  52.5786924  31.9146919  52.7979136  54.5215225
  32.0576239  51.9791031  55.2266598  32.7225137  53.5112572  54.6848392
  30.9745359  53.3047247  54.7391176  30.8799386  51.1753845  52.6317739
  29.8436928  51.5049267  52.5562763  31.2772131  50.7643461  51.7036915
  30.8665895  49.9441338  53.5115051  30.2289701  49.2332649  52.9859495
  31.8379259  49.4713497  53.6567307  30.2759600  50.1273394  54.4091082
  32.1835756  54.8396969  52.5002956  31.7510509  55.7126427  53.2822943
  33.3988142  54.9306774  51.8865776  33.8236737  54.0725851  51.5652180
  34.2409039  56.1524773  51.7940331  34.6755838  56.3981867  52.7629375
  35.2827859  55.8046436  50.7682085  35.8575273  54.9153662  51.0269880
  34.7941637  55.6780386  49.8021221  36.3023019  57.0209122  50.8201456
  35.8087301  57.9623413  50.5789042  36.6825652  57.1737289  51.8301725
  37.5334382  56.7821693  49.9446869  38.1319404  55.9675980  50.3525686
  37.1171761  56.3839912  49.0193319  38.3856630  58.0858088  49.6038580
  39.1769576  57.8216267  48.9023066  37.6252413  58.8208961  49.3402195
  39.0047503  58.5555601  50.8463383  38.2980728  58.7754583  51.5336132
  39.7103333  57.9064131  51.1639261  39.3906474  59.4734287  50.6769085
  33.4375954  57.4122858  51.4658499  33.5395074  58.4441996  52.1540833
  32.4918485  57.3382092  50.5037260  32.4498081  56.5209055  49.9118233
  31.5853953  58.4218454  50.0386906  32.2318578  59.2419815  49.7263384
  30.8453345  57.9520035  48.7905025  31.5723062  57.4840355  48.1267118
  30.0421119  57.2312212  48.9434862  30.1974821  59.1204548  48.0813932
  29.5349598  59.4814491  48.8680601  30.9003592  59.8767424  47.7319765
  29.3214083  58.5627937  47.0287037  28.7289405  57.6939344  47.3153400
  28.5857058  59.3265200  46.7765856  30.1190305  58.3062220  45.7450247
  30.3755975  59.2320871  45.2301884  31.0802865  57.8150463  45.8961296
  29.3776274  57.5623035  44.6904278  28.6439443  58.1775331  44.3690205
  29.9309945  57.1236944  43.9682770  28.9539957  56.7236996  45.0610733
  30.6723285  58.9076996  51.2057447  30.6485128  60.0830793  51.5472651
  29.9676442  57.9814053  51.8028259  30.2333140  57.0505857  51.5145636
  29.1570401  58.1480742  52.9815531  28.4320903  58.9283085  52.7496481
  28.4574008  56.7497158  53.3278036  29.2159438  55.9673309  53.3521557
  28.0135608  56.8404102  54.3192053  27.4132919  56.3916588  52.2746420
  26.6568112  57.1743011  52.2171307  27.9062653  56.3686037  51.3027668
  26.8073630  54.9841452  52.4672604  27.5056267  54.1471672  52.4671459
  26.3750100  55.0084209  53.4675503  25.8282828  54.7527695  51.4228964
  25.6864858  55.4243708  50.6819868  24.7758150  53.9775515  51.5360355
  24.4507360  53.3456039  52.6253319  25.1608467  53.2888031  53.3413076
  23.7436867  52.6259184  52.5779629  23.9684010  53.7403488  50.5319834
  24.1275907  54.1212368  49.6101999  23.1658006  53.1413746  50.6629562
  29.9342227  58.7216234  54.1790867  29.3678641  59.6127796  54.9034548
  31.2148595  58.3276415  54.3646431  31.5166187  57.5385237  53.8111687
  31.9982147  58.9371252  55.3954458  31.3804483  59.2002678  56.2540674
  33.1543350  58.0003595  55.9054565  33.7132478  57.8240204  54.9864244
  33.7083602  58.4971380  56.7019320  32.6526761  56.6807890  56.4222956
  31.8062544  56.4373589  55.7801008  33.7609315  55.5437517  56.2990952
  34.6483350  55.8679819  56.8426847  33.3487797  54.6493053  56.7662096
  33.9512563  55.3949213  55.2362108  32.1036100  56.8519068  57.8655243
  31.6665483  55.9045506  58.1811047  32.9115057  57.2854137  58.4550095
  31.2934136  57.5798368  57.8230572  32.4133420  60.4267740  55.0215101
  32.1577692  61.3479567  55.8079195  32.9745746  60.6048250  53.7946939
  33.1353879  59.8130894  53.1885624  33.4743524  61.9102764  53.2242823
  34.3145537  62.1618080  53.8715029  33.9735055  61.7117310  51.7775917
  34.6509910  60.8590221  51.7328548  33.1250739  61.4975739  51.1276674
  34.4957423  62.9390097  51.0421419  34.4468117  62.6546764  49.9910212
  33.7630963  63.7357950  51.1704588  35.9393239  63.2755089  51.3514328
  36.5066624  62.8841448  52.3927116  36.5087533  63.9990616  50.5483103
  32.3956394  63.0211735  53.1849909  32.7446580  64.1771746  53.4403419
  31.1317968  62.5467730  53.0875826  30.9477901  61.5536976  53.0803299
  29.9867296  63.4811020  53.0736208  30.5209494  64.4309521  53.0515623
  29.2576313  63.2838774  51.7425299  28.6763358  62.3641777  51.6766167
  28.5189176  64.0837193  51.6909170  30.2514791  63.4567308  50.5691576
  30.8128190  64.5211697  50.3400517  30.4382205  62.4796820  49.7492266
  31.0601830  62.5720549  48.9588261  30.0419450  61.5760469  49.9648857
  29.0578485  63.4659910  54.3127871  28.0655813  64.2076349  54.2423058
  29.3396258  62.7179241  55.3922033  30.2199650  62.2246075  55.4338884
  28.5729170  62.8243494  56.6436625  29.0542412  62.1715021  57.3718214
  28.5755062  64.2651987  57.2122574  28.1526089  64.9523354  56.4793873
  27.9968667  64.3011045  58.1352901  30.0448608  64.7214031  57.4322701
  30.6537271  65.4462433  56.6535950  30.6217027  64.4077682  58.6245966
  31.4304876  64.9831009  58.8115644  30.3325176  63.7594843  59.3430662
  27.2524357  62.1006250  56.5836239  26.2992024  62.4795246  57.2907877
  27.0805812  61.1539745  55.6832075  27.8874397  60.9195185  55.1227522
  25.8611870  60.3864336  55.4202032  25.0975633  61.0207272  54.9700356
  26.2241983  59.3034267  54.3739367  26.6227126  59.7477007  53.4618473
  27.0750856  58.6973619  54.6850443  25.1491141  58.3170176  54.0440893
  24.3582940  58.4176826  52.9168081  24.5244384  59.3088436  52.3297548
  23.3673120  57.4511099  52.7237797  22.6243353  57.5640869  51.9481277
  23.2371593  56.3645840  53.5807943  22.1803236  55.4945946  53.3077478
  22.2665787  54.6761799  53.8020706  24.0953660  56.1829805  54.6920586
  23.9143801  55.3309059  55.3305054  25.0046515  57.2461081  54.9082327
  25.6500196  57.2333813  55.7741070  25.2342963  59.8147058  56.6648149
  24.0330148  59.9321651  56.8966007  26.0250187  59.1467714  57.4992466
  27.0215440  59.1228962  57.3365498  25.5988598  58.3537054  58.6819077
  24.7189569  57.7649975  58.4224939  26.6655016  57.4255514  59.1190481
  27.5232959  58.0782986  59.2809391  26.4229202  56.9243336  60.0560856
  27.1237397  56.3848925  58.0765581  26.2377644  55.3359127  57.7025080
  25.3046203  55.2738237  58.2426834  26.5685081  54.4805431  56.6324043
  25.7848716  53.9114666  56.1544228  27.9208970  54.5498085  56.1431217
  28.3073902  53.8131618  55.1072741  27.5876355  53.2573509  54.7996664
  28.7828541  55.5861902  56.5569305  29.7559619  55.7150555  56.1065292
  28.4026432  56.4676666  57.5908136  28.9342499  57.3732090  57.8433657
  25.0819826  59.2529297  59.8437881  25.7829762  60.1009417  60.4162455
  23.8184786  59.0132809  60.3208685  23.3682537  58.3014154  59.7635031
  23.2442212  59.4846296  61.5812683  23.5243773  60.5317783  61.6956902
  21.6839123  59.5994091  61.6093922  21.4555979  60.5513239  62.0887947
  21.3253975  59.7612476  60.5928421  20.9294200  58.5842562  62.2408819
  20.5224037  57.4124527  61.6473293  20.6014538  57.1655560  60.5989027
  19.7508502  56.6700745  62.5095463  19.3007040  55.8003998  62.2622871
  19.8450899  57.2068834  63.8036585  19.4719684  56.6654158  65.0515366
  18.9836490  55.7088470  65.1652002  19.7135258  57.4379826  66.2158442
  19.4352484  57.0652485  67.1905422  20.3526974  58.6563969  66.0621023
  20.6080770  59.3084526  66.8843031  20.7227969  59.2013311  64.7760868
  21.2885475  60.1212597  64.7681570  20.5177426  58.4603310  63.5776329
  23.8666081  58.8638735  62.8331184  23.9430118  59.4509363  63.9429092
  24.3065548  57.5954723  62.7189016  24.3451810  57.1282673  61.8242884
  24.6700788  56.7242193  63.8632154  25.0612926  57.3966312  64.6267033
  23.2759070  56.2037325  64.4456387  22.5267506  56.9834280  64.5832682
  22.8496718  55.5292559  63.7030029  23.2073641  55.2927399  65.6956100
  24.0178394  54.4505501  65.9446096  22.2174358  55.4630423  66.5641022
  22.1262622  54.9359846  67.4208403  21.4695096  56.1132622  66.3693523
  25.5812049  55.5596924  63.3716202  25.3598046  55.0917482  62.2803545
  26.5765500  55.0967503  64.1964388  26.6009068  55.4713392  65.1340914
  27.6127672  54.1168308  63.8521481  28.2503033  54.5172453  63.0639124
  28.4213352  53.7087822  65.1338863  29.1320896  52.9324293  64.8506689
  29.0718865  54.4990683  65.5084944  27.7348065  53.4080458  65.9252930
  27.0046258  52.7691841  63.2119417  27.5738025  52.2018385  62.2753334
  25.9484887  52.2652817  63.8660383  25.5893660  52.8276157  64.6242666
  25.4560184  50.8739376  63.6781454  26.1897254  50.0917101  63.8728094
  24.2388630  50.5587626  64.5150852  23.3936548  51.0318899  64.0152073
  24.1093659  49.4855642  64.3751717  24.3137026  50.8392429  66.0731268
  24.6277499  51.8449163  66.3525867  23.2939696  50.7818365  66.4538574
  25.1846957  49.7785997  66.8407726  25.8996654  48.8837862  66.3226557
  25.1636887  49.9360991  68.1653357  25.5222058  49.1193628  68.6391592
  24.6859360  50.7203579  68.5858011  25.1314831  50.8027983  62.1715117
  25.1878667  49.7487974  61.5570974  24.5987630  51.8741512  61.5810776
  24.3775511  52.6864195  62.1391058  24.2613387  51.9823456  60.1108408
  23.4875417  51.2667513  59.8328638  23.7229824  53.3852386  59.8564577
  24.5496392  54.0349817  60.1438141  23.3935046  53.4204006  58.8180399
  22.6455975  53.9809179  60.7385683  22.6005793  53.5736132  61.7486048
  22.7761483  55.0567818  60.8550739  21.3057232  53.8531256  60.0543213
  20.4434252  53.0352211  60.4174662  21.0988092  54.6125841  59.0831566
  25.5299926  51.6561508  59.2720175  25.3439569  50.7890844  58.3917952
  26.6982055  52.3944759  59.4500399  26.6232014  53.1378603  60.1296425
  27.9901147  52.1413612  58.9348841  27.7844596  52.2713709  57.8723860
  29.0648651  53.1932211  59.2807007  28.7314057  54.1777611  58.9526939
  29.1790819  53.3613968  60.3515816  30.7426810  52.7011156  58.6899805
  30.4109097  52.0470333  57.5732851  28.4568787  50.6813908  59.0891171
  28.8999748  50.1120424  58.1120920  28.2890773  50.0163126  60.2630758
  27.8743672  50.5843878  60.9879303  28.4576225  48.5394526  60.4969645
  29.4637895  48.3885765  60.1058578  28.4243894  48.2221746  62.0245457
  27.5046372  48.5896778  62.4796247  28.1433940  46.7172432  62.2610426
  28.9871860  46.1327076  61.8943882  28.1069183  46.5067530  63.3299017
  27.2110939  46.2793350  61.9044495  29.5937538  48.6749887  62.8496265
  30.4295468  48.0581331  62.5194168  29.8306203  49.7208261  62.6541185
  29.4820905  48.5353374  64.3665600  28.4816551  48.8403511  64.6734715
  29.6560812  47.4951696  64.6420145  30.1779604  49.1564465  64.9305582
  27.4999785  47.6776075  59.6367836  27.9050088  46.6028881  59.0743256
  26.2388778  48.0841923  59.5058298  25.9080243  48.8608599  60.0602961
  25.2852273  47.4324369  58.5905743  25.4074931  46.3705206  58.8038397
  23.8530517  47.8071785  58.8103628  23.6460161  47.4776506  59.8285246
  23.8362193  48.8963366  58.8497543  22.7342439  47.2697449  57.8965330
  21.7804623  47.6792765  58.2292175  22.9364800  47.6103735  56.8810654
  22.6961803  45.7414675  57.7973938  23.0004454  45.0409126  58.7270069
  22.0885682  45.1944876  56.7889023  21.6881824  44.2673016  56.7993927
  21.6758561  45.7817984  56.0783815  25.6462979  47.6032543  57.0969248
  25.4078603  46.6742706  56.3607645  26.3131857  48.6565685  56.6548347
  26.5115499  49.4729710  57.2154045  26.8228197  48.7242651  55.2782154
  26.0448956  48.4506035  54.5654440  27.2367334  50.1327276  54.7140121
  27.9751801  50.5523300  55.3971863  27.7840114  50.0044727  53.7801266
  26.0792303  51.1047363  54.3729353  24.9331355  50.6717348  54.3568993
  26.3532853  52.3285961  54.1946363  27.8675318  47.6998901  55.0554895
  27.7976704  47.0033264  54.0528059  28.8814402  47.5781012  55.9143400
  29.0845394  48.2584429  56.6326618  29.8432016  46.3930082  55.8050632
  30.4712462  46.4233398  54.9147034  30.8484983  46.4658403  56.9904995
  30.2406287  46.5302134  57.8929710  31.2710690  45.4610872  56.9875956
  31.9819832  47.4732876  56.7898178  32.9115915  47.1754503  55.7999897
  32.8948045  46.2484980  55.2460241  34.0035272  48.0887747  55.7369852
  34.8030353  47.8266001  55.0598955  34.0103316  49.3081570  56.3843346
  34.8643374  49.9505138  56.2279272  33.0368018  49.6035099  57.3885345
  33.0115175  50.5781460  57.8531265  31.9640660  48.6884785  57.5461435
  31.1608434  48.9506006  58.2188463  29.1318512  45.0259066  55.8293581
  29.3402386  44.1732216  54.9798203  28.2628489  44.7568846  56.8152905
  28.1381464  45.3941679  57.5888634  27.3148537  43.5593843  56.7363453
  27.9813004  42.7022171  56.8323612  26.3220024  43.5468578  57.8857136
  26.8200469  43.7243652  58.8388872  25.6866121  44.4321299  57.8597593
  25.5431652  42.2519922  58.0338669  26.0547185  41.1724520  57.9654264
  24.2538404  42.4125147  58.3815050  23.8112283  41.5259743  58.5770655
  23.8214779  43.3244276  58.4213114  26.6289568  43.4053135  55.3904390
  26.6786289  42.2491312  54.9334240  26.1355305  44.4594431  54.7061062
  26.3260460  45.3546047  55.1332998  25.4493213  44.4035673  53.3933496
  24.6496701  43.6632156  53.4164000  24.7839379  45.7594872  53.1336308
  25.6098485  46.4702606  53.1613684  24.0824533  45.9823847  51.8249607
  23.2136703  45.3246164  51.8506145  23.7128925  47.0001936  51.7001104
  24.6993065  45.6313181  50.9977055  23.9234543  45.9305286  54.2192793
  24.4992757  45.9175062  54.9873114  26.4595437  43.9387274  52.3868895
  26.1332178  43.1378269  51.5884209  27.7671766  44.3856764  52.4519777
  27.9248166  45.0892162  53.1592846  28.8082433  43.9867210  51.4113522
  28.4609580  43.9880276  50.3781557  30.0020742  44.9342060  51.4726353
  29.6097612  45.9360933  51.2982368  30.4912400  44.7704887  52.4328470
  31.1202836  44.7281790  50.3681517  31.7397475  43.8341999  50.4400015
  30.6259680  44.6047640  49.4045544  32.2305131  46.0676765  50.1284170
  32.8058028  46.1993027  51.8369532  31.8983841  46.2832117  52.4349928
  33.4664631  45.3968906  52.1652269  33.3230519  47.1565580  51.7719698
  29.1468859  42.5522900  51.5648699  29.1357255  41.8203497  50.5774355
  29.2840648  42.0292664  52.8200674  29.2815995  42.6256561  53.6351824
  29.6729565  40.5762815  52.9088211  30.4704380  40.3085470  52.2156858
  30.2629805  40.3089046  54.3268251  29.4238853  40.2727747  55.0216007
  30.6424785  39.2903924  54.2448854  31.3435078  41.2200069  54.7816801
  32.4997950  41.3268995  54.0314531  32.7264023  40.7654858  53.1370974
  33.5321379  42.1102810  54.5610762  34.4145417  42.2625208  53.9572716
  33.4640908  42.6907301  55.8460951  34.3109798  43.2170916  56.2609720
  32.2455597  42.6077938  56.5113449  32.0814228  43.1336212  57.4403048
  31.1563683  41.8367434  56.0226631  30.2665544  41.6630125  56.6095638
  28.4940910  39.6785283  52.4932528  28.5442686  38.6816049  51.8111134
  27.3594356  40.0861073  53.0881071  27.4843001  40.8189392  53.7718201
  26.0297060  39.4862938  52.8933859  26.0910177  38.4796238  53.3068514
  24.8646307  40.1057339  53.7140512  24.8335290  41.1683846  53.4734106
  23.3614445  39.6160555  53.3028603  23.2830310  38.5404968  53.4613752
  22.6721096  40.1136398  53.9850140  23.0570054  39.8926401  52.2934484
  25.0437284  39.9038243  55.0728130  25.6511903  40.5901098  55.3584719
  25.6525278  39.4325376  51.4299583  25.2485752  38.3361125  50.9624338
  25.5902505  40.5416870  50.7153320  25.8954668  41.4298105  51.0870600
  25.5740666  40.4593039  49.2744350  24.5644498  40.2466869  48.9228964
  26.0829210  41.7504358  48.5906458  27.0179009  42.1851873  48.9440632
  26.0118484  41.5544844  47.5207615  25.0646234  42.9169512  48.8247776
  23.9174652  42.7712202  49.1932678  25.3763723  44.0963507  48.3627653
  24.6454072  44.7926998  48.3330631  26.3166332  44.3319464  48.0790329
  26.4052224  39.3538976  48.5923624  25.8781624  38.5490489  47.8094482
  27.7075601  39.1862941  48.9910650  28.0972719  39.6864080  49.7772646
  28.4764361  37.9935026  48.6058426  28.3289957  37.9138851  47.5287962
  29.9875093  38.1312728  48.9411879  30.1394963  38.4425282  49.9746895
  30.4800963  37.1761465  48.7589741  30.7470822  39.2669702  47.7449369
  29.5374870  39.5414567  47.2485209  27.9051971  36.6633224  49.0321159
  27.8098464  35.7269239  48.2725382  27.5423861  36.5298319  50.3111029
  27.6708364  37.3093963  50.9402943  26.9874120  35.2558327  50.8438063
  27.6414394  34.3984175  50.6851006  26.7325568  35.3591394  52.3643303
  26.0363150  36.1542392  52.6310921  26.2858510  34.4200635  52.6909637
  28.0003715  35.4463124  53.1921768  28.1024003  36.5138435  54.1752911
  27.2321582  37.1423888  54.2936611  29.1348100  36.5320683  55.1141930
  29.2263675  37.2931814  55.8749390  30.0763488  35.5719233  55.0629950
  30.9953856  35.5945945  56.0681963  30.6739974  36.2121820  56.7291784
  30.1243854  34.5671654  54.0832329  30.9918594  33.9259577  54.0308237
  29.0299892  34.4982362  53.2054424  29.0168786  33.6394882  52.5506306
  25.6481838  34.9132252  50.1573420  25.1974630  33.7512970  50.1450253
  24.8971438  35.9144306  49.7190571  25.2102804  36.8486333  49.9411249
  23.6870074  35.6399512  48.8927603  23.0927563  34.8690963  49.3834305
  22.7746105  36.8881249  48.7603235  23.4279513  37.7043605  48.4520912
  21.5716600  36.7504859  47.7701759  21.9858432  36.4798355  46.7989445
  20.8942223  35.9468484  48.0588770  20.9826255  37.6647091  47.6971626
  22.1893239  37.1012592  50.1743841  21.5959764  36.2617421  50.5366707
  22.9711485  37.1981621  50.9276867  21.5784478  38.5561419  50.2979088
  21.2444711  38.6343956  51.3325357  22.3402309  39.3171072  50.1284409
  20.7903028  38.7446332  49.5689392  23.9316344  35.0965929  47.4983788
  23.3201694  34.0609455  47.1059704  24.7745132  35.8122849  46.8285751
  25.2881551  36.5488195  47.2909498  24.9202991  35.5914831  45.4172707
  23.9257646  35.5666852  44.9718618  25.6092930  36.8120670  44.8508167
  24.9261475  37.6586485  44.7821474  26.3318276  37.1517444  45.5928898
  26.4303732  36.5672851  43.5601377  25.7913804  36.3285899  42.2860765
  24.7121048  36.3632274  42.3053026  26.5863299  35.9088612  41.1581230
  26.0264421  35.6207299  40.2806807  28.0133939  35.8402228  41.2664032
  28.7789512  35.4768586  40.2143526  29.4048882  34.7842836  40.4382849
  28.6322236  36.2028933  42.5164986  29.7102857  36.1440349  42.5432920
  27.8325081  36.4891577  43.6102867  28.3416486  36.5633917  44.5598459
  25.5955291  34.2585778  45.0227261  25.0756288  33.5097504  44.1642046
  26.6931272  33.8941240  45.7239723  26.9585586  34.2799139  46.6188574
  27.5312638  32.7348518  45.3642321  27.3022175  32.4138808  44.3480539
  28.9753461  33.3007121  45.3765249  28.9920640  34.2580032  44.8555565
  29.4012594  33.4347177  46.3708830  29.7953987  32.3417211  44.5477295
  29.9234390  32.5374484  43.3109713  30.1711488  31.1876917  45.1654387
  30.4653406  30.4567361  44.5335770  29.8510718  30.9468222  46.0926056
  27.4411178  31.5392137  46.3739634  27.6444054  31.7042470  47.6165962
  27.1795106  30.3245282  45.8415556  26.7285967  30.3543901  44.9382877
  27.2497225  29.0646172  46.6074848  26.3380218  29.2801881  47.1646547
  27.0633721  27.9217649  45.5563879  26.6561437  27.0475626  46.0643625
  26.3017726  28.2763386  44.8618746  28.4054089  27.6975155  44.8202610
  28.8070059  28.7106323  44.7998524  29.1132569  27.0502281  45.3380108
  28.1058478  27.1112084  43.4182310  27.2383189  26.4757490  43.5962248
  27.7846956  27.8615165  42.6957321  29.2114639  26.2128425  42.7861929
  29.3837118  25.4688501  43.5639524  28.8513231  25.6134796  41.9500303
  30.4368210  27.0068932  42.4390745  31.3133526  26.5078902  42.4918652
  30.3750443  27.3253107  41.4825726  30.5255532  27.8152180  43.0381060
  28.4700322  28.8555002  47.5273275  29.5255470  29.3855286  47.1971464
  28.3091211  28.2386899  48.7208176  27.0868778  27.6499057  49.1256952
  26.8877244  26.9949961  48.2774401  26.3907480  28.4093237  49.4817734
  27.5388908  26.8089676  50.3439760  27.8373289  25.8017230  50.0532961
  26.6745710  26.7319536  51.0036087  28.7073088  27.5888991  50.9403849
  29.3625140  26.9533968  51.5361595  28.2209182  28.4085178  51.4692974
  29.3351698  28.2001352  49.7495127  29.6075511  29.2052960  50.0713253
  30.5366540  27.3527646  49.3103409  30.4084373  26.6090226  48.3443069
  31.6562295  27.3697019  50.0359011  31.9085526  27.9918218  50.7904863
  32.8774452  26.7224646  49.5317602  33.4814286  26.5974975  50.4304743
  32.5574422  25.7556963  49.1430950  33.8237333  27.4374986  48.5381460
  34.9897051  27.1788430  48.4396029  33.2491279  28.4073639  47.8822231
  32.2569513  28.5909271  47.9268599  33.9115882  29.3076611  46.9318581
  34.6228147  28.7122178  46.3594007  32.9918933  29.7882843  45.8508158
  32.1447563  30.2733850  46.3357258  33.5390425  30.4935503  45.2252579
  32.4143314  28.7171268  44.8172760  31.5065360  29.0181041  44.0106106
  32.8274775  27.5273085  44.8822880  34.8219824  30.4625797  47.4312973
  34.5134568  31.1253381  48.4483099  35.9237146  30.6427240  46.7220449
  36.0879564  30.0093269  45.9526730  36.8892694  31.7241740  46.9132042
  37.5350785  31.4767551  47.7557135  37.8405619  31.9172311  45.6832314
  37.3255062  32.0867872  44.7376776  38.4561586  32.7676964  45.9762239
  38.8764811  30.7753086  45.5222368  38.5872626  29.6103311  45.8311558
  39.9716425  31.0624957  44.9774170  36.3125777  33.0823660  47.3932695
  36.7600489  33.5745239  48.4130239  35.4174542  33.6528516  46.5702200
  35.2225161  33.1224513  45.7330990  34.7202635  34.8824239  46.7328072
  35.4924393  35.6403470  46.6008997  33.7412763  35.1620221  45.6067991
  34.3445301  35.2621055  44.7044897  32.7243018  33.9657998  45.3534365
  33.3166575  33.0612421  45.2155924  32.0185995  33.9488745  46.1839771
  32.0452929  34.1362023  44.5179701  32.9995489  36.5092349  45.7172203
  32.1510983  36.5212584  45.0330496  32.5710773  36.5962720  46.7156839
  34.0247393  37.6545835  45.4298687  34.7886634  37.7432799  46.2023067
  34.5929027  37.5397420  44.5067739  33.5068536  38.6131763  45.4614449
  34.1073227  35.0790191  48.1229496  34.4323206  36.0464478  48.8480854
  33.2769966  34.0973616  48.5608244  33.1529427  33.2952309  47.9597425
  32.6291013  34.0397072  49.8953724  32.3431849  35.0847816  50.0144243
  31.3631272  33.1753397  49.8846626  31.2430334  32.9402161  50.9422064
  30.1075578  33.8282776  49.3473387  30.3460288  34.4102192  48.4570646
  29.3628430  33.0877662  49.0555429  29.7961116  34.5642376  50.0885963
  31.5331602  31.8204427  49.2167711  30.6534815  31.1993980  49.3857956
  31.6888046  31.9668651  48.1479216  32.4115467  31.2599659  49.5367718
  33.6638355  33.6707711  50.9870005  33.5971212  34.1515541  52.1180534
  34.6865630  32.8674555  50.7167816  34.7416520  32.4631667  49.7928667
  35.8205342  32.6406193  51.5708399  35.5774736  32.2891927  52.5735998
  36.7532420  31.5369534  51.0461998  36.9883347  31.6793919  49.9914265
  37.7531958  31.5810966  51.4777613  36.1202312  30.0871944  51.0745621
  35.1666188  29.9424744  50.5668402  37.2217941  29.2829585  50.2779150
  37.5060749  29.7867894  49.3540955  38.1473064  29.1078258  50.8264208
  36.7637062  28.3602619  49.9217033  36.0264540  29.4918823  52.4183321
  36.8356156  29.9265265  53.0052233  35.0560045  29.7147655  52.8617907
  36.0931349  28.4045458  52.3815870  36.5680933  33.9836240  51.9321918
  36.9294167  34.2123842  53.0874443  36.9169116  34.7920513  50.9447145
  36.7206979  34.5192289  49.9922609  37.5700974  36.0716510  51.2636518
  38.3497906  35.8929729  52.0040941  38.0161691  36.6762400  49.9329710
  37.1356797  36.6706085  49.2904663  38.1958199  37.7512813  49.9435377
  39.1802239  35.8986330  49.2690659  39.9445558  35.6851363  50.0162745
  38.7147069  34.9576521  48.9758968  39.8482060  36.9604063  47.8793955
  38.6975908  36.4794016  46.6164827  38.4053302  35.4305363  46.5658045
  37.6944757  36.8694472  46.7888880  39.1106653  36.8020701  45.6607819
  36.6130924  37.0556569  51.9703484  37.0251083  37.8713465  52.8302145
  35.2947903  36.9727707  51.7469501  34.9156046  36.3643432  51.0355186
  34.2855954  37.8783822  52.4410009  34.4909573  38.9230990  52.2075653
  32.8997922  37.5865054  51.8182755  32.7712965  38.0864644  50.8582592
  32.5605321  36.5576863  51.9388437  32.2981596  38.2681131  52.4195671
  34.2359209  37.4574947  53.9404106  34.1329217  38.3474517  54.7585058
  34.4668102  36.2202883  54.2732477  34.3989372  35.5289531  53.5400677
  34.3659091  35.6985259  55.6115484  33.5356784  36.1258674  56.1738634
  34.0535927  34.2216325  55.4828405  33.1473184  34.0675282  54.8971605
  34.8040271  33.6310863  54.9572945  33.8334370  33.6655641  56.8882227
  34.7877812  33.6191297  57.4127865  33.1687522  34.2703676  57.5050735
  33.3457994  32.2262096  56.8279457  33.0140018  31.6849542  57.9265881
  33.1292200  31.5632272  55.8056927  35.6364226  35.8806586  56.4575148
  35.6146908  35.8898306  57.7063274  36.7816162  35.9838867  55.8172560
  36.6916990  35.8853984  54.8160982  37.9737186  36.5017796  56.3733149
  38.0775595  36.0657930  57.3669100  39.1103768  36.0583258  55.4698467
  38.8547325  36.3602400  54.4541740  39.9923539  36.6404653  55.7369232
  39.2977977  34.9994421  55.6479883  38.0636048  37.9809332  56.5419436
  38.4790540  38.4447789  57.6333761  37.5246572  38.8174081  55.6495667
  37.1231699  38.4772229  54.7874832  37.3738027  40.2396727  56.0053062
  38.2451105  40.7123995  56.4585829  37.1354532  41.0202599  54.7073412
  36.1608100  40.6978464  54.3409777  36.8658710  42.0256233  55.0308609
  38.1887460  40.9392595  53.6513376  38.5488439  39.9218130  53.4989071
  37.6737928  41.5114546  52.3375797  38.4298921  41.3465548  51.5699673
  36.7528129  41.0841084  51.9409990  37.4524260  42.5726366  52.4515343
  39.3818402  41.7657280  54.0182257  40.0845957  41.7647982  53.1850243
  39.1304660  42.7803230  54.3272734  39.8713779  41.2593126  54.8500872
  36.3580585  40.4429483  57.0934868  36.6333771  41.2315941  57.9645872
  35.1574779  39.8016477  57.0005655  34.8704481  39.2785120  56.1856794
  34.2773700  39.8409653  58.1089926  33.9181089  40.8662367  58.1975889
  33.0028343  39.0888000  57.7662945  32.6200080  39.5693684  56.8659592
  33.2118392  38.0475640  57.5208473  31.9474554  39.2321515  58.8848829
  32.4270034  38.7997293  59.7630310  31.7658281  40.2977276  59.0250921
  30.6060886  38.4806275  58.6099625  30.6471848  37.3578119  58.0918980
  29.5021820  38.9530468  59.0163088  34.8884130  39.5405984  59.4951296
  34.7556973  40.3550911  60.4083443  35.6190658  38.4382844  59.6845961
  35.8003116  38.0147934  58.7857580  36.4089656  38.1046343  60.9641838
  35.6976247  37.9044724  61.7654514  37.3026729  36.8631029  60.6375790
  37.8183556  37.0768285  59.7013664  38.0267835  36.6960979  61.4349985
  36.4365959  35.6293392  60.6425953  36.1657190  35.4588175  61.6845369
  35.5123544  35.7821655  60.0853491  37.2600532  34.4309664  60.0771141
  37.4263334  34.6753383  59.0279579  38.2250524  34.2946029  60.5652666
  36.3582659  33.1706023  60.1209641  36.0573053  33.0647516  61.1632347
  35.5432320  33.2242608  59.3992043  37.1382117  31.9669414  59.7916269
  37.5922990  31.6127157  60.6213427  36.6302514  31.2163782  59.3458319
  37.8856921  32.2237778  59.1628075  37.2341490  39.3263865  61.3464594
  37.2492790  39.6414733  62.5561666  38.0485916  39.8875690  60.4593658
  37.9546523  39.5214677  59.5227528  38.9702654  40.9585238  60.7060289
  39.5742488  40.7250881  61.5828514  39.9456835  41.1993599  59.5257854
  40.3208494  40.2153301  59.2446423  39.2833352  41.4242840  58.6898422
  41.0095453  42.2462559  59.6931982  40.5544949  43.1830168  60.0149298
  42.0649385  41.9154501  60.7245207  42.6050425  40.9904671  60.5225420
  42.7810717  42.7370405  60.7089806  41.6043139  41.9159889  61.7124128
  41.6948843  42.3730993  58.3610439  42.2430325  41.4491558  58.1767464
  40.9029293  42.6355267  57.6595879  42.4335241  43.1715775  58.2906818
  38.2850528  42.3267365  60.9949493  38.7604475  43.0973959  61.8609524
  37.1483779  42.5449038  60.4186583  36.8620658  41.8897104  59.7053194
  36.2243271  43.7240887  60.5673695  36.8850708  44.5894957  60.5164623
  35.0773001  43.7134266  59.5114851  35.4281974  44.1096926  58.5586214
  34.7888422  42.6980305  59.2396927  33.8966465  44.5625591  59.8262978
  32.7261376  43.9180136  60.2365923  32.5734186  42.8492022  60.2632856
  31.5832376  44.6820974  60.4338884  30.6419015  44.1579533  60.5084610
  31.5881228  46.1171055  60.3644371  30.6629086  46.6457033  60.5403996
  32.7656198  46.7615986  59.9643803  32.7699208  47.8360510  59.8551416
  33.8998175  46.0047483  59.6332264  34.7653675  46.5339327  59.2628288
  35.7194972  43.6811161  62.0263481  35.8799243  44.6419096  62.7110147
  35.0779724  42.5015497  62.3879242  34.9606514  41.7977190  61.6731071
  34.6591592  42.2360420  63.7013578  33.8615394  42.9153919  64.0020132
  33.9859295  40.8272266  63.7700272  34.7483754  40.1015902  63.4867764
  33.7299633  40.4580355  64.7631454  32.7186298  40.7707739  62.8818893
  32.8827572  41.1208391  61.8627644  32.3201013  39.2864943  62.6159716
  33.1465697  38.6002827  62.4311447  31.8363452  38.8008261  63.4634447
  31.6002774  39.3150544  61.7979670  31.4833188  41.4826107  63.4675789
  31.6998529  42.5405931  63.3196402  30.5715299  41.2375307  62.9228973
  31.3251448  41.2409258  64.5186138  35.7470870  42.4064398  64.7518682
  35.3881478  42.9520607  65.8647490  37.0195341  42.1145248  64.3957758
  37.1832848  41.4568520  63.6469364  38.0505490  42.3003864  65.3767061
  37.7196360  41.8826914  66.3275671  39.2967868  41.5509939  64.8652220
  38.9895105  40.5054903  64.8898983  39.6698666  41.7202568  63.8551426
  40.5794668  41.6886711  65.7154131  41.3186312  41.0376358  65.2486229
  40.8707047  42.7099085  65.4697418  40.5591488  41.3397360  67.2283649
  40.0393152  40.3163147  67.6298332  41.1676979  42.1314192  68.0579281
  40.8494234  41.9798660  69.0044117  41.8467808  42.7761078  67.6793575
  38.3886385  43.8286829  65.6762934  38.6629558  44.2249107  66.8008900
  38.2411194  44.6825266  64.6711969  38.1906700  44.4172096  63.6979771
  38.4074450  46.1113548  64.9605942  39.0079522  46.3228464  65.8453321
  39.0066123  46.7908096  63.6838865  38.5608125  46.2914610  62.8236485
  38.8273954  47.8650665  63.7280560  40.5048752  46.6061068  63.4893799
  40.5243826  45.5164289  63.5072947  40.6853056  47.0289993  62.5010967
  41.3110447  47.3040581  64.6319532  40.9988642  48.3483076  64.6459436
  41.0745239  46.8801594  65.6078959  42.8534079  47.2237158  64.3412066
  42.9285765  46.3579464  63.6832619  43.1221199  48.1651783  63.8620996
  43.6267090  46.8746710  65.4939127  43.4574175  45.9302855  65.8094692
  44.6131420  46.7377090  65.3257322  43.5365248  47.4449873  66.3225889
  37.0777941  46.7715931  65.4192019  37.1766543  47.7688742  66.0939026
  35.8642054  46.1487389  65.3256702  35.9092140  45.2710581  64.8279190
  34.5954871  46.5223360  65.9682846  34.6012592  47.6122999  65.9612751
  33.3635402  45.8643818  65.3318262  33.7115479  44.9182224  64.9173832
  32.2526312  45.4893398  66.2930107  31.4029527  45.0621033  65.7604504
  32.6015234  44.7245216  66.9868612  31.8172765  46.3576651  66.7875576
  32.8427672  46.6845655  64.0540695  32.0573068  46.1530256  63.5168362
  32.4490809  47.6045465  64.4862127  33.8345933  47.2623444  62.9745150
  34.5923519  47.9010725  63.4283113  34.3033767  46.4389133  62.4357128
  33.3874440  47.9186726  62.2279310  34.7772503  46.1010218  67.4494171
  34.1164470  46.6781807  68.3215189  35.5148387  45.0397062  67.8758478
  35.8942533  44.4913769  67.1172428  35.8000064  44.6568346  69.3032885
  34.8317385  44.5959473  69.8001337  36.4331484  43.2699680  69.4044209
  35.7878375  42.6064968  68.8286781  37.3916221  43.2559729  68.8855457
  36.6156745  42.6224422  70.8215380  37.7740026  42.5141621  71.2994337
  35.6119895  42.0928049  71.4674807  35.6928253  41.5783834  72.3328924
  34.6851850  42.1585941  71.0714960  36.5884185  45.7092810  69.9532270
  36.2713146  46.1137152  71.0782433  37.5497890  46.2511587  69.2066002
  37.8135872  45.7946825  68.3451223  38.4182334  47.4054241  69.6310425
  38.6726332  47.2699451  70.6822443  39.7329688  47.4393082  68.8135433
  39.4814658  47.6150942  67.7676249  40.3568602  48.2902241  69.0870380
  40.6882715  46.2664604  68.9077711  40.6718588  46.0028982  69.9653006
  40.2422380  45.4203129  68.3850956  42.1109772  46.4623260  68.3461761
  42.6896429  47.5737381  68.4624863  42.7670860  45.5723381  67.7760172
  37.8802204  48.8792419  69.5610285  38.3937430  49.7462463  70.2724075
  36.9008207  49.1519499  68.6868668  36.7590356  48.5252285  67.9076290
  36.0107756  50.2947092  68.6397743  36.5041327  51.2417984  68.4212971
  35.0194120  49.9452066  67.4831247  35.5023336  49.7709131  66.5216112
  34.6972370  48.9386368  67.7498198  33.7477350  50.8466339  67.2961903
  33.4402156  51.0884047  68.3135796  34.0418625  51.9631290  66.3964319
  33.1056333  52.4924469  66.2192249  34.7603893  52.6287889  66.8746758
  34.5229268  51.5488291  65.5104113  32.6732540  49.9726534  66.6293573
  31.7649031  50.4441261  66.2542295  33.0536795  49.2783117  65.8801842
  32.2931433  49.3282509  67.4220514  35.3511763  50.5424118  69.9587297
  34.6230912  49.6514606  70.3753710  35.4329991  51.7700577  70.5462456
  36.2754273  52.9187679  70.1172495  35.7451344  53.2346725  69.2188644
  37.2750831  52.5930405  69.8296928  36.2497640  54.0008736  71.2291193
  36.2055206  55.0079012  70.8143425  37.0762992  53.9702320  71.9390488
  34.9278879  53.7563276  71.8748951  34.1180515  54.2317247  71.3214874
  34.8284817  54.1067934  72.9022169  34.7052908  52.2604227  71.7438507
  35.1441765  51.8128347  72.6355600  33.2024121  51.9340420  71.6984320
  32.5273013  52.0244884  70.7295895  32.6816607  51.7362118  72.9005718
  33.3132792  51.8278360  73.6833668  31.3025379  51.3720560  73.1368780
  30.8324742  51.2484121  72.1612501  31.1953664  50.0705290  73.9525557
  30.2466011  49.9297428  74.4703579  31.5118051  48.8428831  73.1655788
  32.5618982  48.8724995  72.8748226  31.1980915  47.9191399  73.6517715
  30.8938813  48.7870407  72.2693872  32.1164918  50.0907135  75.0583410
  31.5882468  49.9839544  75.8527946  30.4536986  52.4121952  73.8274288
  30.8942032  53.0974340  74.7824144  29.3125987  52.7114105  73.3614922
  66.1058903  54.6753693  23.6017919  66.3690472  55.3917837  22.9402781
  65.3318024  55.0461245  24.1341758  65.8704567  53.9064693  22.9906702
  67.3389101  54.4585943  24.4665337  68.2080698  54.4470310  23.8088608
  67.6415634  55.6964254  25.3672767  67.7901936  56.5995455  24.7753453
  66.7915869  55.8239841  26.0376239  68.8775349  55.4170561  26.1882782
  68.8625193  54.4901371  26.7615986  69.7421217  55.2477884  25.5464506
  69.1935682  56.5073967  27.2250199  69.4045305  57.4376535  26.6975546
  68.2795238  56.7084885  27.7837539  70.4520321  56.3361740  28.0217886
  70.3897381  55.4074049  28.5888934  71.3241625  56.3684464  27.3687601
  70.5542946  57.4542570  29.0368485  69.7726679  57.4145031  29.6752620
  71.4301109  57.4408197  29.5397115  70.5090189  58.2797432  28.4566569
  67.1814013  53.1251049  25.1236653  66.3950586  52.9585791  25.9945226
  67.7936935  52.0904922  24.5543361  68.1806469  52.3236799  23.6510158
  67.4706459  50.7198381  25.0017571  66.4149237  50.5052090  24.8359418
  68.3229876  49.5885801  24.2568946  69.3789339  49.7810555  24.4467044
  68.0720282  48.1551218  24.7501683  67.0267344  48.2075977  25.0546551
  68.1865120  47.4480581  23.9285493  68.7764692  47.8921700  25.5392909
  68.1971788  49.5856190  22.6975799  68.4459734  50.5249405  22.2037482
  68.8440418  48.8208485  22.2676945  67.1958065  49.3838167  22.3172712
  67.6485586  50.5084610  26.5227151  66.8388033  49.8100281  27.1124911
  68.6418676  51.1673260  27.1288657  69.4624233  51.6051579  26.7350459
  68.7965012  50.8722401  28.5884213  68.9443827  49.7966480  28.6850238
  69.9979544  51.5684795  29.1543698  70.0420475  51.4481258  30.2368069
  70.9368277  51.3169622  28.6610508  69.8008299  52.9146004  28.9537644
  70.0751829  53.3719587  29.7519827  67.5515318  51.3146973  29.4222951
  67.2225761  50.6387472  30.3848362  66.9573355  52.4954557  29.1720724
  67.3157167  53.0231762  28.3890176  65.6947994  52.9903126  29.7412562
  65.9079742  53.0122232  30.8099842  65.4429531  54.4980049  29.2485213
  65.5850220  54.5342970  28.1684279  64.4406033  54.8659563  29.4676304
  66.4802551  55.4679680  29.8404598  67.4694443  55.1738405  29.4896078
  66.1375523  56.4296341  29.4585490  66.4053822  55.5931950  31.3795853
  67.4973774  55.6558514  32.0057321  65.2918386  55.7855320  31.9804072
  64.4649601  52.2265244  29.3188000  63.6096954  52.0769548  30.1597762
  64.4067049  51.6759920  28.0547500  64.9888706  52.0675850  27.3282242
  63.4090137  50.6838846  27.7390647  62.4228907  51.1322069  27.8602028
  63.6641312  50.2449417  26.3017154  64.6918917  50.0365543  26.0044217
  63.1360435  49.2955685  26.2126994  62.9849768  51.1924314  25.3374648
  62.1536446  51.5838766  25.9237719  63.7774801  51.8702698  25.0203323
  62.2348261  50.7033825  24.1088915  62.3418617  49.5876026  23.6980438
  61.4544773  51.5728807  23.4695292  60.7549572  51.2315512  22.8258920
  61.3734865  52.5563955  23.6845660  63.5002422  49.4617367  28.6844850
  62.5366163  49.2235279  29.3565464  64.6839380  48.8247442  28.8567472
  65.4374981  49.2631674  28.3468103  64.9820328  47.7007294  29.7574806
  64.3457699  46.9004107  29.3796420  66.4529753  47.2335720  29.6066046
  67.1694803  48.0500078  29.5163441  66.7305088  46.7170000  30.5254245
  66.6461468  46.2601089  28.4677482  66.3086987  46.7440844  27.5512338
  68.0623436  45.8130074  28.4413171  68.6526775  46.7087603  28.2483506
  68.2692766  45.3794384  29.4197297  68.1808662  45.0864744  27.6374507
  65.9111452  44.9124479  28.6878347  64.8689318  45.0878286  28.4211278
  66.2743378  44.1165209  28.0376887  66.0076809  44.5044470  29.6939754
  64.5843601  48.0396509  31.1688471  64.1167593  47.1135759  31.8680334
  64.9772882  49.2568922  31.6051793  65.5339146  49.8552036  31.0116363
  64.6966600  49.7065067  33.0342817  64.9278545  48.9156294  33.7478375
  65.6887722  50.8764601  33.3209395  66.7039299  50.4998922  33.1954575
  65.4381371  51.6981840  32.6500821  65.5055475  51.3505220  34.8000860
  64.5065260  51.7619753  34.9441791  65.5339956  50.5077934  35.4908085
  66.6187000  52.3692465  35.1172996  66.6665077  52.5022507  36.1980987
  67.5458479  51.8901062  34.8027897  66.4187908  53.7690163  34.4773126
  66.1260986  53.6066580  33.4399748  65.5128384  54.1698599  34.9319196
  67.5194883  54.6511841  34.6426630  67.5983667  55.0400496  35.5714607
  68.4123230  54.1857862  34.5629692  67.5002384  55.4875231  34.0767431
  63.2256746  49.9561167  33.2832789  62.6661825  49.5662928  34.3326092
  62.4679136  50.5633402  32.3530936  62.8045082  50.9007645  31.4626169
  60.9907341  50.5529594  32.3676443  60.5321693  51.1073828  33.1864476
  60.5624390  51.3295031  31.0930395  61.0357332  52.3044920  31.2092090
  60.8881092  50.8057785  30.1942897  58.7446880  51.5656757  31.0486722
  58.4277773  52.2711468  32.1380639  60.4593897  49.0723944  32.3511505
  59.8061085  48.7600136  33.3449459  60.8025122  48.1722403  31.4408088
  61.3908720  48.6007452  30.7405853  60.3493738  46.7488146  31.3789344
  59.2688179  46.8270445  31.2590265  60.9826374  46.0385084  30.1932597
  62.0338106  45.8427811  30.4049897  60.5474424  45.0395918  30.1635098
  60.6624365  46.7788839  28.4809422  61.2429190  47.9536009  28.7416673
  60.5523920  46.0413218  32.7381039  59.6602821  45.3080750  33.1947684
  61.7517042  46.2973690  33.3812094  62.2602987  47.1176243  33.0835319
  62.1154976  45.7698250  34.6924639  62.0382404  44.6825838  34.6988392
  63.5155439  46.1887693  35.0521469  64.2589426  45.7155848  34.4106221
  63.5152817  47.2684526  34.9025369  63.7406158  45.9005547  36.4143419
  63.6869812  46.7299128  36.8948531  61.1072922  46.1651087  35.7393408
  60.5084896  45.3049231  36.3538337  60.6656027  47.4654055  35.8359385
  61.1791039  48.0981636  35.2392530  59.7159719  47.9951906  36.8193221
  60.0624943  47.7707100  37.8280997  59.7007036  49.0829945  36.8868065
  58.3837461  47.4050617  36.6071105  57.7548599  46.9060707  37.5356746
  57.9962444  47.3308182  35.3180790  58.7135077  47.6434517  34.6794105
  56.7505455  46.6764355  34.8282647  55.8650017  47.2318506  35.1372004
  56.6597605  46.6894007  33.2740736  57.5415564  46.2642336  32.7947354
  55.4588318  45.8719254  32.7536535  54.5256615  46.2857914  33.1357741
  55.3429842  46.0304117  31.6814733  55.5290318  44.8086405  32.9829812
  56.4922142  48.1177473  32.8554940  55.5266237  48.4681416  33.2201314
  57.2760201  48.7013626  33.3383441  56.6553783  48.4965706  31.3320231
  57.6451206  48.1689405  31.0139585  55.9033346  47.9595852  30.7539392
  56.5271235  49.5759869  31.2513471  56.5965033  45.2666044  35.3202868
  55.5638981  44.9308586  35.8268738  57.5983858  44.3948412  35.1588035
  58.3829403  44.6240091  34.5654559  57.4656677  43.1381321  35.7562280
  56.4944935  42.6780796  35.5738258  58.4958553  42.1697569  35.1849914
  58.7897825  42.4380922  34.1702461  59.3708181  42.2259665  35.8325839
  58.1527185  40.6860352  35.0892949  57.8464937  40.2581501  36.0438871
  57.0681047  40.3647089  34.1090322  56.0843420  40.5790329  34.5266104
  57.2852898  41.0630417  33.3007812  57.0784760  39.3161511  33.8115072
  59.3910694  39.8678851  34.6725512  60.1692104  40.0586081  35.4116130
  59.0832663  38.8393950  34.8611331  59.7027588  40.1258612  33.6604238
  57.5513029  43.1619358  37.2412133  56.8388700  42.4359274  37.8216243
  58.3779335  43.9589119  37.8836393  58.9666128  44.5792103  37.3462486
  58.5338545  44.0442371  39.3948150  58.7095976  43.0310011  39.7561598
  59.8048592  44.7941637  39.7534394  59.9566889  45.6481647  39.0933418
  59.7088957  45.3610945  40.6794405  61.0956669  43.8788271  39.7402668
  61.0416412  43.2182312  40.6055975  61.0306263  43.3064699  38.8149166
  62.2975206  44.8054075  39.8055196  62.1417761  45.3491783  38.8737702
  62.2467756  45.4668570  40.6703949  63.7112951  44.1266870  39.7951531
  63.9442635  43.8027620  40.8095026  63.5937929  43.3174753  39.0744066
  64.6486759  45.1702881  39.3541861  64.5997095  45.9573221  39.9852777
  65.5695677  44.7583055  39.3058538  64.5418549  45.6148481  38.4536004
  57.3086834  44.4381857  40.1064682  57.1361637  44.0484428  41.2932062
  56.5437031  45.2900600  39.5156884  56.8481016  45.7488775  38.6689734
  55.2005053  45.5806589  40.0058842  55.2324200  45.9574175  41.0282087
  54.5897198  46.7813063  39.2785883  55.2362776  47.6325846  39.4916201
  54.6148872  46.6369057  38.1984878  53.0957985  47.0337534  39.5458937
  52.5461435  46.4328337  38.8214111  52.9676199  46.7764759  40.5973101
  52.6392031  48.4868574  39.4570422  51.5132523  48.7960052  39.9106383
  53.2696676  49.2932796  38.7334824  54.3303204  44.3912649  39.8899221
  53.5864925  44.0954781  40.8504868  54.3681288  43.5759783  38.8300204
  54.9557018  43.8632822  38.0604029  53.4302473  42.4904633  38.6543536
  52.3900366  42.7953243  38.7689304  53.5145903  42.1569395  37.1387291
  54.5223665  42.0066309  36.7515612  52.9283333  41.2431192  37.0421076
  52.7288961  43.2610416  36.3682389  51.6797781  43.2547903  36.6639066
  53.1011486  44.2560577  36.6121054  52.9341698  43.1847525  34.5489430
  53.0365467  41.4298248  34.1653943  52.1725988  40.8338690  34.4595671
  53.0191517  41.3393164  33.0792975  53.9275122  40.9463692  34.5660853
  53.7285089  41.2433767  39.5921135  52.8773975  40.5537367  40.1160431
  54.9724579  41.1734295  40.1367569  55.6295824  41.8752384  39.8273230
  55.4094887  40.3746510  41.3162994  55.0007582  39.3641901  41.3127327
  56.9697571  40.0775146  41.2873411  57.5670719  40.9890604  41.3073969
  57.2236633  39.6263719  42.2465611  57.4440241  39.1690898  40.1498413
  58.4522152  39.5959783  39.2921543  58.7910604  40.6105995  39.1434050
  59.0936184  38.6830139  38.4220743  59.8001099  39.0430427  37.6888275
  58.8125134  37.3233223  38.4760022  59.3396091  36.6982126  37.7704477
  57.7444410  36.8730807  39.3267131  57.4830723  35.8261251  39.2823076
  57.1007347  37.7677321  40.1812983  56.3877630  37.3258996  40.8616304
  55.0410700  40.9641695  42.6994705  55.2837896  40.2742004  43.7076902
  54.4910765  42.1649504  42.7231598  54.1878033  42.6070213  41.8671799
  54.3553400  42.9317188  43.9358711  55.3291178  42.8974581  44.4244242
  53.9377069  44.4049597  43.6315632  54.7272110  44.8549032  43.0296230
  52.9312706  44.3188715  43.2219553  53.8700151  44.9743795  44.5585394
  53.3203459  42.3551321  44.8828554  52.2194290  41.9812202  44.4438362
  53.4635019  42.5280190  46.2359571  54.2179871  43.1412983  46.5093422
  52.3851204  42.3819351  47.2343302  52.1379137  41.3250589  47.3343611
  52.7890921  42.8682280  48.6771822  53.1918287  43.8721323  48.8116550
  51.9000912  42.7486181  49.2964268  53.8403606  41.8601179  49.0791035
  53.4389019  40.8471870  49.0490818  54.7802973  41.9876623  48.5421228
  54.1979885  42.0542860  50.5850554  53.2953596  41.8925524  51.1742926
  54.8545551  41.2194395  50.8301306  54.8609924  43.3024025  50.9284973
  55.9322453  43.1228113  50.8375454  54.6683693  44.1434050  50.2623796
  54.5982218  43.6254978  52.3142672  54.9660921  44.5511341  52.4815178
  53.6089277  43.7097406  52.4994802  54.9257421  42.9126835  52.9504442
  51.0214663  42.9622507  46.8176270  50.0283766  42.2848701  46.8056679
  50.9064198  44.2394733  46.3244820  51.6920519  44.8711443  46.3867235
  49.7167110  44.9190712  45.7314825  48.9835501  45.1220226  46.5121222
  50.1179123  46.1872768  44.9934101  50.6350517  46.7478466  45.7721472
  50.7400846  45.7929087  44.1900015  48.9357662  47.0705938  44.4884586
  48.5340405  46.6566038  43.5636234  48.1667042  47.0663166  45.2608728
  49.4783115  48.4858465  44.1065168  50.0996876  48.8408661  44.9286842
  50.1957941  48.3471394  43.2977581  48.2924986  49.4235373  43.7730885
  47.6846457  49.0327883  42.9570341  47.6514435  49.4593525  44.6539211
  48.8366985  50.7919121  43.4428215  49.1897297  51.3254404  44.2243719
  49.5587683  50.7449913  42.7381754  48.0972910  51.3878298  43.0989408
  48.9845276  44.0573835  44.7231293  47.7684259  44.0976238  44.6739912
  49.6578836  43.3775806  43.7845898  50.6557751  43.2445860  43.8660479
  48.9664316  42.6206493  42.7219009  47.9061317  42.8403044  42.5969458
  49.5524693  42.9143763  41.3416529  50.6095648  42.6955891  41.4925861
  49.1895914  42.3197269  40.5033064  49.5880079  44.3535185  40.9160137
  48.5005808  45.0442171  40.5000305  48.7606239  46.3215637  40.4579592
  48.0570889  47.0743322  40.1342583  50.0908804  46.4487028  40.7134819
  50.6667328  47.2526836  40.5082703  50.6716156  45.2347136  41.0692549
  51.6256189  44.9763966  41.5046310  48.9703989  41.1180210  42.9997063
  48.3881664  40.3807068  42.2274399  49.6630192  40.6122112  44.0215397
  50.1460266  41.2162399  44.6711206  50.0247240  39.1608596  44.2189932
  50.6004906  38.7948561  43.3689117  51.0225487  39.0312338  45.4469585
  51.9322681  39.6182418  45.3206968  50.4512167  39.4727015  46.2635279
  51.3555098  38.0074024  45.6172800  48.7626123  38.2500529  44.2536116
  48.9384604  37.1284270  43.8877153  47.6082325  38.7487411  44.6926832
  47.6721048  39.7280121  44.9315262  46.4275074  37.9456162  44.9631643
  46.6778660  36.9984221  45.4409170  45.4783058  38.8251066  45.8597803
  44.5060778  38.3508420  45.7258320  45.8233786  38.8747883  46.8925238
  45.3627729  39.8341942  45.4641867  45.7538557  37.4525571  43.6626530
  45.0563860  36.4933324  43.7436104  46.1764336  38.0443144  42.5273275
  46.7978573  38.8253450  42.6820230  45.7223368  37.7035809  41.1235428
  45.2508497  36.7208362  41.1270857  44.7430515  38.7621713  40.5320120
  44.4658661  38.5086584  39.5087814  43.8135815  38.6197281  41.0832787
  45.1490688  40.2328587  40.7927132  45.7531404  40.9977102  39.7584558
  46.0222244  40.5813408  38.7989593  45.9739208  42.3913383  39.9330568
  46.3121080  42.9653645  39.0830421  45.6375933  42.9590130  41.1969137
  45.8273792  44.2721272  41.3372755  46.7594862  44.4118166  41.1548901
  44.9440813  42.1970177  42.1531010  44.6391344  42.6376581  43.0907822
  44.7703695  40.7824421  42.0175171  44.2302752  40.2354002  42.7760983
  46.9794464  37.5387454  40.2865648  46.9447851  36.7633414  39.3177700
  48.1440210  38.1022573  40.6937361  48.1440783  38.9683318  41.2133646
  49.4389820  37.8014326  39.9157572  49.2929125  37.8565454  38.8369942
  50.3937769  38.8784456  40.2574444  50.6637383  38.8128853  41.3114500
  51.2269020  38.7875199  39.5604920  49.9812317  39.8328114  39.9301958
  50.0963831  36.4549375  40.2046633  50.8479071  35.9543848  39.3896699
  49.8399687  35.8166003  41.3865376  49.3166542  36.3855600  42.0365572
  50.6140184  34.6603775  41.8447208  51.6360331  35.0389004  41.8269062
  50.2994061  34.1989517  43.3068514  51.2023258  33.6198854  43.5005522
  50.2837467  35.0820208  43.9456367  49.0544176  33.3612585  43.4186697
  47.8940821  33.8265347  43.8108873  47.7012014  34.8830724  43.9245749
  46.9287729  32.8541231  43.8142061  45.9471226  33.0667806  43.9202499
  47.3226547  31.6793466  43.3676338  46.6275597  30.4491544  43.2822657
  45.5706310  30.3713322  43.4902334  47.3999786  29.3468237  42.8775072
  46.9512415  28.3644724  42.8729630  48.7861156  29.5669317  42.5281096
  49.2953062  28.6583161  42.2425461  49.3886518  30.8149958  42.5682974
  50.4502201  30.9144735  42.3963070  48.6772251  31.8855858  43.0746365
  50.6629705  33.4646940  40.8352900  51.6610765  32.7621555  40.9201050
  49.5956993  33.1448007  39.9864721  48.2285643  33.6776042  39.9038386
  48.3068085  34.4732785  39.1629744  47.8344584  33.9948940  40.8692980
  47.3901463  32.5305581  39.4173932  46.5245962  32.8767705  38.8525414
  46.9190216  32.0319724  40.2644777  48.2754421  31.7406821  38.4364939
  48.4112453  32.2206283  37.4673152  48.0589104  30.6780887  38.5465360
  49.6307611  31.8929935  39.1909432  49.7347879  31.0569310  39.8825169
  50.8024788  31.8520069  38.1490850  51.4055490  30.7869411  37.9886150
  51.1625910  33.0136633  37.6663971  50.5122805  33.7732768  37.8084707
  52.0860863  33.2074761  36.6138816  52.1930742  32.2369242  36.1294341
  51.5144157  34.1211271  35.4900026  51.8341970  35.1507211  35.6505561
  51.8783140  33.7966156  34.5151353  50.0580072  34.1608620  35.3481507
  49.3121862  33.0943060  34.9073982  49.7417927  32.2200418  34.4410300
  47.8883934  33.1697536  34.8587537  47.3324633  32.3648500  34.4010782
  47.2320175  34.3165779  35.3768253  46.1583996  34.3782640  35.4765320
  47.9693031  35.4045963  35.7957244  47.5258017  36.3023829  36.2003064
  49.3946218  35.3021479  35.7402849  50.0122547  36.1461973  36.0095644
  53.5291767  33.5322380  37.0549273  54.4036102  33.7159681  36.1756325
  53.8710022  33.4626102  38.3202982  53.1211233  33.4041095  38.9943624
  55.2918243  33.3900928  38.8092971  55.8115149  34.2344642  38.3564639
  55.2240086  33.5727358  40.3598213  54.6425676  32.7151394  40.6982899
  56.2369156  33.4845781  40.7526827  54.6443319  34.8365378  40.8324528
  54.4406080  34.9631286  42.2219610  54.6964169  34.1731572  42.9125500
  53.7754011  36.1224246  42.6470804  53.3911276  36.1749887  43.6550331
  53.5074711  37.1742296  41.8179369  52.8656244  38.2723522  42.2961092
  52.7493095  38.8674498  41.5518379  53.9475584  37.1448565  40.4863167
  53.6621618  37.9239106  39.7949219  54.4042969  35.9154630  39.9620152
  54.6961498  35.9867477  38.9246440  56.1497641  32.2158742  38.3171153
  57.4012995  32.2732210  38.3740687  55.5514240  31.0850739  37.8594875
  54.6033621  31.2782979  37.5697589  56.1670208  29.7576666  37.4854517
  57.1959066  29.9512720  37.1821189  56.0183954  28.8819838  38.7325311
  54.9725866  28.8847065  39.0397429  56.3251114  27.8699708  38.4682298
  56.8466806  29.3283987  39.8959851  57.8551340  29.3738937  39.4848347
  56.5718412  30.2960896  40.3156710  57.0540571  28.3747721  41.0751867
  57.7623463  28.8298273  41.7675400  56.1928320  28.3902669  41.7431355
  57.4932575  26.9584203  40.6540871  56.7168760  26.3760066  40.1579714
  58.3523750  27.0047140  39.9848533  58.0043125  26.0309386  41.7595196
  58.7562418  26.4363360  42.2983742  57.1736622  25.7811832  42.2769594
  58.3377266  25.1755428  41.3385344  55.4211807  29.1359448  36.3124681
  54.2651463  29.5382953  35.9762931  56.0187149  28.2976794  35.5323005
  57.3183107  27.6957297  35.7286787  57.4977589  27.6317811  36.8019032
  58.0528927  28.3436155  35.2504134  57.3258400  26.4240217  34.9863744
  57.2492886  25.5664253  35.6547832  58.2952070  26.3363028  34.4957328
  56.1816120  26.6071010  33.9056683  55.8118582  25.6516790  33.5334373
  56.5516567  27.1917868  33.0634642  55.2035713  27.5079155  34.5797205
  54.7530842  28.1758857  33.8455701  54.1527033  26.6074228  35.3025079
  54.3881798  26.4009380  36.5068030  53.0940247  26.1569190  34.7075391
  52.9246187  26.4049315  33.7432313  52.0990896  25.2086234  35.3622580
  51.7347813  25.7646871  36.2260723  50.9019756  24.9354267  34.3764734
  51.3160515  24.6239042  33.4175181  49.9276781  23.7842607  34.8473215
  50.3526163  22.7952600  34.6758461  49.6289349  23.9334941  35.8849096
  49.0258360  23.8888431  34.2441249  50.0654316  26.1644149  34.0777612
  50.5603838  27.1050787  33.8363576  49.3685770  25.8967519  33.2834983
  49.4142962  26.3234830  34.9373102  52.7374315  23.9861512  36.0035515
  53.5470915  23.2634926  35.3371930  52.4050331  23.6431479  37.2495365
  51.8653727  24.3122387  37.7798033  52.7134609  22.3574567  37.8470469
  53.6060858  21.9718122  37.3544979  53.0262852  22.4708748  39.4622993
  53.8921976  23.1173849  39.6048403  52.1553230  22.9103661  39.9484801
  53.0448008  21.1317372  40.1227427  52.6674747  21.0150385  41.3122416
  53.6655235  20.1599789  39.5366836  51.5316343  21.4014888  37.5393867
  50.5001831  21.5916038  38.1223726  51.5977430  20.5707550  36.4789200
  52.4489498  20.5483317  35.9357381  50.4568434  19.9165618  35.8115745
  49.7319841  20.6515574  35.4616332  50.8443451  19.0652370  34.6155095
  50.0375748  18.4783888  34.1763806  51.3846445  19.9634039  33.4487057
  52.1664381  20.6183171  33.8334036  51.7782974  19.3165052  32.6647019
  50.5455637  20.5737543  33.1147647  51.9734621  18.0964744  34.9587727
  51.9436359  17.5374520  35.8940291  51.9725323  17.3926127  34.1264987
  52.9259586  18.6023104  34.8007178  49.6725559  18.9891958  36.8369436
  48.4630346  18.9876175  36.7868352  50.3006649  18.3267367  37.8212166
  51.2990808  18.4573817  37.8999448  49.6771145  17.3327041  38.7269807
  49.0404224  16.6627944  38.1490970  50.9370470  16.5443254  39.2254877
  51.5698910  16.2233353  38.3980942  51.6017294  17.1244311  39.8656249
  50.4981470  15.3205860  39.9682975  51.4115143  14.8068094  40.2681208
  50.0518560  15.5883884  40.9260130  49.5443249  14.4408131  39.1570234
  49.9666643  14.0215790  38.0441737  48.4855366  14.1143286  39.6250916
  48.8693428  17.9550421  39.8374152  47.8184748  17.3938763  40.1458120
  49.3541336  19.1171789  40.3982687  50.2752876  19.4770026  40.1930761
  48.5954618  19.7561967  41.5302801  48.8826132  19.1774583  42.4081755
  49.0653467  21.1710572  41.8417120  48.9328957  21.7733550  40.9429359
  48.3629656  21.5313745  42.5933361  50.1419544  21.1144257  42.0023680
  47.0601845  19.8643553  41.3901329  46.2161303  19.8083007  42.3436356
  46.5504265  20.1187420  40.1355553  47.2383642  20.3730512  39.4411683
  45.1150417  20.2096939  39.7233009  44.4757223  19.8456442  40.5275631
  44.7367811  21.7386365  39.5767474  45.3222656  22.2447848  38.8091993
  43.6673880  21.8720555  39.4133520  45.0079298  22.5500178  40.9010649
  45.9217215  22.1560574  41.3459158  45.2076864  24.0338159  40.5678844
  46.1580801  24.1534090  40.0477457  44.3178511  24.2772913  39.9873471
  45.2033281  24.6537089  41.4644384  43.8265181  22.4047327  41.8375969
  42.9578447  22.9032111  41.4074421  43.5793543  21.3464451  41.9214869
  44.0208197  22.7371621  42.8573227  44.7953224  19.3643224  38.4382057
  43.8510227  19.7280920  37.7806497  45.5467081  18.3069134  38.1164002
  46.3041925  18.0228961  38.7210917  45.3709412  17.5964832  36.8105412
  46.2697649  17.0686340  36.4918065  44.6309805  16.8128967  36.9734812
  45.2062988  18.4787297  35.5384302  44.2971373  18.2987046  34.7296071
  46.1389446  19.3488097  35.2413368  46.8335915  19.5406795  35.9489751
  46.1800623  20.1187110  33.9992809  45.1823902  20.0641894  33.5636473
  46.4830971  21.5937400  34.2858696  47.5500107  21.5948796  34.5090222
  46.4127684  22.1269941  33.3378243  45.7100296  22.2550154  35.4007196
  45.7886934  21.6752005  36.3203549  46.3822699  23.5963607  35.7424212
  45.9188080  23.9827394  36.6501760  47.4240875  23.3755827  35.9747553
  46.3722372  24.2301297  34.8556662  44.2516613  22.5324035  35.1851773
  43.8310528  23.0541444  36.0448146  44.1298676  23.1863189  34.3216610
  43.8420248  21.5319681  35.0457859  47.1170187  19.3050742  32.9922199
  48.0112791  19.8970091  32.3586655  46.8681192  18.0378604  32.8435326
  46.1137390  17.6958930  33.4215212  47.8348875  17.1824253  32.1038318
  48.8626623  17.3517394  32.4249434  47.4333906  15.7197917  32.4702930
  46.4138937  15.5114830  32.1457386  48.0750656  15.1022673  31.8417883
  47.5278378  15.3159618  33.8890862  46.5256119  14.6149671  34.5617819
  47.0566177  14.3702710  35.7506251  46.6071987  13.7612462  36.5210247
  48.3145761  14.7552955  35.8689809  48.9379215  14.4555485  36.6049814
  48.5821342  15.3891170  34.7074175  49.5708656  15.7545710  34.4723511
  47.8951216  17.3636448  30.5678225  48.9255285  17.0560157  29.9671793
  46.9048309  17.9541588  29.9306250  46.1364889  18.3379662  30.4620790
  46.8705845  18.3723140  28.5434866  47.4110222  17.6009405  27.9948401
  45.3975773  18.2978499  28.0266261  45.3864098  18.6345744  26.9900012
  44.9945164  17.2874999  28.0961609  44.4203615  19.1793013  28.8921642
  44.5989990  19.3245149  30.1409578  43.3685017  19.5949888  28.3182168
  47.5490236  19.6565509  28.1674027  47.6041031  20.0119805  27.0093608
  47.9816675  20.3838348  29.1998124  47.9503250  19.9936426  30.1308703
  48.5955381  21.6922402  29.0938973  47.9161596  22.4528837  28.7092352
  49.0452433  22.2148991  30.5021477  48.1931400  22.1592951  31.1795902
  49.8097134  21.5435767  30.8933210  49.5001698  23.6193919  30.5646348
  48.5422516  24.6441412  30.5873966  47.5070810  24.3489408  30.4997659
  48.8770533  25.9819388  30.6387138  48.1596088  26.7709064  30.8096027
  50.2465200  26.3039279  30.6900096  50.7716560  27.5601792  30.7514000
  50.0713491  28.2153583  30.7951140  51.2171936  25.2940488  30.4820156
  52.2724867  25.5204248  30.5209088  50.8057308  23.9413452  30.3029871
  51.6518307  23.3125472  30.0681925  49.8044062  21.6822124  28.1052399
  49.8655891  22.5926161  27.2139168  50.7840490  20.7420897  28.1564498
  50.7268476  19.9874151  28.8252521  51.9836092  20.7354689  27.2913384
  52.3273373  21.7456055  27.0686746  53.1390333  19.9517322  27.9979992
  52.8933334  18.9076102  28.1917548  53.9854288  20.0157213  27.3141694
  53.6926413  20.6340075  29.6052814  52.8036070  20.0186086  30.3900123
  51.6612577  20.0432253  25.8956695  52.4462366  19.9713230  24.9373698
  50.4393625  19.5895767  25.7960939  49.8193836  19.4678640  26.5840721
  49.9525166  19.1272330  24.5030761  50.8146954  18.7298632  23.9674926
  48.9649582  18.0079043  24.5706773  49.3409491  17.1230078  25.0841856
  48.1302500  18.3304656  25.1930261  48.3906412  17.5707805  23.2170272
  47.1643496  17.8441691  23.0512118  49.1601849  17.0198858  22.4060512
  49.3203831  20.2539182  23.6448264  49.6659422  20.4025888  22.4367690
  48.5018206  21.1377406  24.2351270  48.1509113  20.8431816  25.1352382
  47.9289961  22.3708415  23.6886477  47.7494574  22.2507167  22.6202679
  46.5726757  22.6300120  24.3590236  46.7193842  22.8850961  25.4085517
  45.8323431  23.7711358  23.6978650  45.4570627  23.5587239  22.6967931
  44.9523306  24.0532565  24.2758632  46.3938141  24.7006440  23.6037183
  45.6338739  21.3758636  24.2482209  45.1707315  21.2040472  23.2765841
  46.1455202  20.4330850  24.4418383  44.4271564  21.4999676  25.2103519
  43.9228773  20.5336332  25.2096415  44.6351194  21.6635394  26.2677574
  43.7029362  22.2476792  24.8870349  48.8502884  23.5667443  23.5310602
  48.8687944  24.2783856  22.5190783  49.7581911  23.7899661  24.5066953
  49.7393131  23.1876612  25.3172326  50.6181765  24.9760389  24.6168852
  50.1315403  25.8098507  24.1108727  50.8301497  25.4825735  26.0862279
  51.2427998  24.6421504  26.6443706  51.8834305  26.5574908  26.1971068
  51.8341494  27.1192789  27.1298838  52.8763342  26.1577034  25.9911704
  51.7251587  27.3258805  25.4403877  49.4628859  25.7870317  26.8036675
  48.8407087  24.8921204  26.8154120  49.6298838  25.9506559  27.8682971
  48.6393166  26.8713617  26.2090993  48.0248976  27.3219490  26.9885612
  49.2629766  27.6480818  25.7665396  48.0658388  26.4111805  25.4044485
  51.9161797  24.7923946  23.9100146  52.8613281  24.1689658  24.3977809
  51.9923592  25.3824043  22.7482986  51.2376976  25.9467816  22.3848963
  53.1601095  25.2625537  21.8004680  53.4983492  24.2356086  21.9386077
  52.6490879  25.4514432  20.3660297  52.0880890  26.3792968  20.4776788
  53.3941364  25.4175043  19.5711398  51.5329742  24.4684649  20.0588155
  50.7351732  24.7629237  20.7406569  51.2564182  24.6455503  19.0194619
  51.8713951  22.9511547  20.2815580  52.7286386  22.7228737  19.6482146
  52.1341991  22.6182723  21.2856603  50.7148504  21.9670844  19.7773671
  49.7419453  22.0914078  20.2528739  50.5633307  22.0831943  18.7042129
  51.0237408  20.5680513  20.0927448  51.9622993  20.3509688  19.7892964
  50.9275961  20.2825308  21.0567665  50.3318882  20.0071716  19.6164536
  54.2969799  26.2153244  22.1352887  55.4218626  25.9455061  21.7408824
  53.9871645  27.2753310  22.8476501  53.0269766  27.4816465  23.0833793
  55.0342941  28.2611990  23.1821322  56.0206699  27.9740644  22.8178144
  54.8084688  29.5089793  22.2890115  53.8442659  29.9960423  22.4345398
  55.5633116  30.2373028  22.5854182  54.9269438  29.3540764  20.7875633
  54.3566561  30.1628017  19.8480666  54.9358702  29.9553561  18.6524749
  54.6192265  30.3717208  17.7076042  55.8148575  28.9404988  18.7869406
  56.3100100  28.4889436  18.0312788  55.8600664  28.5499406  20.1188684
  56.5860701  27.9195714  20.6107569  54.9260807  28.5939384  24.6380162
  54.0900421  29.4074059  25.1638150  55.6521988  27.8361297  25.4716992
  56.5537930  26.7385697  24.9864984  57.1700478  27.1640348  24.1944718
  56.0693836  25.7921219  24.7463155  57.5940752  26.5298080  26.1152077
  58.5044718  27.1217155  26.0207319  57.7222347  25.4484606  26.1637759
  56.7227459  26.9123411  27.3854589  57.3494387  27.2601986  28.2066488
  56.1983776  26.0754037  27.8466272  55.7855940  28.0365729  26.8937588
  54.7934198  27.9863548  27.3422813  56.2905073  29.4773912  27.3444605
  57.3041010  29.9638915  26.7864752  55.6355429  30.0272250  28.3503628
  54.8169184  29.5790267  28.7364626  56.0221434  31.3325429  28.9916325
  57.1022177  31.2527490  29.1148019  55.7013988  32.4757266  28.0478168
  55.8849669  32.1631885  27.0198441  54.6424389  32.7296090  28.0003786
  56.3635778  33.8434529  28.3538079  55.9363508  34.5904016  27.6847482
  56.1380291  34.1055942  29.3874955  58.1752872  33.7703943  28.1413984
  58.3262110  33.8677764  26.3087988  59.3421125  34.1657424  26.0494542
  58.1053066  32.9155922  25.8264637  57.5601482  34.5401263  25.9225440
  55.4201603  31.6436458  30.2997899  54.2121220  31.4066648  30.5810380
  56.2223434  32.2067332  31.2081861  57.1573973  32.4865770  30.9484315
  55.8570862  32.5702047  32.5997710  54.8443699  32.9658222  32.6771998
  55.9819412  31.3874102  33.5148382  55.4146910  31.5319157  34.4343185
  55.6975985  30.5315542  32.9026532  57.4661350  31.1067533  33.8881302
  58.0443668  30.2948403  33.1423163  57.9862499  31.6338205  34.8737955
  56.7589045  33.7122703  33.1134033  57.7945089  33.9885783  32.5239015
  56.4037037  34.4332933  34.1937470  55.5962515  34.0930247  34.6960855
  57.1755791  35.5974364  34.6746802  57.1814585  36.5041375  34.0697384
  56.3997936  36.2588263  35.7908344  56.3798094  35.6347322  36.6842580
  56.9255018  37.1597838  36.1070681  54.9890947  36.7689919  35.3603601
  55.1034832  37.6180625  34.6864939  54.5441294  35.9519315  34.7924495
  53.8269997  37.3125315  36.5957046  54.7397327  38.7208962  37.2127485
  54.6614742  39.4760227  36.4305973  54.3988514  39.0888691  38.1804800
  55.7689428  38.3687901  37.2823286  58.6030865  35.3381491  35.0829268
  59.3823957  36.2786651  34.9172711  59.0071964  34.1358590  35.4618502
  58.3446980  33.3745694  35.4214501  60.4085207  33.8241100  35.7961512
  60.8038568  34.7716045  36.1622977  60.5752182  32.7613711  36.8468237
  61.6472006  32.7379584  37.0427823  60.0819778  33.0731940  37.7674651
  60.1307774  31.5568066  36.3146544  59.2559767  31.7145801  35.9521222
  61.1735916  33.5411572  34.4809532  62.2919655  34.0216112  34.4798279
  60.6663513  32.9200578  33.4154987  59.8061609  32.4038696  33.5326481
  61.2887287  32.7649570  32.1026826  62.2593307  32.2692704  32.1205592
  60.4096508  32.0260715  31.0305619  59.4184446  32.4708271  31.1189055
  61.0122919  32.0015717  29.6900034  61.9369030  31.4295077  29.6129441
  60.2263212  31.5906978  29.0563321  61.1133814  33.0357742  29.3609047
  60.2393246  30.6658554  31.4033699  59.5117235  30.6992459  32.0287347
  61.6334772  34.1511154  31.5080619  62.7642441  34.4401717  31.0753632
  60.6561136  35.0256062  31.5495181  59.7782660  34.7376895  31.9576716
  60.7229805  36.4289188  31.1481810  61.0653687  36.3615894  30.1155424
  59.3301010  37.1509695  31.2193847  59.0369272  37.2269082  32.2664666
  59.3805456  38.6292076  30.6532145  59.5817137  38.6808348  29.5831823
  58.4142733  39.1027117  30.8270407  60.0711441  39.3323660  31.1187696
  58.1909895  36.4161897  30.5121303  58.3435869  36.7145562  29.4749284
  58.3087683  35.3356647  30.5939484  56.7358160  36.6235518  30.9179688
  56.5118790  37.6900029  30.8928037  56.0236359  36.1150002  30.2681375
  56.6221380  36.2942600  31.9508028  61.7959881  37.2307134  31.9426179
  62.6728058  37.8517962  31.2970781  61.8553257  37.0355082  33.2750750
  61.1392593  36.4679909  33.7055135  62.8425169  37.7383685  34.1414523
  62.8358364  38.7712526  33.7933064  62.4539423  37.6221609  35.6447768
  61.5859890  38.2711434  35.7613015  62.2219658  36.5930915  35.9191823
  63.4828234  38.1951737  36.6863513  63.9179659  39.0801525  36.2220645
  62.9415035  38.5600710  37.5592375  64.5082569  37.1655369  37.0045590
  64.0295458  36.1865687  37.0282030  65.2462244  37.0414019  36.2120366
  65.1791334  37.4542904  38.3940887  65.4116011  38.5190368  38.4133315
  64.4024324  37.4373674  39.1586494  66.2808609  36.5749288  38.8354707
  66.1186647  35.5784011  38.8623929  67.1754217  36.5650415  38.3666801
  66.4996433  36.7416525  39.8072934  64.2199516  37.2111249  33.9313412
  65.1512766  37.9784656  33.8880515  64.4257259  35.9529185  33.7654710
  63.5930395  35.4091668  33.9417672  65.6084394  35.2477455  33.2279992
  66.4304209  35.3431940  33.9374614  65.3885174  33.7709451  33.2017827
  64.6070242  33.5211158  32.4841785  66.3024378  33.2543755  32.9085326
  64.9265623  33.3147669  34.4409823  63.9762449  33.4481049  34.4141221
  66.1524248  35.8652472  31.9325161  67.3595667  36.2569213  31.8310857
  65.2542496  36.0366464  30.9170651  64.3072367  35.8573103  31.2189007
  65.5579138  36.6028619  29.6284413  66.3843870  36.0454869  29.1875601
  64.2699814  36.4991212  28.6659765  63.3182907  36.6615343  29.1719508
  64.4179916  37.2509027  27.8907228  64.1743612  35.1170993  27.9080319
  65.1190186  34.8467708  27.4361825  63.9773941  34.4244528  28.7262893
  63.0636501  35.1179647  26.8951130  62.9439068  34.1070223  26.5055490
  62.1478367  35.3608322  27.4340105  63.3009481  36.0315871  25.7231498
  63.4509754  37.0748234  26.0010886  64.2283297  35.9036207  25.1648593
  62.1510410  35.9076047  24.7843909  61.2864590  36.0375261  25.2900743
  62.1558905  36.5160751  23.9782619  61.9931650  35.0120950  24.3447995
  66.0312223  38.1146336  29.7218561  67.0839262  38.4345841  29.2752385
  65.2923346  38.9665794  30.3687978  64.4702339  38.6134291  30.8373499
  65.5898142  40.3647184  30.7407475  65.7896900  40.9058952  29.8159313
  64.3068409  40.8886814  31.3407207  63.4927464  40.4255247  30.7831955
  64.1485405  40.6043434  32.3810053  63.9256525  42.4120760  31.0761690
  64.2265987  42.4687862  30.0300741  62.4698639  42.7562428  31.3807392
  61.7531395  42.1414328  30.8363032  62.2824907  42.6025581  32.4434566
  62.1920013  43.7467623  31.0204887  64.8205185  43.2901382  31.9404411
  64.4770193  44.3180323  31.8240309  64.5488071  43.0885220  32.9765987
  65.8834314  43.2606649  31.7007494  66.8982220  40.4840040  31.5665078
  67.7193642  41.3703823  31.4108992  67.0384693  39.5573044  32.4581766
  66.2937927  38.8844156  32.5712132  68.1809044  39.4820690  33.3606958
  68.2251453  40.5084229  33.7250471  67.9331017  38.5957789  34.6462798
  67.1684599  39.1253519  35.2145863  67.5278664  37.6439786  34.3028164
  69.1903734  38.4101319  35.5451012  68.8695002  38.0323529  36.5158892
  69.8623276  37.6948905  35.0707507  69.9604607  39.6764517  35.8255219
  69.4209623  40.8307123  35.8486533  71.1755037  39.5298338  36.0696173
  69.4583702  39.1070867  32.6253796  70.5905294  39.5096874  32.9851437
  69.3506956  38.2182550  31.6084695  68.4466648  37.9262614  31.2655711
  70.4643440  37.9503012  30.6141925  71.4718914  38.0408335  31.0200882
  70.3302336  36.4290667  30.2137113  69.6107960  36.3499594  29.3986940
  71.2605906  36.0741305  29.7703576  70.1346731  35.8366394  31.1075163
  70.4716682  38.9707708  29.4737911  71.2415075  38.6886311  28.4970641
  69.7184849  40.0601053  29.5734358  69.1365337  40.1222801  30.3965807
  69.9059439  41.2310982  28.6424136  69.1504574  41.9836044  28.8684344
  71.3262463  41.8688726  28.8266659  71.6946363  41.8527460  29.8523998
  71.9962358  41.2285423  28.2529187  71.3409948  43.3781147  28.2991266
  71.4938211  43.4388876  27.2216058  70.3840828  43.8419580  28.5384297
  72.5192976  44.1346884  28.8967013  72.8558636  43.9287615  29.9127817
  73.3700752  43.9317274  28.2462406  72.1518373  45.5763006  28.7716055
  72.3808908  46.0018110  27.8847098  71.5087318  46.3984346  29.5114446
  70.8508968  46.0248661  30.5661464  70.7354069  45.0664997  30.8632851
  70.4874706  46.7376995  31.1825013  71.4593077  47.6377392  29.2132425
  71.9038534  47.8856993  28.3408904  71.0174704  48.2481623  29.8857474
  69.5901918  40.8705282  27.1602869  69.7798252  41.5851068  26.2214136
  68.7789488  39.8430276  27.0357728  68.4479570  39.4850945  27.9203224
  68.1486225  39.3090153  25.8437395  68.9542770  38.9370322  25.2107692
  67.3471308  37.9986453  26.3273525  67.9465389  37.4346137  27.0419717
  66.5119171  38.4462476  26.8660235  66.8824434  37.0873976  25.2224588
  66.3163519  36.2580848  25.6465840  66.1402893  37.5914288  24.6033669
  67.9757118  36.5255976  24.2906737  68.9895201  35.9827924  24.8558140
  67.7424049  36.5276122  23.0381846  67.2701216  40.2358580  25.0321770
  67.4091959  40.1631308  23.7787652  66.3520336  41.0866117  25.5698633
  66.3604116  41.1478186  26.5779710  65.4328966  41.9059181  24.8649406
  64.9505377  41.3520718  24.0595269  64.3048716  42.3308992  25.8325529
  64.8175240  42.6411057  26.7430806  63.7036943  43.1449461  25.4275680
  63.4946108  41.0738277  26.2111187  62.6447058  40.3782415  25.2730346
  62.7223921  40.6564951  24.2323899  61.8078947  39.3153167  25.6090522
  61.2853193  38.7532496  24.8491859  61.6760778  38.9411545  26.9589186
  60.7826710  38.0131030  27.3548126  60.3640509  37.6362300  26.5774298
  62.5149107  39.5839381  27.9003882  62.4423599  39.2486405  28.9244580
  63.4534121  40.6312656  27.5008893  64.1638374  41.0553408  28.1950545
  66.1778450  43.1314325  24.4023347  66.5550756  43.8996315  25.3059673
  66.3225126  43.3681440  23.0994129  65.9492397  42.6494169  22.4959254
  66.8807125  44.4866180  22.4039054  67.7440739  44.9537468  22.8777218
  67.5105095  44.0184259  21.0801148  66.8071222  43.5336113  20.4031324
  67.9060888  44.8999119  20.5755401  68.7399960  43.1796312  21.3997984
  69.5256853  43.6998177  21.9477034  68.5622168  42.3909569  22.1308804
  69.2686701  42.4854755  20.1683354  68.4324074  41.8750906  19.8274529
  69.5838451  43.2390738  19.4466376  70.3031349  41.4619970  20.3544998
  71.2513304  41.8015480  20.2787948  70.2252245  40.1438236  20.4963875
  69.1549253  39.4494510  20.3762722  68.3563375  39.9890900  20.0743461
  69.2273760  38.4723544  20.1310515  71.2839127  39.4303393  20.5841708
  72.1746778  39.8909116  20.4637170  71.3032055  38.4232140  20.6577992
  65.8063173  45.6102943  22.1601629  66.1870289  46.7716312  21.9247913
  64.4961119  45.3305960  22.2642326  64.2562580  44.3520832  22.1930027
  63.3441591  46.2156820  22.1747851  63.7093735  47.2213840  22.3828697
  62.7000761  46.2364626  20.7677865  63.5192156  46.1767197  20.0511742
  61.9425631  45.4640627  20.6348515  62.0469332  47.5412989  20.5074525
  62.6135302  48.3527517  19.7310698  60.9578180  47.8815794  21.0083437
  62.2640228  45.8810425  23.3016181  62.0234203  44.7121859  23.6213064
  61.5819645  46.9064665  23.7512970  61.8079519  47.7833462  23.3039570
  60.3278828  46.8022442  24.4665527  60.4599285  46.3999319  25.4709458
  59.7902679  48.1799364  24.7002196  60.4986000  48.6059189  25.4107881
  59.7678137  48.6619663  23.7228513  58.7432051  48.1588793  25.0024080
  59.2775774  45.8963823  23.7645435  58.6376667  45.0933790  24.4653058
  59.1212511  46.0972595  22.4655700  59.6430635  46.8612337  22.0604062
  58.2276773  45.3146172  21.5734935  57.2043800  45.4115295  21.9362402
  58.3799410  45.9660292  20.1315570  59.3839216  45.9342623  19.7083330
  57.7486181  45.3821230  19.4617891  58.0065775  47.4081326  19.8795986
  56.9187355  47.4742174  19.8980379  58.4397078  48.0398941  20.6550813
  58.4260178  47.7989864  18.4115052  57.6672316  47.7436495  17.4595296
  59.6558809  48.2147408  18.2168686  59.8785067  48.4043646  17.2501326
  60.3246880  48.3197498  18.9663923  58.5728168  43.7941599  21.5472364
  57.7600479  42.9441023  21.2544489  59.7955608  43.4682131  21.8728089
  60.4344940  44.2108250  22.1185565  60.2128363  42.0888996  22.1052241
  59.6817017  41.4886570  21.3665080  61.6822529  41.9041348  21.9070363
  62.1842337  42.4744225  22.6886296  61.9000196  40.8661699  22.1586537
  62.1765280  42.3014069  20.5279398  61.5305853  41.9601393  19.7189915
  62.2249460  43.3845806  20.4161525  63.6418867  41.6974068  20.3380942
  64.4412661  41.7459536  21.3116980  63.9947987  41.1363173  19.2222500
  59.6370029  41.5860987  23.4010601  58.8825750  40.6137180  23.4051490
  59.8964262  42.2292805  24.5073986  60.4947233  43.0403137  24.4413376
  59.2806292  41.8317461  25.8119869  59.5983410  40.7941294  25.9145403
  59.8853302  42.7135277  26.9590473  60.6932449  42.0784998  27.3225307
  60.1595640  43.6934710  26.5684009  59.1032314  42.9822540  28.2637715
  58.1602097  44.0211964  28.3259225  58.0852509  44.6104765  27.4239612
  57.4369049  44.1640377  29.5089793  56.7512131  44.9984407  29.5092010
  57.7789354  43.5103273  30.7018995  57.2385263  43.7494040  31.6058969
  58.8230276  42.5441742  30.6447101  59.0837336  41.8469477  31.4272094
  59.3983221  42.2285604  29.4026685  60.2157736  41.5239334  29.3615246
  57.7403355  41.9101238  25.8347797  57.1431589  40.9064198  26.2404060
  57.0938587  42.9828358  25.4548812  57.6594448  43.6570406  24.9592400
  55.6347179  42.9798698  25.3951550  55.2318954  42.9707384  26.4079499
  55.1259995  43.8145494  24.9128532  54.9509478  41.8294334  24.6510673
  54.1205406  41.1679745  25.2304792  55.4546928  41.4338589  23.4377670
  56.0214281  42.1564436  23.0173135  55.1640415  40.2090120  22.7241445
  54.1169071  40.3021479  22.4361563  55.8383226  40.0599861  21.3588619
  55.8312893  40.9970379  20.8020878  56.8696165  39.7476482  21.5231085
  55.3532600  39.2539382  20.8083200  55.1914930  38.9206862  23.5906816
  54.3656206  37.9858637  23.3082366  56.0305738  38.7997341  24.6060967
  56.7311478  39.5083690  24.7708225  56.1172628  37.6791620  25.4642987
  55.9085178  36.7858791  24.8755908  57.5812387  37.5510001  26.0456347
  58.0021000  38.5351324  26.2516904  57.5950432  36.9863605  26.9778895
  58.5226679  36.8610477  25.0453877  58.0888605  36.2680650  23.9976788
  59.7280121  36.8656135  25.3893042  55.1490021  37.7565312  26.6592932
  54.5468330  36.7725825  27.0152950  54.9863148  38.8910675  27.2535038
  55.6001377  39.6612167  27.0294762  53.9982748  39.0764809  28.3012772
  54.1286087  38.2959294  29.0508437  54.2226553  40.4556990  28.8718319
  54.1778898  41.0888147  27.9856801  53.0288172  40.8366919  29.7934508
  52.6834917  40.0307417  30.4409766  53.4711838  41.4997101  30.5369735
  52.2274065  41.4081383  29.3251681  55.5506134  40.5764627  29.5902109
  55.6132078  39.8663616  30.4148030  56.3660622  40.4930878  28.8717437
  55.7864809  41.5771008  29.9524045  52.5863695  38.9586687  27.7459216
  51.7663145  38.4628558  28.4741855  52.3908234  39.2849636  26.4399076
  53.1625605  39.7843122  26.0213661  51.2197924  39.0014815  25.6371617
  50.3811979  39.1482449  26.3178420  51.2322760  39.9316525  24.4449949
  52.2458935  39.8869228  24.0466309  50.5371761  39.5049834  23.7218857
  50.9859753  41.3334656  24.9700332  50.1068401  41.3817120  25.6125975
  51.8552113  41.6607380  25.5404973  50.9490681  42.2734451  23.7958384
  51.8313837  42.1628046  23.1654572  50.1508379  41.9563675  23.1247282
  50.4698038  43.6544323  24.1979361  49.8973036  43.6568356  25.0300050
  50.7930040  44.8366022  23.7048841  51.5038681  44.9479532  22.6139975
  51.8043900  44.0709257  22.2132373  51.7059898  45.8843517  22.2939920
  50.3868914  45.9895515  24.1776037  49.9505615  46.1109209  25.0803733
  50.7157040  46.8487263  23.7607193  51.0872173  37.4941754  25.4139137
  50.0036573  36.9762850  25.6537271  52.1590853  36.7490482  25.0119448
  52.9800367  37.3295116  24.9160600  52.1724844  35.3085828  24.8913693
  51.4202595  35.0854683  24.1347432  53.5641336  34.7855544  24.4636130
  53.7439108  35.1733136  23.4609056  54.3170023  35.1365995  25.1693392
  53.6476564  33.2768440  24.4229078  53.3517742  32.8578806  25.3846884
  52.6740885  32.5993752  23.4528065  52.7252102  31.5107536  23.4724808
  51.6280603  32.7998829  23.6845851  52.9396677  32.8825927  22.4343014
  55.1096630  32.7726007  24.0616751  55.7514524  33.3061194  24.7627974
  55.3208303  31.7337084  24.3150759  55.3624821  33.0188298  23.0303884
  51.7174339  34.6063089  26.2473559  50.8878231  33.6788106  26.3739419
  52.3270893  35.1122022  27.2950530  53.0149508  35.8416820  27.1733785
  51.9071293  34.7371197  28.5910606  52.1385670  33.6848187  28.7559795
  52.8384209  35.4829764  29.5337892  53.8998127  35.4219651  29.2932868
  52.6955175  36.5631056  29.5021629  52.7485991  34.8777246  30.9401250
  51.7740774  34.4733763  31.2138247  53.3673811  33.9830184  31.0088110
  53.2770395  35.8766007  32.3424482  52.0047760  37.0974422  32.5511813
  50.9751797  36.7600489  32.4319911  51.9968653  37.5744820  33.5312176
  52.1679544  37.7813601  31.7182755  50.4333639  34.9840021  28.9631915
  49.7187757  34.0703773  29.3838859  49.8666334  36.1420226  28.8123536
  50.5334616  36.8572426  28.5595584  48.4159040  36.2989044  28.9739823
  48.1504631  36.0199809  29.9937081  47.9107332  37.7384925  28.7625623
  48.3909655  38.0492568  27.8347135  46.8219137  37.6926017  28.7410426
  48.2139349  38.6610389  29.9278712  47.5513792  38.4472847  31.1922073
  46.9219017  37.5732732  31.2713504  47.8859043  39.2441297  32.2885704
  47.4965286  39.0336585  33.2737088  48.7484550  40.3353500  32.0660591
  49.0042067  41.0562801  32.8284574  49.3155670  40.5795813  30.7897592
  50.0624466  41.3382769  30.6082463  48.9992666  39.7819543  29.7293520
  49.5844078  39.8783779  28.8267398  47.6202011  35.3754163  27.9585457
  46.6004992  34.7743011  28.3641434  48.0939388  35.2958679  26.7200589
  48.8812065  35.9012175  26.5360451  47.4944258  34.4949770  25.6254005
  46.5113020  34.9037647  25.3920174  48.3515215  34.5333838  24.4412756
  48.5648251  35.5615211  24.1488075  49.2522478  33.9198065  24.4591451
  47.6631927  34.0206313  23.3461094  48.2846308  33.9936638  22.6148844
  47.2511816  33.0173564  26.0723662  46.0728264  32.5870824  25.9670687
  48.2397127  32.3369861  26.6131306  49.1178036  32.7847505  26.8335104
  48.1193304  30.9012747  27.0858359  47.7672005  30.3727531  26.1999631
  49.4905758  30.1988292  27.3251057  50.0035191  30.7232165  28.1313372
  49.3792057  29.1416597  27.5661302  50.3976965  30.1114988  26.1522532
  50.1814222  30.2380681  25.0136709  51.6699553  29.7621965  26.3908887
  52.3330927  29.9015069  25.6419277  52.0221186  29.8167491  27.3359299
  47.0240784  30.5843139  28.1202054  46.3356543  29.5740747  27.9387927
  46.8396473  31.4512348  29.1313004  47.5329685  32.1622372  29.3153691
  45.6478739  31.3603759  30.0095868  45.7357311  30.4308343  30.5720258
  45.7358503  32.5543690  30.9834146  46.7496395  32.6076555  31.3802791
  45.4447031  33.4873176  30.5007768  44.5589209  32.2038031  32.2461724
  45.1368999  31.0836697  32.6890492  44.3084097  31.3171721  29.1936851
  43.4214258  30.4994130  29.4616914  44.1465712  32.2691703  28.2517028
  44.9051762  32.9292035  28.1569600  42.9213047  32.4549580  27.4386263
  42.0912790  32.4410033  28.1449986  42.8164005  33.7726498  26.7122865
  43.5244322  33.7708735  25.8835554  41.8552589  33.8349938  26.2019730
  43.0393410  35.0905657  27.5048590  42.9861403  35.0293231  28.8832521
  42.6741219  34.1562772  29.4371867  43.0698109  36.2608552  29.5854425
  43.0963278  36.2426853  30.6649637  43.4601784  37.4555993  28.8918042
  43.6178446  38.5135603  29.7294497  43.9330053  39.3356776  29.3468356
  43.6701727  37.4177504  27.4880290  44.0077400  38.3184338  26.9968915
  43.4789419  36.2191582  26.8076801  43.6615849  36.2186646  25.7432365
  42.6963139  31.2703586  26.5228391  41.5568113  30.9252954  26.2378883
  43.7646389  30.7187915  25.9332085  44.6657038  31.1743164  25.9592009
  43.7397814  29.5424271  25.1047230  42.8384924  29.6275020  24.4976497
  44.9924517  29.4147778  24.2180181  45.8424473  29.5387888  24.8890138
  44.9976635  28.3879924  23.8522482  44.9779987  30.4738212  23.1157351
  44.3330288  30.0231314  22.3614144  44.5717049  31.4354300  23.4293103
  46.3695574  30.6497860  22.4909401  46.9071913  31.1550426  23.2932901
  46.8125439  29.6751285  22.2862220  46.2826252  31.6349506  21.3224530
  45.4497290  31.5038180  20.6316638  46.3405371  32.6477456  21.7211938
  47.5726128  31.5684128  20.5410957  48.3653593  31.5242290  21.1653614
  47.5528622  30.7731462  19.9187922  47.6720858  32.3794293  19.9474144
  43.4552050  28.2279897  25.7996273  42.7160835  27.3484325  25.2610612
  44.0028191  28.0730581  26.9810700  44.6160936  28.7533712  27.4067116
  43.9975595  26.7504334  27.5513768  44.0248919  25.9447432  26.8177390
  45.2263165  26.4725661  28.4845114  46.1751413  26.4967465  27.9485559
  45.2291822  27.2538233  29.2445970  45.1429987  25.2057219  29.2479873
  45.1361179  24.0176797  28.5651326  45.4026508  24.0547943  27.5191927
  44.8862457  22.7761436  29.2282391  44.9295664  21.8756700  28.6335349
  44.8012733  22.7740502  30.6240535  44.5863914  21.6088343  31.3519001
  44.4946861  20.8039355  30.8367896  44.6941614  23.9832377  31.3188696
  44.3718481  23.9955235  32.3495793  44.9260855  25.2370691  30.6463313
  44.8950863  26.1590219  31.2079716  42.7146292  26.5749240  28.3654594
  42.1261072  25.4907703  28.4527135  42.1868467  27.6502419  28.9693093
  42.7686357  28.4758186  28.9626455  40.8795786  27.6930285  29.7041345
  40.7052422  26.6548944  29.9869490  41.0562372  28.5483241  30.9118843
  41.3270903  29.5566130  30.5986905  40.1161146  28.6705947  31.4497709
  42.1017981  28.0213165  31.8834329  42.0758629  26.8307781  32.2229648
  43.1202555  28.8129377  32.2804570  43.8667011  28.5259867  32.8973699
  43.1253386  29.7882009  32.0178914  39.7652245  28.3027029  28.8143468
  40.0295496  29.2068815  28.0237722  38.5005474  27.8985786  29.1688943
  38.1332421  26.9552660  30.2798986  38.7282133  27.0684910  31.1861467
  38.2863665  25.9608579  29.8606062  36.6170001  27.1574259  30.6388974
  36.4164877  27.9404593  31.3701653  36.1390257  26.2454915  30.9966898
  36.0242391  27.6025319  29.2851901  35.0463080  28.0827832  29.3184948
  35.8769965  26.7124939  28.6734295  37.1905637  28.4857845  28.7302756
  37.2215414  28.5427117  27.6422048  37.1563363  29.9566841  29.2998552
  37.8961897  30.2414680  30.2524447  36.3443780  30.8963299  28.7739563
  35.4408884  30.6336617  27.6716423  34.6617889  29.9614978  28.0312204
  35.8564901  30.0567865  26.8454456  34.8411012  31.9558454  27.2947574
  33.9106965  32.1318436  27.8346443  34.7468495  31.9145942  26.2096238
  35.9203982  32.9851103  27.7409649  35.5456185  34.0024376  27.8536057
  36.7218184  33.1324887  27.0170069  36.4602637  32.3172975  29.0530896
  37.4828935  32.6244140  29.2722130  35.5575538  32.8085947  30.2246332
  35.5518055  33.9599466  30.5881047  34.8662376  31.8711638  30.8684540
  34.6426654  31.0121202  30.3866243  34.1667509  32.0778370  32.1592116
  33.9236569  33.1335068  32.2799206  32.7908683  31.3938618  32.1011376
  32.2456503  31.6167641  33.0182815  32.2377205  31.9024158  31.3115168
  32.7450156  29.8760366  31.7864275  31.9842315  29.2103910  32.4564433
  33.3579063  29.3471622  30.8762360  34.9313760  31.5166545  33.3718705
  34.4780326  31.5494680  34.5248103  36.2105107  31.1350465  33.2263589
  36.6566777  31.2867713  32.3330450  37.1214914  30.5548882  34.1917610
  36.5598631  29.7652030  34.6908307  38.2519746  29.8886108  33.3713412
  37.7765441  29.2354369  32.6396108  38.7036085  30.7496047  32.8785729
  39.2167449  29.0642500  34.1658187  40.2630043  29.5311308  35.0149226
  40.8389378  28.4107637  35.4492664  41.7007542  28.4287310  36.0999179
  40.2783489  27.2881103  34.9413753  40.6193256  26.3539743  35.1180744
  39.1407704  27.7192664  34.2230439  38.4429812  27.0715833  33.7131429
  37.5619078  31.5013576  35.2672434  37.8073907  32.7109170  35.0654769
  37.7903152  30.9813523  36.4625764  37.4430346  30.0610042  36.6916084
  38.1874347  31.8676043  37.5500584  37.5165772  32.7264881  37.5308442
  38.0152822  31.1354947  38.8939452  38.7430072  30.3241777  38.9107513
  38.3013868  31.8702412  39.6465421  36.5630960  30.4855776  39.1265321
  36.1934114  30.4606366  40.1516247  35.7190204  31.0315323  38.7051344
  36.4905119  29.0140915  38.6252499  36.1573768  28.8208413  37.4431586
  36.7443609  28.0313349  39.3853188  39.5446825  32.4797010  37.4851227
  39.7843337  33.6396575  37.9120374  40.5638027  31.7114663  37.0621371
  40.2850199  30.7589078  36.8750072  41.9540119  32.1801662  36.7444229
  42.2352600  32.6933360  37.6640201  42.9661608  31.0029912  36.8381047
  42.6505184  30.2707672  36.0949278  44.3562508  31.3613200  36.5645933
  44.4783926  31.8188500  35.5828381  44.6337366  32.0369363  37.3736930
  44.9447012  30.4440594  36.5431547  42.9582882  30.2520108  38.1965494
  41.9826269  29.7734714  38.2813144  43.7303352  29.4850802  38.2587004
  42.9092550  30.9151483  39.0602303  42.0210791  33.0742073  35.5883002
  42.8159142  33.9775443  35.7095671  41.2624598  32.8490686  34.5040345
  40.7718611  31.9675565  34.4555783  41.1104202  33.8057685  33.3792663
  42.1205044  33.8306952  32.9703593  40.1560879  33.3590317  32.2409606
  39.2024922  33.0693483  32.6823688  39.7137594  34.5384145  31.3850760
  38.8685274  35.0862455  31.8016768  40.5167007  35.2353621  31.1449671
  39.3919373  34.2323637  30.3896523  40.8500433  32.2798014  31.3605762
  41.3221264  31.4278078  31.8498158  40.0305176  31.8632245  30.7749653
  41.4548206  32.7366042  30.5771995  40.6979227  35.1399255  33.9151239
  41.3082552  36.0910201  33.6039829  39.6556807  35.2518582  34.7622800
  39.2009449  34.4285846  35.1304340  39.2923141  36.4921832  35.4854488
  39.0300655  37.2135210  34.7114992  38.0612564  36.2379766  36.3208508
  38.2720494  35.2916098  36.8189144  37.9306126  37.1319532  36.9306397
  37.3121285  36.0763240  35.5457568  40.5027723  37.0867896  36.2307811
  40.6665659  38.3069706  36.1811399  41.3821268  36.3411736  36.9216657
  41.1763477  35.3537273  36.8697023  42.5728416  36.9365883  37.5890613
  42.3606873  37.8267407  38.1812811  43.0374813  35.9383988  38.6384249
  43.3355045  34.9856877  38.2006764  44.0089464  36.3022137  38.9730859
  42.1241808  35.6592417  39.8469424  41.8005323  36.6183472  40.2512503
  41.2521219  35.1275539  39.4662499  42.9487753  34.7145534  41.2559080
  43.0803537  33.0893517  40.5182838  42.0741320  32.7714825  40.2451944
  43.7378979  33.0651975  39.6492887  43.5414028  32.4705219  41.2880754
  43.6323977  37.4019504  36.4994884  44.3207455  38.4375572  36.6519952
  43.7803698  36.5417504  35.4376292  43.3169985  35.6444812  35.4204297
  44.6189404  36.9201255  34.3030906  45.6491804  37.1167135  34.5998430
  44.6981430  35.7412052  33.2395673  45.4912281  35.9096503  32.5110459
  44.7347832  34.7463298  33.6833978  43.7761354  35.6938553  32.6601171
  44.0746450  38.2395482  33.6874461  44.9064445  39.1414404  33.5704494
  42.7926540  38.4380651  33.3231282  42.0705986  37.7567005  33.5088110
  42.3290634  39.7420907  32.7664232  42.8337860  39.9986029  31.8349910
  40.7717800  39.6344733  32.4736738  40.2065086  39.4521070  33.3876300
  40.4727554  40.6340647  32.1582413  40.3773355  38.7007403  31.3240457
  40.9050512  39.0632796  30.4418993  40.6869793  37.6707387  31.5010023
  38.8099384  38.5087156  31.2080121  38.4393978  38.2341695  32.1956468
  38.4443688  39.5035052  30.9533572  38.2921863  37.6192737  30.1241231
  38.8590050  37.4154043  29.3134093  37.1835232  36.8815780  30.0842762
  36.3457036  36.8322611  31.0072303  36.4940834  37.3128629  31.8830776
  35.5784631  36.1757565  30.9861493  36.9478559  36.0569978  29.1004944
  37.5916791  35.9898543  28.3251953  36.0903311  35.5276203  29.1676307
  42.4447060  40.9268284  33.7070251  42.7167654  42.0424461  33.3170104
  42.2791433  40.7534504  35.0397754  41.8340588  39.8727918  35.2552891
  42.5118542  41.7230701  36.1016655  41.8821526  42.5811815  35.8666778
  42.1170855  41.0808897  37.4598145  41.0610199  40.8292913  37.3621845
  42.6604271  40.1691771  37.7081299  42.2325420  41.9516993  38.7359381
  42.1403265  41.3365507  39.6310306  43.2335854  42.3751926  38.6542749
  41.2252903  43.0794382  38.6852622  41.4625454  43.7781620  37.8830171
  40.2205038  42.7051449  38.4892821  41.4026022  43.8354588  40.0180292
  41.0474062  43.2596588  40.8726597  42.4708605  43.9224911  40.2164125
  40.6671715  45.1306963  40.0313950  39.6756673  45.0979328  39.8417950
  40.8554792  45.6009483  40.9051847  41.0758495  45.7491446  39.3453884
  43.9833498  42.1107721  36.0802531  44.3007803  43.2661867  36.2172294
  44.9343348  41.1663103  35.9174871  44.6157169  40.2084589  35.8842874
  46.3710308  41.4521313  35.8627534  46.5825224  42.1504831  36.6724968
  47.3423195  40.2603626  36.0570741  47.0945263  39.7563028  36.9912171
  47.0212412  39.5952797  35.2554059  48.8452721  40.4861355  35.9128904
  49.0728998  41.0579538  35.0132751  49.2549419  41.4520788  37.0612621
  48.8053703  42.4063444  36.7867255  49.1328335  41.0970783  38.0845761
  50.3290510  41.6132641  36.9695210  49.7477388  39.2240644  35.9072518
  49.6976995  38.6647105  36.8414521  49.5101976  38.5689521  35.0690961
  50.7701015  39.5088267  35.6586838  46.6822624  42.1960306  34.5059395
  47.3657656  43.2361174  34.4852972  46.0505533  41.8111610  33.3638525
  45.5547237  40.9318733  33.3305812  46.2484741  42.4490643  32.0264816
  47.3197174  42.3833227  31.8361735  45.5655003  41.6764259  30.8855629
  45.8996964  40.6406546  30.8256292  44.4859314  41.5762711  30.9978795
  46.0060930  42.2490788  29.4809771  45.6787062  43.2657337  29.2634249
  47.0919800  42.3337984  29.5229697  45.6737995  41.3552141  28.2920146
  45.1009846  40.2986097  28.4606338  46.2727451  41.6675234  27.2052693
  45.8821535  41.2761307  26.3600802  46.8437862  42.5001192  27.2335386
  45.8783579  43.9144897  32.1625876  46.5776157  44.6974468  31.5315199
  44.8379040  44.3092489  32.8585863  44.2522049  43.6887836  33.3990312
  44.5096779  45.7311535  33.0271339  44.4217491  46.1031437  32.0063496
  43.2363939  45.9784794  33.7836099  43.2562876  45.4739475  34.7496104
  43.0756283  47.0303202  34.0200067  41.9428205  45.5321360  33.1295776
  41.9401503  45.6010818  31.8947220  40.9569168  45.1064539  33.8488936
  45.6681061  46.6577530  33.5352445  45.9215975  47.7412939  32.9711080
  46.3634825  46.1554241  34.5588279  46.0776091  45.2965117  35.0067639
  47.6469851  46.7620945  35.0414300  47.4644327  47.7886343  35.3592181
  48.3425045  45.9973335  36.2017107  48.8293171  45.1419210  35.7333279
  49.5101738  46.8045425  36.8459702  49.0451574  47.7146912  37.2247696
  49.9460506  46.2043238  37.6446271  50.3015375  47.0458698  36.1363149
  47.3763371  45.5235338  37.2739935  46.7601299  44.8276901  36.7046165
  47.7952147  44.8956871  38.0604148  46.7441988  46.2916279  37.7195621
  48.7627172  46.7670345  33.9454865  49.2583799  47.8427076  33.5921693
  49.2134523  45.6489515  33.4167099  48.8224602  44.7776461  33.7454343
  50.2981138  45.6389666  32.3770261  51.1816549  46.0102510  32.8962660
  50.5362463  44.2056799  31.8174720  51.0328007  43.5920715  32.5691509
  49.5444965  43.8427019  31.5476799  51.2407970  44.1187763  30.5050111
  52.6527500  44.2810154  30.5331945  53.0890036  44.7008038  31.4275455
  53.3271170  44.2664814  29.2764950  54.3812037  44.4985342  29.3146825
  52.6707029  43.9808369  28.0772758  53.0789423  44.1182995  27.0868993
  51.3207150  43.6795712  28.0906081  50.8194017  43.4929037  27.1523976
  50.5757189  43.7801933  29.3145323  49.5126152  43.6096907  29.3990636
  49.9714565  46.5867090  31.2215710  50.9172821  47.3754120  30.9393907
  48.8381577  46.6269112  30.5561090  48.0843830  46.0365343  30.8776331
  48.7063503  47.4058771  29.3893933  49.5437193  47.1115875  28.7566948
  47.4556541  46.9548225  28.6283302  46.6365242  47.1244192  29.3271613
  47.3783112  47.6166677  27.7657318  47.3597240  45.4852676  28.2322097
  47.6149511  44.7443056  28.9897990  46.3008738  45.2948093  28.0571151
  48.0501270  45.0556326  26.9114637  48.8014460  45.8747053  26.3443875
  47.8166056  43.9209557  26.4059973  48.8258648  48.9501333  29.7455812
  49.4566154  49.6714687  29.0281415  48.2293797  49.3991518  30.8110476
  47.7599430  48.7079954  31.3785386  48.2893372  50.7673359  31.3836861
  48.0616999  51.3672829  30.5025792  47.2868252  50.8446169  32.5084376
  46.2701750  50.7632065  32.1238565  47.5620461  50.0236511  33.1705308
  47.4296093  52.0709705  33.3502388  48.2821274  51.9438505  34.0174365
  47.6852655  52.9226494  32.7198529  45.9305525  52.5156641  34.2648458
  45.8464289  51.0841656  35.3746080  46.7875338  50.9733152  35.9132624
  45.0275707  51.0674858  36.0938382  45.6250858  50.2330494  34.7306299
  49.6553230  51.2132835  31.7388725  49.9595165  52.4178123  31.5687871
  50.5922794  50.2592850  32.1886277  50.2473831  49.3417692  32.4321771
  52.0365095  50.5677032  32.3481297  52.1438456  51.6383648  32.5220871
  52.5144958  49.6245527  33.4477735  52.4273396  48.5839796  33.1351805
  53.5894203  49.7491980  33.5786152  52.0686388  49.6195221  34.8757052
  51.0962629  49.1273546  34.8947024  52.7136517  48.9675617  35.4647803
  52.0541239  50.9956408  35.6358647  53.0688810  51.3932133  35.6183147
  51.3884068  51.6827011  35.1134968  51.6479397  50.7882166  37.0221305
  52.1791363  50.2174854  37.6641583  50.5254459  51.2751389  37.5456738
  49.8598480  52.2527027  36.9070649  50.1973581  52.6075792  36.0237455
  49.2940331  52.8629541  37.4793863  50.1025820  50.8652782  38.7198472
  50.6230927  50.1352692  39.1848779  49.1642761  51.1753845  38.9284563
  52.8830194  50.3612852  31.0954261  53.8147211  51.0685921  30.8101511
  52.5344706  49.4029760  30.2815032  51.7868567  48.7870121  30.5674505
  53.2461596  49.1012144  28.9584446  54.2814589  48.9010620  29.2345071
  52.6779699  47.8142738  28.3152223  52.7219296  47.0544481  29.0954971
  51.6542244  47.9588032  27.9700184  53.5121727  47.3035002  27.1805906
  52.9366350  47.1145487  25.9536791  51.8639326  47.1009970  25.8290696
  53.6815071  46.5588617  24.8443604  53.2376623  46.4040327  23.8720274
  55.0637293  46.3467026  24.9867916  55.6505823  46.1802387  24.0955544
  55.6754255  46.5462971  26.2263036  56.7465496  46.4748383  26.3445687
  54.8739767  46.9456720  27.3137522  55.4177952  47.2377825  28.1999421
  53.1926298  50.2842712  27.9646230  54.2215300  50.5286360  27.3065376
  52.1126652  50.9877300  27.9927969  51.2946463  50.6918573  28.5060310
  51.8474579  52.1835375  27.2405934  51.9672680  51.9514799  26.1823416
  50.4248810  52.5902748  27.4018621  50.2549076  53.5732460  26.9625831
  49.7493410  51.8307543  27.0083308  50.1816940  52.6193905  28.4639907
  52.7586222  53.3869171  27.6560593  52.9813099  54.2893457  26.8603039
  53.3194828  53.3737946  28.8396835  53.2336283  52.5334930  29.3934202
  54.2767906  54.3904400  29.3886375  54.2415619  55.3057051  28.7977457
  53.8763809  54.6920538  30.8833671  54.1677094  53.8150740  31.4614058
  54.4430637  55.5457783  31.2550187  52.3656893  54.9505091  31.1509252
  51.7017412  54.1185570  30.9161401  52.1391726  55.2835083  32.1637964
  51.8501472  56.0286951  30.2962065  52.4712229  56.9057131  30.4784250
  51.9221306  55.7644892  29.2411613  50.3503036  56.4581442  30.6479454
  49.7504473  55.6133938  30.3093171  50.1870775  56.6386938  31.7104244
  49.8605299  57.6643181  29.9051237  49.6881104  57.3893166  28.9487052
  49.0054941  58.0667973  30.2615333  50.6148863  58.3299112  29.8154616
  55.7611656  54.0598774  29.1910815  56.5897942  54.6182966  29.9549437
  55.9766912  53.1922197  28.2208395  55.1492691  52.8256226  27.7724147
  57.3418999  52.8455019  27.6929784  57.9568005  52.4512196  28.5020161
  57.1888065  51.7889786  26.6417742  56.6089392  50.9426212  27.0099187
  56.7417574  52.1732950  25.7249618  58.6306524  51.2119627  26.3432527
  58.4797239  50.4994392  25.5323076  59.3410921  51.9282341  25.9305477
  59.5220613  50.2949572  27.6171374  58.2081413  49.2512608  28.1785011
  57.4773073  49.9206448  28.6322618  57.7809381  48.6808014  27.3537755
  58.5859108  48.6086893  28.9737964  58.1267977  54.0307713  26.9906521
  57.5026655  54.7458029  26.2116599  59.4374323  54.2886496  27.3096442
  60.1941156  53.6872292  28.3961082  60.2437830  52.6107168  28.2325363
  59.7571421  53.8337994  29.3838668  61.5572071  54.3089485  28.5353088
  62.3243999  53.8296080  27.9272366  61.9350100  54.2570257  29.5564222
  61.1617136  55.7034826  27.9737687  62.0362186  56.2468863  27.6159286
  60.5842924  56.2307262  28.7331820  60.1897144  55.4205513  26.8265653
  59.4511890  56.2052584  26.6624904  60.9570074  55.1203728  25.4658437
  61.5308046  54.0623283  25.2830815  61.0915184  56.2136602  24.6536684
  60.5129766  57.0086622  24.8846698  61.6859388  56.1740160  23.3340287
  62.4675417  55.4174376  23.2648206  60.5927515  55.7854700  22.2983956
  60.1858711  54.8182917  22.5935507  59.7885275  56.5209293  22.3190188
  61.0796022  55.4896402  20.8697939  60.2985620  55.6600809  19.9064577
  62.2656536  54.9921417  20.7313156  62.5883579  57.4241781  23.0405140
  63.3942747  57.8031683  23.9662719  62.4388647  58.1190729  22.0317864
  53.4577370  63.3038092  59.3192530  83.7218912  57.9333324  49.1059870
  84.2508133  57.1434516  48.9939112  84.2609485  58.5073299  49.6502204
  81.3109533  63.9032795  21.5505404  80.7291071  63.2259442  21.8953604
  80.7206718  64.5764090  21.2118716  44.3053055  16.5792644  70.2331114
  44.2888165  16.1274421  71.0768032  43.4535885  17.0124173  70.1766968
  68.9537183  47.9773207  34.3020243  69.1676990  48.7796779  33.8259310
  69.7133056  47.4102040  34.1692061   0.1950154  18.6510868   9.8835463
   0.3563938  19.4897575   9.4513125   0.5280218  17.9969949   9.2691369
   8.5947698  72.5272371  10.8309931   8.2298797  73.0252578  11.5624709
   9.4954723  72.3392488  11.0948653  51.5485239  37.4294043  69.0293646
  52.3241282  37.0387721  69.4319534  51.7604828  37.4763632  68.0971098
   5.6799827  29.0900011   7.6207394   5.7338319  28.3741731   6.9875521
   5.1040659  29.7329349   7.2069926  59.5635573  58.2371618  10.5625147
  60.2912370  58.8558831  10.6249709  58.7798134  58.7793531  10.6519885
  66.4863412  57.3091616  17.8971572  67.1062891  57.7979113  18.4384627
  66.9658510  56.5237738  17.6335806   1.0915512  72.7023627  33.1165213
   0.2103609  72.7285339  32.7436156   0.9784215  72.2823383  33.9691634
  58.2553244   6.9818437  64.9558830  57.8081799   6.1458158  64.8241615
  58.9688158   6.7791355  65.5609226  74.7916977  36.7061378  19.6768660
  74.1590683  37.4244680  19.6802134  74.8684351  36.4502849  20.5960459
   9.9343151  70.4834368  27.7475829   9.8606389  71.3418462  27.3305220
  10.8361906  70.2113153  27.5778861  81.8402235  49.0238215  16.7788310
  82.0522586  48.2962837  16.1940569  81.0636799  48.7298496  17.2550578
  33.6952481   1.9645471  -0.0479751  33.8055549   2.2261257   0.8661599
  34.2611442   1.1990470  -0.1480108  70.2115957  73.5760094  21.8247885
  70.4758636  73.6987330  20.9130187  69.2877714  73.3303692  21.7754168
   7.4946493  64.7682430  28.3905978   7.2485441  63.9930369  28.8952918
   7.6347965  64.4410087  27.5020499  79.7573368  76.6212394  20.3035540
  80.0582019  76.9633343  19.4617171  80.1069156  75.7308628  20.3390021
  72.1141283  36.5744882  21.2071414  72.7937309  35.9543468  20.9429354
  72.0478574  36.4673041  22.1560092  48.1344447  11.7284126  23.0633921
  47.5581107  12.4518699  22.8170580  47.8253303  11.4598579  23.9285845
   8.7727684  75.2324917  52.3596472   9.4054597  75.5144693  51.6990275
   9.1437286  75.5318190  53.1897254  25.0708423   3.1560869  31.8881220
  25.9031377   2.6950044  31.9926066  24.7047410   3.1926984  32.7717871
  80.6819153  72.6273346  68.7869787  80.3717041  73.2700872  69.4248438
  80.0807762  71.8882656  68.8799334  45.1448584  44.2523336  61.1825228
  44.9036646  45.1457882  61.4270639  46.0739899  44.1862345  61.4029312
  18.7336478  20.9727687   1.2911124  18.6756358  20.1934928   1.8439240
  18.0945764  21.5795822   1.6647381  81.1031667  53.0313851  64.2208762
  81.9519607  52.5903274  64.1855712  81.2841360  53.8646366  64.6558184
  29.1733592  55.0645150  25.8918185  28.5463947  54.8752262  25.1937384
  28.9133876  54.4877173  26.6101164  83.2536213  53.0170407   3.2115407
  82.5327627  52.3873796   3.2007021  83.6847393  52.8730799   4.0539498
  75.1608650  57.7458824  28.5218997  76.0198108  57.7756073  28.1005187
  75.3343050  57.9727520  29.4355101  70.4777344  10.7881565  14.1530413
  70.8389612  11.0150022  13.2961363  71.1630305  10.2671451  14.5715518
  46.1119216  45.2092751  15.6216616  46.2500614  45.1131578  16.5639491
  45.8118576  46.1118777  15.5144114  43.6313186   0.3889865  26.0762305
  43.3192668   1.1134262  26.6184802  42.8811822  -0.2020436  26.0113520
  22.1893877  58.1103827  32.9668994  21.5150350  58.7879206  32.9176802
  21.7259162  57.3334290  33.2795710  10.8361381  34.9487253  30.9289069
  11.2065357  34.1102179  31.2044901  10.8708948  35.4954608  31.7138381
  78.0779068  79.7066333   5.3417964  78.4547273  80.3365423   4.7274251
  77.2268144  80.0781466   5.5738539  20.5649328  23.7383723  65.1856899
  19.9834347  24.1276193  65.8388186  20.2751684  22.8285313  65.1189232
  12.1957725   1.1334254  14.2597861  12.1475166   0.8866407  15.1833624
  12.5800460   0.3705718  13.8277907  75.8518736  72.3374512   4.9169726
  75.4101078  73.1461598   4.6580071  76.6373626  72.6308824   5.3786463
  33.6663574  80.3988935  49.7349925  33.5080951  80.2321269  48.8058180
  33.2897895  79.6408154  50.1819224   8.6486476  71.8059661  61.9067473
   8.9405483  72.3079182  62.6677126   8.9033884  70.9042956  62.1025176
  20.0820384   5.0528974  29.7940821  20.8964810   5.5029649  30.0184626
  20.0174651   4.3422622  30.4320902  62.3829398   5.5360765  25.8901019
  61.5007243   5.3475399  25.5701251  62.3913035   6.4836616  26.0251803
   2.1875391  29.6649618  44.1096015   1.3364706  29.8296947  44.5155234
   2.3680482  28.7438221  44.2970843   9.2085490   4.7486753  31.8895144
  10.1364288   4.5140953  31.8739600   9.0086994   4.8739595  32.8172011
  49.5468418  68.1771471  41.5158362  50.1971428  68.8063933  41.8279070
  49.0687935  68.6460664  40.8318610   1.1460584  58.0804171  34.4437689
   1.1179632  59.0371825  34.4372458   2.0442384  57.8689064  34.6982760
  39.4451604  17.4806804  24.2913146  39.4425283  17.6519508  25.2330679
  40.2066836  17.9587621  23.9630599   1.1039775  55.5518259  28.5798640
   1.9482225  55.6816294  29.0118784   0.9979957  56.3240458  28.0242724
  59.5553896  29.3648548   9.8421759  60.4300075  29.0500850  10.0706381
  58.9701650  28.6510582  10.0956339  58.1973124  32.6757526  70.2775097
  57.5718117  33.2993889  70.6463718  58.6543703  32.3167181  71.0380554
  48.0683136  21.9138169  69.8312473  48.5888195  21.1694264  69.5292711
  48.3137894  22.6307034  69.2464018  63.6218540  81.7361333   8.2459588
  63.7064687  80.9256675   7.7437443  63.5848800  81.4496590   9.1585345
  59.1038744  62.0948841   9.8776621  58.6304371  62.7266838   9.3364424
  58.5114996  61.3460495   9.9452872  22.8449998  22.9183311  28.6074633
  23.4439645  22.6658125  29.3101115  23.4046254  23.0069322  27.8359694
  65.3808451  51.7059851  39.2490196  65.4826498  50.7679510  39.0879178
  65.8494949  51.8603849  40.0692415  27.2916494   7.4258108  51.8205351
  26.3581929   7.2168274  51.8554205  27.7168355   6.5909452  51.6244692
  17.1470588  51.4953698   2.9967446  16.8860668  52.0775928   3.7102789
  17.4949735  52.0813419   2.3245616   6.1012834  60.9107997  45.9333605
   6.8330759  60.9871294  45.3210826   5.3217548  61.0316493  45.3911776
  25.1679931   3.8151521  26.8279547  26.1103664   3.8597793  26.9897360
  25.0626931   4.1414184  25.9342570  14.0543876   1.7799539  34.7830195
  14.6869216   1.4548368  34.1423697  13.9578328   1.0627336  35.4095168
  70.9981195  43.8628592   0.8118577  70.0598137  43.6746671   0.8318705
  71.3723270  43.1589799   0.2819914  58.0927650  64.3084671  15.1276393
  58.7710921  64.9360539  14.8781676  57.2984068  64.8356678  15.2129836
  86.7049654  16.3347644  37.9725928  86.7238386  16.7799301  37.1254248
  85.8392533  15.9281272  38.0102534  85.5363886  80.6488587  23.8025279
  84.6026651  80.8559253  23.7635607  85.9226553  81.3754775  24.2914576
  54.2985868  43.4011984  66.3411522  54.7336674  43.7181520  65.5496502
  53.7240028  44.1205692  66.6030359  79.9833331  10.5610246   5.7956738
  79.7967849  10.8083124   6.7013640  79.2169700  10.8563489   5.3040499
  53.0717502  15.9774322   9.5161433  52.8566299  15.3426523  10.1995272
  52.2414622  16.4133281   9.3241877  82.1184624  50.9949875  60.0732994
  81.8229837  50.1331806  59.7796679  82.8746812  50.8117819  60.6307983
  57.4654333  76.3558199  32.4822802  58.1399838  76.5731623  31.8388743
  57.0621912  77.1962597  32.6997370  27.8541741   4.6679372  42.4830241
  27.1988902   4.1041536  42.8940959  28.2549701   4.1179437  41.8098921
  20.5298513  66.8795873  44.7267909  20.2353614  67.7885987  44.7833819
  20.2833312  66.6024544  43.8443751  70.7709686  46.2023421  24.8802847
  70.1986782  45.4351007  24.8878855  70.6397001  46.5904965  24.0152163
  39.0975556   4.7660989  30.0249667  40.0304828   4.7370739  30.2371783
  38.6847243   4.2068119  30.6829924   7.2754329  76.9432451  -0.0249343
   7.4403232  76.0541608  -0.3388982   7.3951810  76.8885090   0.9231705
  23.2119212   5.3975267  56.4824194  23.4793935   5.9911079  57.1840949
  23.9738641   4.8358173  56.3404173  20.4717002  10.5971164  24.4702143
  20.9156022  10.7860488  25.2969451  20.1707969  11.4509553  24.1593451
  72.4341051  57.4886276  11.0007662  73.0615894  57.4272849  10.2805323
  71.8766729  58.2318034  10.7701392  38.9163051  10.8884353  25.0106902
  38.0491386  11.2874050  24.9394412  38.7611709  10.0564880  25.4579348
  42.5074229  17.2454471  40.5100627  41.9128213  16.5275783  40.2924819
  41.9450984  18.0191440  40.5477614  32.9740597  62.4137093  17.4542708
  32.4485556  63.1853368  17.6656241  33.2049499  62.5264026  16.5321917
  32.8130756  22.8821821  30.9438605  33.3641658  22.1056909  30.8459181
  32.6213298  22.9231615  31.8807692  33.3590636  27.7258558  14.6926207
  34.1907392  27.6494569  14.2249579  33.5643611  27.4653024  15.5905051
   2.7686780  69.1668083  14.7905726   3.6320060  69.4006302  14.4496531
   2.2398847  69.0008475  14.0101428  26.6076511  70.4430510  22.9017634
  25.9481567  70.7687809  23.5142989  26.8014949  69.5569135  23.2074065
  23.9861816  66.1225440   9.4460768  24.8905986  65.8091428   9.4390006
  23.5171360  65.4882480   9.9881930  49.0320015  64.2877769  69.4630814
  49.8534012  64.6168900  69.8280716  49.1770267  63.3476734  69.3562794
  59.9301688  44.7535394  15.7455535  60.6067053  44.7469749  16.4226718
  60.2428142  45.3881295  15.1007456  63.9604759  30.7060885  65.9982872
  64.2321444  29.9900985  66.5725613  63.4154224  30.2858925  65.3330183
  60.2614975  18.4839046  52.6853895  59.9278784  18.7561929  53.5402536
  60.3030300  17.5290310  52.7375603  37.7125478   4.5790216  63.7080526
  37.5511050   4.1317022  62.8773451  37.3340559   3.9998120  64.3694878
  45.9429797  78.1036113  29.5076942  46.0478028  78.9786659  29.8812246
  45.4606541  77.6147602  30.1744938  68.7643139  46.9494726  18.3352847
  67.8693978  46.8672402  18.6648268  69.0603344  47.8013577  18.6560626
  83.4392540  47.3423435   4.5401568  83.4992735  47.8088446   5.3738303
  83.8355772  46.4886321   4.7143406  32.9835075  60.1254107  13.0391497
  33.3362907  59.7960223  12.2125334  32.0702213  60.3346957  12.8433318
  70.7363373  66.6888900  68.4094238  69.8023814  66.7204184  68.2021427
  71.0922855  66.0314734  67.8116465  85.1349537  51.9566573  40.6534571
  84.9210159  52.4846770  39.8842711  84.7690384  52.4467875  41.3897414
  79.4452135  29.5992746  14.4573874  78.6650125  30.0415589  14.1228671
  79.6256534  30.0308551  15.2924914  80.8670847  62.4801924  11.3552184
  80.8219139  63.4186961  11.1724467  79.9717085  62.2390630  11.5926928
   8.5944980  12.8445174  40.3816886   8.0952114  13.0125620  39.5824999
   7.9389375  12.8494288  41.0791392   5.3558391  49.0975614  17.0800967
   4.7759002  49.7373881  16.6671462   4.8833793  48.2677837  17.0131201
  22.5593710   8.1986421  57.2717524  23.2384753   8.1844246  57.9461765
  22.5967765   7.3279804  56.8757963   1.4239933  46.7318201  70.6707525
   1.5484478  46.9279337  69.7421598   1.4031460  45.7757759  70.7129383
  15.1448959  68.9699604  37.9135031  14.4590229  68.4636142  37.4782652
  15.3130287  68.4952857  38.7275309  77.0277206  63.0434610  21.4280123
  77.6288549  62.6315548  20.8073611  76.2460891  63.2383587  20.9109969
  60.5749504  71.3480331  18.4429259  60.4830114  70.4945852  18.8664813
  60.4478017  71.9810607  19.1495604  60.0716972  22.9556036  56.4788389
  59.7755766  23.6676383  57.0458937  59.7614384  22.1600914  56.9114208
   1.6256422  60.2855446  37.9355521   2.5516981  60.4615881  38.1018633
   1.1599678  60.8493425  38.5532183  48.6203591  37.9507600  14.9171156
  49.2636434  37.3235066  14.5870108  48.9341299  38.8006520  14.6081442
  85.9353534  58.0822601  41.6528792  86.4566080  58.6152925  42.2532172
  86.5655796  57.4783768  41.2599749   2.4008840  65.7851674  33.4684176
   3.3105033  66.0087849  33.6654276   2.4090332  64.8360755  33.3443636
  51.1512122   6.5261335   1.2316079  50.7823453   6.0393972   1.9686646
  51.6152129   7.2588510   1.6366429  80.0983755  16.6763520  34.1302252
  79.5270084  15.9090316  34.1616845  80.4584859  16.7432415  35.0145793
  14.3836158  46.4551427  31.2267966  14.8451417  46.5680959  32.0577426
  13.6542171  45.8714368  31.4353652  76.4713764   3.2454193  69.8351002
  75.6179333   3.4983575  69.4831181  76.3936377   2.3056722  69.9996138
  78.8352100  25.5980195  18.9825625  79.2202846  25.3033711  18.1572623
  78.6124508  24.7900166  19.4448847  78.1801550  58.5211243  22.7760787
  78.0809585  58.4968831  21.8243403  77.2843973  58.4827830  23.1113047
  21.8058961  52.1515109   1.0111994  21.6188949  53.0713405   1.1987490
  22.0144170  52.1351160   0.0771327   4.5897430  44.9412026  29.8411746
   5.3849023  44.4939368  29.5515055   4.6886915  45.8375509  29.5202345
  68.4077779  65.4627563  33.3315558  68.3065788  66.0667159  34.0672392
  69.1980402  65.7627060  32.8823943  58.3255720  18.4011042  63.2368803
  58.7261534  18.0670023  62.4342966  58.9503670  19.0476739  63.5652256
  14.4150012  60.2066292  31.1587996  14.2103475  61.0680200  31.5226073
  13.8113636  59.6100869  31.6015048  20.5742258   8.6479165  17.8290267
  20.7042354   9.0609624  18.6826796  19.6588224   8.8263370  17.6135439
  15.5740016  73.3682539   9.1714997  15.2642816  73.2179953   8.2783408
  16.4494365  72.9815890   9.1896624  55.5945110  14.4037330  67.0516205
  55.6366825  14.8520660  66.2069607  56.2490940  13.7083685  66.9866371
  53.3228652  67.6376440   6.8192191  53.1719891  66.7035176   6.9637055
  53.0798070  68.0505039   7.6478953  11.9805821  78.6056427  52.5990152
  11.4876040  79.4248145  52.5525475  11.4172943  78.0151592  53.0992794
  67.9437399  31.9764757  60.3183126  68.2940340  31.6348410  59.4956303
  67.7398586  32.8925085  60.1297760  80.8801881  66.2930323  25.4525275
  80.6822387  66.3171675  24.5163245  80.7722084  65.3737785  25.6965441
   7.7977556  47.1951391  66.6241736   7.5984806  46.3163395  66.3013262
   7.7417510  47.7535798  65.8487792  22.2579560  15.2573938   1.3608021
  21.6829476  14.5344657   1.1098523  22.3845515  15.7543773   0.5525870
  58.1576204  32.1036053  45.3889227  58.0054712  31.1852050  45.1661682
  59.0718985  32.1334052  45.6707811  44.3301902   6.2744398   6.8759722
  44.8563943   6.8245859   7.4562115  43.5005460   6.7437334   6.7882914
  72.2136068  21.9678116  45.7916451  72.5348616  21.1144114  46.0827398
  71.6972923  21.7751336  45.0090027   7.5557607  72.1108224   0.3231568
   7.7475112  72.0743467   1.2602419   8.2874101  71.6514971  -0.0890880
  48.0538028  56.1135270  27.7277464  47.4059146  56.8170573  27.7667136
  47.9361576  55.7273926  26.8598170  31.6766882  25.8220983  37.1535325
  32.4297547  25.5065989  36.6539502  31.3831377  25.0592732  37.6516867
  37.9791778  61.3845922   3.1872077  37.8643840  62.1356084   2.6049466
  38.6109966  60.8254172   2.7351422  85.2383653  74.0568640   6.6599936
  84.6614353  73.5013844   7.1842331  84.8083154  74.9120070   6.6555018
  39.9543571  18.0135059  49.9750853  40.3188372  17.6679027  50.7899141
  39.8852229  17.2506344  49.4010830  79.3686334  59.6680571  32.9187293
  79.9995271  59.7903015  33.6281390  79.7241918  58.9434268  32.4042220
   9.6445419  21.5233541  61.6043234   9.5864250  22.4473071  61.3610840
   9.5587208  21.0517120  60.7758188  69.2635624  49.7473444  18.3614916
  69.8683254  49.4166865  17.6972956  68.7292496  50.3928425  17.8988165
  80.2208988  70.7183983  50.8142657  80.4164974  71.5939142  50.4804320
  79.9252121  70.2297189  50.0461478  71.6403858  31.0914357   8.0218691
  70.7029335  30.9002055   8.0508990  71.8659202  31.0436483   7.0928473
   7.0969003  31.5954437   6.0884280   6.9712537  31.0032352   6.8298716
   7.4177783  32.4069555   6.4817710  21.6693300  54.8130466   1.4586825
  21.1950010  54.7463979   2.2874159  22.5095314  55.2063062   1.6945643
  84.7446672  70.2999617  27.6918883  84.8123161  70.2911116  28.6466498
  83.8074438  70.2140047  27.5173754  56.0545867  42.7736673  15.2315611
  56.6115135  43.4289374  15.6519026  56.6667884  42.1191775  14.8952956
  41.5668426   8.9447755   9.7229857  40.8602986   8.9122934  10.3679461
  41.3173471   9.6534509   9.1298909   0.0645584  64.1360237  14.9771590
  -0.6130129  64.2679383  15.6402773   0.8871549  64.2933132  15.4406542
  20.4458183  56.1804797  33.5488791  20.6440633  55.6805469  34.3407054
  20.6192249  55.5712177  32.8312678  75.6294632  34.3766904  65.2999830
  76.0736322  35.1974607  65.0871897  75.8792353  33.7794042  64.5949316
  40.7404218  49.3640441   5.8601374  40.3515468  49.7650070   6.6374583
  41.6289649  49.7184677   5.8268876  32.0005021   2.2607774  10.5497737
  32.6498637   1.7239971  10.0954337  31.7184815   2.9002828   9.8957629
  67.5244991  65.6612803  12.0026488  68.2627384  65.0626947  11.8889231
  66.7795388  65.0900175  12.1895308  27.2769493  60.0778534  49.8182768
  26.7617744  59.8602595  49.0414328  26.8139499  60.8165194  50.2135367
  39.2103632  60.5517490  69.3066120  39.9356802  60.2917392  68.7386847
  39.6206005  61.0767467  69.9938631  20.9080267   3.9252973  55.8242989
  21.6034269   4.5719683  55.7040310  20.3335428   4.0479934  55.0685549
   5.2110094  65.9494283  22.5507350   4.9812072  65.1695039  23.0558486
   4.3925661  66.4412834  22.4839491  14.1124338  77.4160053  23.1460185
  13.2119792  77.3765017  23.4682841  14.1097015  78.1359627  22.5152297
  61.7986790  63.0074908  10.0898451  61.8413679  63.9614369  10.1561541
  60.8622519  62.8108861  10.0636859  47.2964138  68.6453440  10.2143092
  46.6356319  69.0444185  10.7802958  47.9892486  69.3030812  10.1543612
  15.7077966   9.8645515  15.4486365  15.0191817   9.8254985  16.1123557
  15.5768380  10.7088251  15.0170321  80.4719011  78.2072140   1.6013808
  80.4070036  78.2885863   0.6498570  80.2075140  77.3054029   1.7832322
  74.2178146  74.2093374  22.8096098  73.6588565  74.9726607  22.9549784
  75.0832359  74.5768859  22.6301951   5.7661813  27.6277293  14.7505564
   6.6213029  28.0252244  14.5862383   5.6671852  27.6573052  15.7021613
   0.3475374  67.5978352   3.5260863   0.0058979  68.4787967   3.3730502
   1.2239307  67.7396323   3.8839430  76.0929243  41.0705750  14.0377802
  76.3610498  40.3739400  14.6369834  75.2278988  41.3356149  14.3503851
  46.7459529  61.7210056  17.9433341  46.9022315  61.2832596  17.1065611
  46.7574352  61.0145046  18.5890574  65.9241009  58.8137197  65.3989792
  65.1786041  59.3813992  65.2035093  66.3172817  58.6322641  64.5453358
  18.1842559  36.0387548  34.4456763  17.9749959  35.3385504  35.0638671
  18.9409774  35.7109805  33.9597125  29.1041551  16.3159198   7.0628352
  28.8657127  16.8835897   7.7957244  28.2751451  15.9311981   6.7782921
  83.3045856  65.8805706  21.2302489  82.7890102  65.1224186  21.5052409
  82.6633636  66.5850546  21.1365981  82.8487245  63.4740331  35.6096739
  82.0714656  63.8916446  35.2385993  83.5097639  63.5433270  34.9208636
  79.5760965  51.6406679  60.1396465  80.4972649  51.5497589  59.8958969
  79.5942354  52.1098280  60.9737873  11.2592834  78.3946778  33.7907595
  12.2075981  78.3183553  33.8961787  11.0730546  77.9456856  32.9661746
  80.1526968  62.8257896  28.5026736  80.3448812  62.1395184  27.8636641
  80.5754034  62.5281407  29.3082423  42.5640529  57.9604329  26.6031642
  42.3273414  57.1589329  26.1364741  42.6535457  58.6203708  25.9156222
  32.3277515  40.1233894  21.8840212  33.0042118  40.7936982  21.9805426
  32.7873176  39.3713667  21.5105242  77.9492513  49.2051615  11.2928481
  78.3509294  48.4340240  10.8925528  77.0761100  48.9122392  11.5537161
  48.8744974   0.8990466  33.2317591  48.2537031   1.5880349  32.9948187
  48.9180851   0.9341834  34.1873193  12.0703349  39.3721408  16.1125083
  11.2884793  39.8447914  16.3980574  11.7457137  38.5129661  15.8429331
  78.9146368  71.8833114  27.3144908  77.9856769  71.6762378  27.4163813
  79.1583196  72.3031809  28.1394476  14.7430223  12.1035983  24.8966403
  15.2490943  12.5058629  24.1907401  15.2477735  12.2884919  25.6886477
  14.3559164  27.2422530  48.1066603  14.0584224  27.6197984  47.2788901
  15.0454563  27.8348042  48.4060664  63.7665836  52.0784666  47.6126570
  63.4184019  52.9694595  47.6462836  64.4237773  52.1042229  46.9171996
  15.5503640  21.8010540  25.4359526  16.1550222  22.4738283  25.1229090
  16.0854611  21.2410516  25.9983534  40.0610169  79.0619404  65.3909588
  40.6594189  78.7791846  66.0824776  40.3281363  78.5580255  64.6222305
   2.8812545  53.3048512  36.3709158   3.0609125  54.1425766  36.7977328
   1.9298452  53.2880892  36.2671465  40.9196323  64.5205571  37.0581431
  41.4671749  64.5232584  36.2730212  40.0892490  64.9013879  36.7723555
  37.4703264  12.3528636  66.7346573  37.6735973  12.1479678  65.8220053
  38.2407165  12.0621312  67.2227192  58.7298051  62.8641917  20.2799983
  58.5141722  63.2813718  19.4459147  59.5436350  63.2861091  20.5554957
   6.3188125   0.3227018  66.3247442   7.0954277   0.5121824  66.8512392
   6.6402866   0.2995067  65.4234409  85.3442566  65.0979568  55.2378077
  84.4061033  64.9169280  55.1801009  85.5797378  64.8583247  56.1341090
   9.8939468  42.2403049  63.2672501  10.2582218  42.4143839  62.3993587
   8.9607860  42.0955944  63.1107092  49.9140215  24.3498635  61.3088274
  50.4299879  24.2394114  62.1074581  50.3816414  25.0216293  60.8125496
  22.7922521   2.0913524  19.5158000  23.4927116   2.7101678  19.7223181
  22.4985585   1.7689533  20.3678793  45.8787870  46.7658615  57.8618813
  45.8585215  47.3523664  58.6180782  44.9624491  46.5301895  57.7169371
  71.2450886  22.4375010  68.8976097  70.7393122  22.2197151  68.1146717
  70.8062029  23.2071710  69.2598534  11.1885303  81.3256480  29.3953318
  11.6459793  80.9327533  30.1387114  10.6450838  80.6185414  29.0476222
  39.0164852  17.6023805  70.1305294  38.2214427  18.1350672  70.1109648
  38.8129330  16.8478882  69.5777750  43.1327085  49.0981443   2.0133919
  42.6630346  49.4141974   2.7852387  42.7198331  49.5525725   1.2790484
  51.7856059  14.2157859  29.9926943  50.9930453  14.4018049  29.4892306
  52.4661193  14.7400827  29.5704932  59.1465441  67.7359583  10.0539107
  59.1191284  66.8185689  10.3257079  59.0375058  67.7074959   9.1033644
  32.7807563  53.0405416  20.6432814  33.2080501  53.7065818  21.1818308
  32.0884746  53.5137154  20.1816649  12.7699130  59.6999993  33.4628195
  11.9954103  59.2385854  33.1411452  12.4191755  60.4372455  33.9624972
   9.0091659  39.9922776  59.9644566   8.9992096  40.7510042  59.3809605
   9.7783329  40.1260996  60.5182600  13.7886748   8.3034439  47.3822589
  14.5368753   8.6313552  46.8833632  13.7472425   8.8704462  48.1523318
   7.0524400  70.2625014  37.5292582   6.6025203  70.5927707  36.7516131
   6.9870275  70.9753753  38.1646819  85.9486524  65.8809401  13.1237025
  85.3447906  65.3077819  12.6513953  86.3411848  65.3177144  13.7907214
  10.5665678  72.0286705  17.2709937  10.5155700  72.1503927  18.2190508
   9.9703830  71.3019087  17.0904059  26.7621741  10.0262279   4.2967267
  27.5901160  10.1324148   3.8282532  26.2946687  10.8477993   4.1460890
   3.7387222  59.4264044  18.2568068   2.8916019  58.9912130  18.1607527
   3.6352962  59.9844004  19.0276331  41.6472230  25.2561016  36.6957755
  41.0839400  24.5517892  37.0165343  41.5497861  25.9543867  37.3431773
  50.8747522  58.6010625   2.6003880  50.1052777  58.0326428   2.6326317
  50.9682743  58.8252665   1.6745276  76.1425257  57.3557377  62.5952959
  77.0696592  57.1768475  62.4382687  76.1408281  58.0980110  63.1996632
  67.8502655  42.8326559  52.4667931  67.3780298  42.3194790  53.1224442
  67.1624088  43.2314825  51.9338560  22.2097351  42.3067427  66.0070992
  21.5106251  42.6774454  65.4685259  22.1585514  41.3638735  65.8502436
  34.6614307  72.5163581  38.7565512  33.7218517  72.6953770  38.7194914
  35.0115150  73.1930591  39.3359942  59.0823970  23.6577196   9.4819350
  58.6573539  24.5152063   9.4987673  59.7486434  23.7071485  10.1674361
  66.7351643  68.5374071   5.0253291  66.1152593  67.9912617   4.5419306
  66.5757386  68.3243181   5.9447903  71.2236698  24.1269083  27.8410716
  71.6472300  24.6736545  28.5028071  71.8355819  23.4045238  27.6998038
  60.4492569   6.7000180  66.8028641  61.3943148   6.8379223  66.8667221
  60.3471756   5.7485998  66.7780781  55.3966141  56.0919285  59.6754408
  55.6538820  56.9513416  60.0092888  55.7948112  55.4695654  60.2839899
   9.7309488  43.5203357  22.2494502  10.4171413  43.1222829  22.7851004
   9.7951978  43.0721604  21.4060969  43.4660802  12.2204942  15.1098055
  43.5928855  13.0643339  15.5434985  44.0731464  12.2378320  14.3699450
  16.9504819  25.2218122   0.2438349  16.9381318  26.0494775  -0.2368408
  16.0399280  24.9267501   0.2361197   6.2992900  45.5122189   0.5722518
   5.5955976  45.6475578  -0.0623565   6.9736045  46.1431529   0.3203530
  15.1077264  27.4724628  23.6340518  15.9437793  27.8191330  23.9456076
  14.4762462  28.1675472  23.8193221  58.6896086   4.8509511  48.5176468
  58.6855316   5.4456550  47.7676153  57.7639723   4.7094828  48.7161779
  21.9063180  42.8640956  32.1640868  22.3438018  42.0972826  31.7941756
  21.9101852  43.5072611  31.4551825  29.8023742  34.4443585  20.8093447
  30.7390445  34.4987472  20.6198306  29.4024032  35.0908776  20.2277369
  16.9069093  34.0719988   2.6230092  17.5845140  33.6353936   3.1392045
  17.3446172  34.8384281   2.2525591  78.3871222  13.3390248  40.6453753
  78.2387543  12.4111187  40.8276081  79.1363764  13.5738134  41.1928463
  13.3035932   2.7411241   5.7227368  13.0885491   2.6146431   6.6468520
  12.5208745   2.4530239   5.2530808  70.9691183  63.3953788   6.1623091
  71.0744135  64.3448331   6.1016030  70.6865207  63.2429077   7.0640416
   4.3224185  74.9638988  48.8297267   4.1311592  75.8725955  49.0619368
   5.0660175  74.7265364  49.3837542  26.5528565  39.7866314  23.3213133
  25.8484230  39.5038568  22.7381796  26.9961515  40.4853399  22.8401370
  30.5377135  12.3498983  19.0223498  29.6937261  12.6616163  18.6956210
  30.9103856  11.8571443  18.2912249  50.6960670  63.5179521   8.9127488
  49.8160330  63.8259961   9.1292758  51.2796203  64.0924169   9.4084162
  78.2648118  29.3180008  28.9069552  78.1210669  29.8988647  29.6540541
  77.8554567  29.7705431  28.1694789  50.8753586   1.4861618  49.1485310
  50.3592825   2.2666356  49.3504095  50.8184338   1.4009455  48.1968307
  62.2559834   5.8555698  44.2212009  62.8334856   6.4694887  44.6748829
  62.2839594   5.0614381  44.7548723  81.5970612  12.9766190  61.7595291
  82.0637226  13.5638106  61.1648321  80.7569313  13.4089875  61.9126892
  43.2407729  65.8786990  26.3674540  43.6543695  65.0292398  26.2138648
  42.3987548  65.6658603  26.7698664  53.2686472  13.0970418  66.9324064
  54.0804577  13.6040795  66.9425726  52.7491999  13.4906173  66.2313318
   1.1754371  46.6043043  57.1907139   1.8265964  47.2826958  57.3696327
   1.2735416  46.4184856  56.2568617   4.0819885   9.0734905  30.2123260
   4.5025017   8.2851124  29.8690152   4.5376541   9.2488104  31.0356498
  64.0069246  14.3605435  67.7981234  64.7977495  14.7079921  67.3856831
  64.3176270  13.6326861  68.3365679  81.8691866  62.4415280   3.9276642
  82.0146314  63.3874060   3.9079613  82.6771824  62.0675852   3.5761828
   4.2666763  60.5277767   7.7267499   3.4826606  60.2115824   8.1757159
   3.9491886  61.2246491   7.1524710   2.5646776  29.5508553  51.2983317
   2.6654619  29.6156492  50.3486628   2.1079296  30.3547313  51.5461154
  36.5290683  12.7506639  31.5602679  37.0156520  13.1044819  30.8157725
  36.7231983  11.8134167  31.5496630  41.4249380  64.5155318  65.2968788
  40.5520447  64.2618973  65.5968094  41.4388378  65.4690749  65.3793097
  83.4551660  34.7635998  16.1646170  83.3517782  35.6808175  16.4181037
  84.2754881  34.4922729  16.5765376  42.3824310  54.1099167  69.1082573
  42.6708603  53.2403421  68.8309860  43.1253815  54.4642019  69.5968628
  52.0428214   1.8016786   4.9926896  51.5464149   1.0527105   4.6627564
  52.8433642   1.4190168   5.3517575  47.4320016  15.3665132   2.6763100
  46.6022477  15.7412357   2.3808140  47.9029307  15.1606912   1.8687863
  54.0957212  65.6272650  68.4957743  54.4141388  65.9004831  67.6354313
  53.2539177  65.2079487  68.3175325  33.8007045  31.1218238  65.7176876
  33.1786561  31.8408132  65.8287668  34.2360592  31.3081288  64.8858309
   0.6601900  66.2256219  24.1164679  -0.2115113  65.8451225  24.2241377
   0.5669397  66.8344309  23.3837409  43.3608389  13.4201360  54.6309805
  43.9745092  14.1138148  54.8727465  42.8231668  13.8062644  53.9395714
  76.8009988  48.4978177  14.4268984  76.3654987  48.0389752  15.1452536
  76.0863344  48.7900116  13.8611216   1.1089470  40.3931570  62.9930735
   0.3038170  40.9030581  62.9036093   0.8369495  39.4877505  62.8431082
  44.4437695  26.9199586  36.9541574  43.9708662  26.5953374  37.7204561
  44.0397692  26.4672089  36.2138629  52.3967490  10.6433696   1.4480061
  52.5534854  10.9483785   2.3416657  51.7245040  11.2337989   1.1078496
   1.0379404  38.0242448  26.7914195   1.6004604  38.0520840  27.5653929
   1.5244907  38.5082712  26.1241717  67.1248579  16.9519639  49.0735149
  66.2589216  16.5740156  48.9200592  67.3194456  17.4380660  48.2722187
  42.2141981  14.0697014  52.1179914  41.8934917  14.0085864  51.2181902
  42.0809460  13.1935823  52.4797821  60.2912776  81.5176656  12.1936698
  59.5936338  80.9708335  12.5549216  59.8336069  82.2594525  11.7980380
  79.0683643  74.3691708   9.4772715  78.9451257  74.6110918   8.5593886
  79.1378061  73.4145572   9.4661231  67.1436071  47.3093700  65.2956629
  66.7901564  47.0333290  64.4500256  66.5427256  47.9915953  65.5952263
  72.6797199  57.0463848  50.0931883  73.4551907  57.0552015  50.6542540
  72.4578714  56.1193609  50.0057602   6.8976158   4.5744174  60.4387283
   7.2097963   5.3725283  60.8651066   5.9664625   4.5348113  60.6569433
   5.3169014  34.1311002  70.3441620   6.0551884  33.7646294  70.8308458
   5.7189705  34.5754862  69.5977783  35.1375995   0.4513092  35.1915354
  34.9205289  -0.3247672  35.7080836  35.6739507   0.1179285  34.4722170
  43.2489715   1.6513748  10.3031153  43.5532174   1.0995407   9.5825953
  42.6530585   1.0902853  10.7993979  42.3387861  32.5647116  54.8736382
  42.1043873  32.4286962  53.9556026  42.2037601  31.7107224  55.2843714
  77.3323107   9.5941263  63.3235645  77.3611307  10.3900194  63.8545561
  77.4583292   8.8826501  63.9513779  43.1282315  37.3256559  15.1580615
  42.6218877  36.5762538  15.4714961  43.5185275  37.6984901  15.9485716
   1.6306632  50.7073505   2.0512576   1.2742084  50.7870837   1.1664910
   0.9256977  50.3043892   2.5580830  38.0239719  51.8175175  31.8918700
  38.9625400  51.9554688  31.7642397  37.6192802  52.6314487  31.5919013
  71.7851257   0.8636007  62.7759314  71.8910933   0.4831624  61.9039965
  72.1668434   0.2155499  63.3680058  48.6679228  80.0370061  56.9627428
  49.0492352  80.6376303  57.6031160  47.7300747  80.2272440  56.9847441
  83.0497686  64.3883826  38.3087248  83.6128942  63.7124636  38.6858935
  83.0828611  64.2288186  37.3655028  68.1686536  72.0411469  18.0608363
  68.3438937  72.9779650  18.1496996  67.3407857  71.9966628  17.5824160
  36.8672603  62.0558454  27.7091784  36.1926311  61.6039898  27.2022910
  37.0046276  61.4986994  28.4753031  46.1542640   8.7771148   3.8351578
  46.2880454   8.6049099   2.9031272  46.6466222   8.0868167   4.2793507
  73.8009731  58.0375554  17.9759783  73.0839101  57.5217630  17.6071734
  74.2676727  58.3787181  17.2130675  78.0682120  18.4849472   4.3874402
  78.5981021  17.9190845   3.8259739  78.6623035  18.7495632   5.0897641
  59.5865393  79.9009848  52.8458405  59.3151379  79.4158125  53.6250591
  59.2151976  79.4071245  52.1147871  66.2254477  71.2659931  67.8360558
  66.2584877  72.1777010  68.1257629  65.3054619  71.0184383  67.9286861
  42.5097221  62.3684575   1.0203595  43.0068248  62.2249319   1.8256659
  41.7083400  61.8587162   1.1395020   7.7165550  70.7811214  21.3062758
   8.0484718  69.9683549  20.9248633   7.5388664  71.3441850  20.5528731
  48.1110424  66.8874766  18.7561411  47.2775596  66.6813018  18.3330245
  48.7565273  66.3634779  18.2818026  54.8831129  39.3993425  65.4508400
  55.4940176  39.9329996  64.9426651  54.0872192  39.3749881  64.9196243
  59.9930255  58.5645665  17.1842856  60.8035723  58.0672993  17.0748801
  59.9014680  58.6679735  18.1314654  52.9761348   9.1804142  32.7573676
  53.5820994   8.4425849  32.8255171  53.0516658   9.4691534  31.8478865
  40.4154906   9.3897838   4.2076106  40.9502397  10.1834364   4.1879267
  40.7828269   8.8363189   3.5184235  17.1083881  48.4917164  64.8997641
  17.7916672  48.5733461  65.5651188  17.4141838  49.0362549  64.1743612
  63.3712339  45.4681253  63.4660101  62.6045990  45.4280758  64.0377569
  63.2020807  44.8097467  62.7921009  52.2852278  57.3215485  52.3518896
  52.0799398  56.8215084  53.1418610  52.8531885  58.0290127  52.6570892
  17.4858985   5.1179666   0.1925749  16.7386041   5.0828142   0.7896943
  18.0651984   4.4174213   0.4923768  35.4816192  67.4430515   8.3213515
  36.4214462  67.5820615   8.4381814  35.3423923  66.5284945   8.5671849
  26.5125125  52.5053384  41.0737414  27.1434825  53.0252530  40.5759615
  26.5924209  51.6222324  40.7132334  61.7080150  21.8183536   4.2108769
  61.8290267  20.8761520   4.0932030  62.5658641  22.1367569   4.4918675
  84.5733356  42.1041870  65.6268358  84.8902798  41.2029934  65.6870556
  83.6543083  42.0184231  65.3733444   2.7159303  44.8541136  10.7559485
   1.8045085  44.9680545  11.0253233   2.8710836  43.9123382  10.8281893
   2.3087591  72.7522446   4.1487975   3.2000297  73.1005217   4.1726727
   2.3504346  71.9514801   4.6715540  16.9738477  76.7902614  23.3243460
  16.1457532  77.2071816  23.0862994  16.7636484  76.2628962  24.0950198
  41.5046010   7.3009176  17.0222373  42.1469817   6.8186493  17.5428099
  41.8158660   8.2059879  17.0362086   0.6941741  73.9364101  23.1820006
   1.1398071  74.5047023  23.8102336  -0.2150494  74.2355015  23.1914706
  59.1780609  81.1762025   4.8876185  58.5978645  81.6202952   5.5060000
  59.0156311  81.6124131   4.0512175  29.9982589  78.3216192  12.6589865
  30.9091133  78.5889890  12.5361151  29.5048374  78.8612105  12.0412440
  75.1172099  13.3270425   1.1765618  74.3239627  13.7956161   0.9168953
  74.8703132  12.8631324   1.9765944  44.5567363  56.7590703  30.4264540
  44.0593093  56.9088938  31.2304110  44.0760463  56.0666265  29.9729151
  80.3480625  23.5684299  63.4722471  80.1509380  23.6114264  62.5365496
  81.1428833  24.0920401  63.5738707  61.8116713  36.3743401  53.2207394
  60.9490967  36.3522816  53.6351204  62.0433807  37.3028231  53.1992245
  40.6765876  24.3620653   1.0308547  39.9024472  24.0001411   1.4620728
  41.4112411  23.8873214   1.4196248  80.9937191   5.2802122  57.9864311
  80.0391579   5.2284425  57.9379320  81.2927151   5.0086135  57.1186352
  49.2627853  71.6994216   3.9217658  48.9780754  71.3765456   4.7767062
  50.2185863  71.6626002   3.9580006  76.8115846  80.4232575  51.3819117
  77.4479620  79.7888853  51.7117972  76.1146156  80.4266645  52.0380015
  31.4520822  11.9769067  32.1579833  31.5566859  11.8411560  31.2162585
  32.2653470  11.6462535  32.5394339  69.4761086  32.9729676  62.8714275
  68.6386919  32.5197625  62.9692411  70.1229763  32.2701645  62.8092909
  75.2068090  40.2516890  64.7140884  74.9106884  39.6020555  65.3516817
  74.5582056  40.2105236  64.0113401  75.7439089  43.1652308  47.1924162
  76.3707495  43.0556297  47.9074621  74.9921989  43.5980988  47.5971270
  27.4649272  21.1615009   6.0233683  27.1084056  20.5027504   5.4274077
  27.5807986  20.6969614   6.8522257  50.9887347  39.4654674  16.0922522
  51.5159736  39.0391225  15.4166216  50.2530561  39.8494167  15.6151957
  18.5924563  17.9052276   0.2018637  19.3499360  17.3655290  -0.0243717
  18.9684520  18.7372322   0.4893298  37.3737273  10.2168293  16.5648932
  36.5898070  10.7637806  16.6153903  37.8124700  10.3489132  17.4052996
  57.8039217   7.9968083  60.8582973  58.3073950   7.3894238  61.4003563
  57.3395967   8.5499984  61.4864826  67.9639022  78.4277679   1.0778088
  67.5237481  79.1197421   0.5841870  68.3113734  77.8393390   0.4075522
  22.5090394  10.5092783  13.3353514  22.9368100  10.3373594  14.1742129
  23.0826936  10.1022834  12.6861186  66.1065388  24.7153568  65.3277206
  65.8705759  25.6056905  65.0672293  66.5016174  24.8159504  66.1937618
   9.2228359  45.7527288  31.1273951   9.5811313  45.1245509  31.7544932
   8.2742113  45.6845702  31.2355322  58.8760185  28.4610510  56.4952850
  58.9168119  27.5231433  56.3084745  59.1496658  28.8799238  55.6792593
  31.2290996  61.5428855  42.4712653  31.6992515  60.7113792  42.4096770
  30.3065628  61.3035633  42.3824687  20.0539916  63.8518597  23.8995547
  19.9709886  63.6867501  22.9603667  19.3576377  64.4788672  24.0949721
   7.4704506  80.2101421  69.8295546   6.6569664  79.7799635  70.0930023
   8.1623985  79.6489000  70.1794863  46.8711138  39.7796416  67.4447680
  46.5581083  39.2114949  68.1486654  47.7359390  39.4336367  67.2243547
  60.4673386  52.7724552  51.9634533  60.7217693  53.1476545  51.1204147
  60.8425903  51.8918991  51.9567585  79.0566723  69.4802167   6.0366101
  78.5400430  69.8845960   5.3396172  79.9660722  69.6388127   5.7834858
  53.3653212  46.5763092  62.7094460  54.2208099  46.8480158  63.0419302
  53.1170368  45.8362913  63.2634830   2.7507792   3.7393493  51.5404601
   3.1906900   4.5720357  51.7117686   3.4421859   3.1672639  51.2074370
  82.1704570  54.8094119  42.7946562  82.0935766  54.3263640  43.6174483
  82.7687303  55.5293609  42.9945845  38.6895881   9.6650571  29.3186755
  39.4966779   9.1816730  29.4952483  38.8926349  10.1973934  28.5494990
  11.2411445  52.6462127  39.0162654  11.2454504  52.5392963  38.0650611
  11.9686979  53.2424201  39.1935629  30.7385335  12.3276729   7.7866692
  31.4132915  12.6826210   7.2079272  30.0082193  12.1198291   7.2038550
  56.3323627   2.0678014  51.9686694  55.8431182   2.8899355  51.9375414
  57.2211490   2.3270626  52.2117228  27.0579093  69.5794441  15.8687491
  27.8322738  70.0679471  16.1479468  26.3933319  70.2511074  15.7156367
  64.9598068  79.5611383  20.6766696  65.6674045  80.1667024  20.8976645
  64.1693634  79.9834515  21.0129351  82.8240681  33.8038921  53.1947660
  83.6473560  33.7630510  53.6813498  82.3586845  33.0054331  53.4439945
   4.6743156  38.9105105  57.3457909   5.1483871  38.5438108  58.0921268
   4.5711567  38.1745315  56.7425299  75.9939609   7.4599666  22.8761763
  76.5942321   8.2020921  22.8043742  75.7640300   7.4268550  23.8047595
   5.3300804  79.9512507  24.2225546   5.6329912  79.6282555  23.3739371
   4.5843023  80.5133488  24.0125746  75.2314607  74.8896529  47.5454611
  75.8006231  75.0993349  48.2859511  75.8323042  74.6244504  46.8491168
   1.4604236  55.2997160  53.9852047   0.5518486  55.5762911  54.1044569
   1.4375450  54.7257853  53.2194948   2.4743286  45.2744389  60.6263733
   3.3097923  44.9413061  60.9538746   2.3464271  44.8221207  59.7925329
  74.7749186  24.4745517  54.1041708  74.0125084  24.2013764  53.5939407
  74.4064999  24.9430776  54.8531580  39.7286735   5.6907053   0.6050677
  39.1622386   5.1186008   1.1228318  39.7949681   5.2562351  -0.2452665
  56.1879873  39.8826408  52.4298477  55.5023146  39.8121214  53.0940104
  56.8485308  40.4503393  52.8268719  37.0987258  21.7197580   1.1058945
  36.5183101  22.1778125   0.4979987  37.6893220  22.3992128   1.4311118
  10.3090431  26.0356522  47.7025843   9.9313404  26.6851664  47.1095371
  10.8502724  26.5467954  48.3042765  70.3879771  17.1483917  30.1196856
  70.2913127  17.5841732  29.2729373  70.9989677  17.7021951  30.6057067
  68.6370420  60.3633118  65.4103184  69.4441652  59.8595381  65.5151749
  67.9777050  59.7121334  65.1705885   2.2592975  15.3816795  22.5559545
   2.9942657  15.9491503  22.3235297   1.6435196  15.9597170  23.0064273
  60.9212112  45.2878332  65.0131798  61.4356518  46.0420418  65.3008366
  60.1079226  45.6660795  64.6789312  50.1056037  15.9485073  46.5236849
  50.1549611  15.6328792  45.6213755  49.8939309  15.1698370  47.0385642
  83.4972231  57.0946957  22.3188395  82.7215377  57.2940244  22.8430743
  83.4523288  56.1495103  22.1744723  77.5195074  51.1588764  35.5027866
  77.8761816  52.0390129  35.6226754  76.9572496  51.0223722  36.2653255
  26.3827834  32.2340889  69.4972319  26.6771350  32.7284450  68.7322516
  25.6732211  31.6826696  69.1675562  50.2879605  18.3820695   2.4498362
  49.6455131  17.9725523   3.0293126  49.9564109  19.2696638   2.3138852
   3.2756322  52.4319305  13.5324568   3.9238399  52.4779822  14.2352671
   3.7800926  52.5747802  12.7316184  55.5368846  76.1437537  25.3416915
  56.0132259  75.3629686  25.0593657  55.0162738  76.3955690  24.5789427
  45.6242507   6.8390696  48.4559059  45.6708950   7.1739142  47.5603962
  44.9349159   7.3581832  48.8701153   4.1936868  76.6029884  20.3702349
   3.4825176  76.0398676  20.6757922   4.6853679  76.8190934  21.1625571
   8.8959735  61.3036563  15.0712866   9.1106981  61.3763930  16.0012526
   9.1527790  60.4122879  14.8351855  62.8786311   1.6230602   6.1408610
  62.2342811   2.3066396   6.3245768  62.6744876   0.9273023   6.7657466
  55.7254253   1.1577482   1.5920777  56.1790118   0.4088945   1.2051625
  56.1331401   1.9216508   1.1840958  22.3358100  68.0729272  48.2895751
  22.8863662  68.5271742  47.6517863  22.9106563  67.9261615  49.0407271
  28.8685784  21.8035430  27.4172873  28.2362733  22.4011726  27.8163714
  29.7053180  22.2643585  27.4784751  75.2380458  69.2594435   0.8064932
  74.4680540  68.9683296   0.3180213  75.8935396  68.5803129   0.6473107
  84.6217910  66.4129354  43.2583518  85.1210205  66.5001442  44.0703864
  83.9600126  65.7496454  43.4541125  62.5929356  52.7653313  69.9586248
  63.0598021  53.5647774  70.2018356  62.1554756  52.4890327  70.7639313
  67.0438766  49.3867588  68.5798120  67.7598238  49.9277163  68.9130068
  66.5853119  49.0865135  69.3645477  76.1563110  41.1735535  60.4293633
  76.2571764  41.5544796  61.3016891  76.1000776  40.2307272  60.5847645
  20.7955108  38.7538690  16.9105143  20.2104459  39.4840831  17.1123023
  20.6968865  38.1561107  17.6515860  18.7637561  51.0201098  13.4726805
  18.0978197  51.7073943  13.4926505  19.3911975  51.3136794  12.8120989
  39.2581496   6.3872547  44.5696253  39.1376195   5.4724664  44.8243136
  39.0144096   6.8869276  45.3488249  44.7595787  18.0214655  57.7798986
  44.6978045  18.8405311  57.2884274  43.9949274  17.5171566  57.5020361
  44.3066678  11.6689939   9.6636004  44.4550452  10.7967109  10.0287432
  43.5827909  12.0245237  10.1791949   2.0046760  27.7213764  70.1682806
   2.8284885  27.2552204  70.3106451   1.5476562  27.6617312  71.0072088
  29.0200466  81.2361075   8.5390515  29.6929210  81.0545184   7.8829236
  29.4151538  81.8935134   9.1117138  27.0166057  74.4183375  11.4402194
  26.8944877  75.3650119  11.3685984  26.2241786  74.0447666  11.0545439
  26.6748374   1.8381923  47.6684999  25.8123630   1.4292090  47.5970745
  26.5243953   2.7557318  47.4411058  66.1041943  44.0164413  50.7680506
  65.2104680  43.7301924  50.9565825  66.0125438  44.9336972  50.5102248
  64.9561310  56.5407848  46.8525076  64.4145298  57.1906710  46.4046860
  65.7814407  56.5417004  46.3676357   9.4362078  14.8260231  44.6983428
   9.1533885  14.2936582  43.9548201  10.1238833  14.3076725  45.1162524
   4.5527698   6.7247051  59.3171740   4.1498329   5.8892250  59.5535040
   4.9589302   6.5623927  58.4657574  51.3327646  27.0007086  49.6675730
  51.0998154  27.9291010  49.6749306  51.1425161  26.7131066  48.7746429
  11.6058916  56.0766484   9.4392581  10.9298700  56.2798383  10.0857443
  11.2455505  56.3895108   8.6094946  71.1965990  11.8403745  39.7997713
  71.8759203  11.2660098  39.4464183  70.8158302  11.3436353  40.5239964
  23.8372073   7.3522348   6.3684172  24.0132842   6.5050573   5.9591240
  23.1276689   7.1767778   6.9864792   5.1781807  75.0511558  67.5645018
   4.3387852  74.5913679  67.5800991   5.2127037  75.5151398  68.4010220
  57.0200095   1.7800254  37.5529379  56.8050799   2.3075456  38.3221907
  57.9722819   1.6880722  37.5840277  47.0265430  66.5436413   8.8882870
  46.0720294  66.5370752   8.9596552  47.3065990  67.2374751   9.4852728
   2.5147909  40.5649632  50.4211134   1.8039840  41.1287116  50.7263560
   2.3835271  39.7398602  50.8882422  55.1032672   5.8608217  16.2452311
  54.8486457   4.9999685  15.9130759  55.3514705   6.3551492  15.4640383
  57.4306536   4.2215011  64.7347498  56.8538857   4.0948784  63.9814043
  57.5100470   3.3509082  65.1246214   4.6480888  72.6135446   0.4869027
   4.2944139  71.7289759   0.5800767   5.5697387  72.4808599   0.2651305
  10.3583862  51.4278746  63.3382463  10.7016804  51.7385244  62.5004625
   9.6728756  50.8038807  63.0996323  44.5406709   2.5106496  19.9359412
  45.1425300   2.8064556  19.2529387  44.6476827   3.1480712  20.6419653
  52.3899875  22.7781171  10.8476348  52.9706607  23.2920665  10.2864832
  52.3612533  23.2642574  11.6716952  48.5275445  39.9669952  21.7885394
  48.9999662  40.4048748  21.0805029  47.8514896  39.4550151  21.3446230
  58.6219740  32.0325041  62.0494223  59.0333080  31.1790800  61.9126463
  58.6152029  32.1455455  62.9998970  36.8616138  19.2455358   0.2355904
  36.2216792  19.0464897   0.9190363  37.2057853  20.1065464   0.4731650
  52.5473247   6.3696403  31.1032290  51.8427596   6.2700386  31.7434687
  52.1364245   6.1704607  30.2619643  39.7412334   1.5088481  16.9122691
  39.6148620   2.4558706  16.8538851  39.0457568   1.2100763  17.4981684
  15.5733245   4.3065875  29.2822099  15.8258575   4.3221228  28.3590508
  15.9712499   3.5067504  29.6259427  72.6473842   9.6902389  12.5128455
  73.5110412   9.3093080  12.6716609  72.2193275   9.0738411  11.9186587
   3.6444237  10.8562326  46.6723919   3.1132175  10.5496168  45.9375191
   4.5481445  10.7183337  46.3886404  25.4024555  41.1064053  66.4645672
  24.6957924  41.7374182  66.6012621  26.1849071  41.5477514  66.7950344
  39.8813424   3.6740083  21.1487002  40.6312738   4.2101306  21.4063925
  40.2244649   2.7809305  21.1184973  63.3631072  27.6129694  17.8845019
  64.0099368  28.2913847  18.0784316  63.8433013  26.7902965  17.9786200
  34.9159568  51.0287179  35.9242243  34.1197151  51.5597607  35.9092135
  35.2706569  51.1038067  35.0383467   8.1015446  54.4766426  55.1708937
   7.6056339  55.0670099  54.6036482   8.0447246  54.8750448  56.0393810
  43.8294419  80.0680115  63.6028814  43.3768566  79.5705459  64.2840004
  44.7361430  80.1183374  63.9055204   8.3207601  75.3819634  30.3174967
   9.0041965  75.8705379  30.7762332   8.7722534  74.9759223  29.5775504
  32.8518909  73.0322482   9.0968794  33.4447711  73.1366803   9.8410697
  32.0760959  72.6102711   9.4660849  54.7904048  13.6510820  28.4300894
  54.6534858  13.3187313  29.3172354  54.0346656  13.3333416  27.9359908
  84.1965866  57.8285837  59.5473957  85.0496483  57.9355907  59.1266012
  83.7723064  57.1268511  59.0536451  65.9945432  78.7440659  11.9801230
  66.6062347  79.4119765  11.6703505  65.6443469  79.1002418  12.7966590
  44.7194705  13.0517025  20.9711451  44.3569932  13.8943834  20.6977744
  45.6089292  13.2559270  21.2599177  51.9895873   0.9543104  28.5195250
  51.4727817   0.2038259  28.8126368  52.1434150   1.4644355  29.3147273
  24.5812640  12.1852178  11.2627215  23.9897571  11.4657993  11.4836020
  25.0164065  12.3994846  12.0879263   6.2264357   1.4478225  29.7345442
   5.9657512   1.7658205  30.5989260   6.8864284   2.0744104  29.4378466
  51.3795791   2.4352903  17.2754283  50.9606395   1.6616697  17.6525683
  51.4774451   2.2258300  16.3465685  48.2108253  56.3385762  34.5963759
  47.3370975  56.0049226  34.8001093  48.6420291  55.6169810  34.1385550
   8.0959552  55.8630933  29.4719882   7.8488296  56.2311055  28.6236186
   7.9615873  56.5796806  30.0922103  54.0560088  14.7794408   0.8996863
  53.4153304  15.2658767   1.4184708  53.5438953  14.0979452   0.4643244
  74.2292342  13.5469122  45.7796664  74.8830066  12.8517599  45.7050318
  74.6891055  14.3390579  45.5017180  37.0051521  75.4956629   9.4733519
  36.2241214  76.0461952   9.4174285  36.8286365  74.9030115  10.2039904
  66.2442541  29.3892312  39.8625278  65.7894468  28.5975623  40.1499939
  67.0489120  29.0686202  39.4551325  43.1063876   1.6850395  33.2740397
  43.4457049   1.1188144  32.5808615  42.4610458   1.1448879  33.7301058
  15.3535320  71.6679907  63.1754065  15.1400139  72.3638296  62.5537539
  16.3097336  71.6251040  63.1677771  31.4560685  15.9069080   5.6587262
  32.1221671  15.4683704   6.1880917  30.7502542  16.1018152   6.2752242
  85.7894993  50.2800035  65.3199959  86.5320015  49.9207211  65.8056164
  86.1884117  50.8143663  64.6332979  71.7906413  18.6495084  31.9420619
  72.6854072  18.3549709  32.1120257  71.8951640  19.5045681  31.5247054
  66.3509975  18.7229652  22.2059245  65.4298720  18.4662408  22.2489447
  66.3431010  19.5694131  21.7590518  13.8163616  75.4500246  54.2117262
  13.5991432  75.9506845  54.9981022  14.7653438  75.3332663  54.2566586
  73.4366927  15.2414579  21.2814707  72.6660953  14.8351879  21.6781420
  73.8857684  14.5214910  20.8385176  78.2743201  42.4939270  15.2526278
  78.4164844  43.3698864  14.8938746  77.4277244  42.2238845  14.8968405
  69.1187048  71.0389996  65.0448895  69.2973042  70.6339693  65.8935833
  68.5375881  71.7722750  65.2469921  10.3262665  55.4855061  68.8476372
  10.2517559  54.8626804  69.5706606   9.9496605  56.2961578  69.1900539
  72.9075432  10.0253248  43.8597202  73.5456085  10.7287288  43.9794254
  72.3430252  10.3322148  43.1502342  38.2168484   7.0060039  40.7685137
  38.4038925   7.6533806  40.0886965  37.7770400   6.2928742  40.3056431
  45.4005392  70.9171266  52.6772738  45.0199231  70.3359945  53.3357906
  44.6525582  71.2146456  52.1593571  65.9766006  17.6941645  29.1572905
  66.3255024  17.8899419  28.2877111  65.2048683  18.2547235  29.2374969
  69.8338699  10.9845674  10.3619766  70.4588795  11.6355634  10.6810379
  70.2321815  10.6421864   9.5617545  62.1901751  23.0920291  64.3225861
  63.0647993  22.7039599  64.2967939  62.3215961  23.9525342  64.7206926
  39.6350956   1.5464826  60.2095652  40.1643181   0.8655065  60.6248093
  40.2720118   2.1943575  59.9081898  17.0946592  34.4427349  23.2278437
  17.8316635  33.9922567  23.6403079  16.8302291  35.1043256  23.8670725
   1.6309970  68.4395577   9.5114131   1.7790121  69.3374540   9.2145915
   2.4662202  68.1736900   9.8960490  62.5128651  21.2357545  11.0795677
  62.5517416  20.7881784  10.2343488  61.8203211  20.7815504  11.5594769
  18.6430496  39.7863598  12.7953333  19.0775293  39.9606949  11.9604296
  18.8170236  40.5656752  13.3231921  51.0277414  10.0889647  56.4333868
  50.4573441  10.6582201  55.9168339  51.4392138   9.5134544  55.7886314
   6.8464368  56.9243194   2.2468228   6.7790645  56.1734976   2.8366990
   6.0393852  57.4175681   2.3938126   2.7300018  73.1436993  42.5577635
   2.8362792  72.1958591  42.4769206   2.1063369  73.3743693  41.8692393
  67.0328418  81.4011552  21.1696906  67.3599044  81.4422967  20.2710433
  66.4182822  82.1321370  21.2346072  16.2708411  13.7856693  18.5492510
  16.8171535  14.2461605  17.9122920  16.3480458  14.3040866  19.3501944
   9.5100540  33.0116971   3.9765353   9.2089218  32.1145572   4.1203780
  10.2077049  32.9288347   3.3264203  12.1183008  76.6680171   0.2380318
  11.6977972  77.5192477   0.3597540  11.6762632  76.2889554  -0.5216699
   4.7160572  25.1564612  33.3716769   4.0127605  25.6652452  32.9682536
   4.5920461  25.2805569  34.3126578  77.1829740  34.4896640  29.7241587
  76.9997303  35.3555961  29.3597216  76.8410484  34.5284654  30.6173606
  62.9599953   0.3954031  62.3631811  62.7372217  -0.3977502  62.8505278
  62.9073668   0.1343125  61.4437819  25.0244006  80.5754800  58.6927128
  24.9873646  81.5090294  58.9009094  24.5389756  80.4937191  57.8717947
  16.5465015  34.7695263  19.8696227  17.1889013  34.0834840  19.6882433
  16.1047309  34.4790782  20.6675620  19.5758160  64.1799612  45.1964760
  18.9508685  64.3199105  44.4850731  20.1811322  64.9186773  45.1323080
  67.8847257  53.9971043   0.5217785  68.2198326  54.8903014   0.4434437
  67.1187774  54.0776445   1.0901684  30.5519718  65.3107907  13.4653086
  31.3674110  65.0286295  13.0509657  30.4164070  64.6857549  14.1774745
  43.5715818  17.5618076  50.4205561  43.4566259  18.5045040  50.5403042
  43.4765434  17.1953416  51.2997055  34.2205620  13.5841608  62.0232439
  34.9416351  14.0580690  62.4376059  34.1714668  13.9480078  61.1392546
  71.9563818  30.3078032  69.8457909  72.0365667  29.6867347  69.1218615
  71.9227648  29.7591710  70.6294394  73.3216039  55.4381372   6.3238711
  73.6244814  56.1347319   5.7414145  74.1225330  54.9954142   6.6044802
   3.6319059  65.3425957   0.3677077   3.7511390  66.2235214   0.0127644
   4.5024818  65.0875928   0.6731696  12.3952826  57.4165518  60.1858664
  13.1549271  56.8639214  60.3696251  12.7550372  58.1706030  59.7187376
  84.9276883  58.0044873  68.6633539  84.6691352  58.8779886  68.3694506
  85.4187209  58.1589038  69.4703674  39.6471492  25.7384242  23.6595625
  40.2303723  25.0950231  24.0622038  39.3444018  25.3169741  22.8552336
  76.4870969  15.5772569  30.1980300  76.5626756  14.6453549  29.9928946
  77.2912113  15.9646107  29.8522086  85.3524105  29.9596776   9.4211001
  85.3342048  30.9163703   9.3958277  84.4832889  29.6955265   9.1192956
  34.8945292  57.4683244  47.3313427  34.5643290  58.3633287  47.4098825
  34.1283711  56.9158942  47.4864435  39.3180165  10.0271720   0.6408639
  39.7394357  10.7290191   1.1369032  39.9334416   9.8300666  -0.0652748
  14.1447347  69.7510602   8.2732243  13.4564918  70.3880836   8.4649462
  14.5697683  69.5964767   9.1168398   8.2497400  62.0565011  10.2817530
   8.2875055  62.5136473  11.1218829   7.6714319  62.5951840   9.7417445
  72.1222297   9.8045017  15.7822032  71.7788974   8.9191844  15.9029002
  73.0666629   9.7145416  15.9094328  17.2875222  80.5443097  58.2433844
  17.5568350  79.6455956  58.0536032  17.8119810  80.7960507  59.0035152
  66.8589981  67.5871558  64.2646456  67.5818261  67.0163018  64.5251751
  66.9131001  67.6213939  63.3095884  32.7498110  77.3540244  41.4462376
  32.8424939  77.6272268  40.5335474  31.9374808  76.8480060  41.4634657
  79.6041632   3.7968752  61.2921953  79.3285847   4.6141613  60.8770657
  79.1960669   3.8184115  62.1577740   2.3868888  46.7630096   8.6496491
   2.2895759  47.5422640   9.1969390   2.6068634  46.0638733   9.2653222
  71.1191177   1.8063450  54.3458652  71.8770742   1.4314005  54.7943687
  70.9475040   1.2045091  53.6215925  78.4494209   2.1771148  43.2545090
  78.6673975   2.2479220  44.1838694  77.5788784   2.5684726  43.1821871
  59.0112408  68.3810074  65.1914930  58.4556778  69.1066451  65.4761553
  58.9505680  67.7405627  65.9002829  65.2051353  48.4919357  66.8432331
  65.8241749  48.8649273  67.4708462  65.1611423  47.5637531  67.0729494
  76.7128992  33.9668918  40.3722286  77.6004982  33.7234664  40.1092815
  76.1442852  33.4115005  39.8388863  85.4261017  60.0130892  38.7116170
  86.1301899  59.5570230  38.2506490  85.5918026  59.8357296  39.6375322
   7.4929899  48.5304792  33.6381430   7.2093862  49.2058279  33.0219454
   6.9095129  47.7909442  33.4682173  31.1223262  70.6311037  24.7369570
  31.3753932  70.0905754  25.4853053  30.2965301  70.2519705  24.4360251
  26.3120311  48.4512301   4.3321557  25.5588764  49.0287782   4.2079777
  26.6576999  48.3153673   3.4499497  74.9173403   9.4679242  16.0870600
  75.6315517   9.7633296  16.6517437  74.7401285   8.5720605  16.3738596
  40.4047728  22.0530391  56.9738960  40.2349949  22.9558134  56.7048168
  40.7684755  22.1303821  57.8559208   6.0185768  44.5535421  43.0076742
   5.2972652  44.7257900  43.6128807   6.7589523  44.3347406  43.5735416
  67.0409966  41.8858385  35.4359627  67.7392292  41.3016701  35.7316852
  67.4888754  42.5455713  34.9064422  19.8891920  40.7178833   1.3157315
  19.0094512  40.8275669   1.6766495  20.3440851  41.5288796   1.5428586
  64.5943785   4.6521908  48.7447166  63.7941074   4.1306978  48.8067389
  65.1932240   4.1115734  48.2295942  29.6077388  13.4570982   4.6154255
  29.5523876  14.2709114   5.1163001  29.0194839  13.5925724   3.8725705
  56.0543489   5.5436784  67.2872829  56.2144327   4.8690727  66.6273499
  56.6020203   5.2875471  68.0293655  30.9869712  45.7043492  30.2784247
  30.4633754  45.4877947  29.5069403  30.3922885  46.2021478  30.8394713
  33.6214592  13.2100844  41.4270306  33.1627991  14.0501618  41.4385176
  34.4190742  13.3657432  41.9328070  22.4625065  13.7180150  48.9774036
  23.3416988  13.8474500  49.3330669  22.0494701  14.5792103  49.0404224
  80.5444725  80.0751477  60.0684309  79.8645790  79.4526316  59.8106432
  80.0735958  80.7626468  60.5394459  49.4132336  70.0074537  39.5311570
  50.3093012  70.3403384  39.4813204  49.0206726  70.2499027  38.6925006
  39.2313536  79.4768340  49.6208334  39.1699417  78.5221208  49.6521902
  38.6602124  79.7298900  48.8955832  19.7190994  80.9038569  50.7869048
  19.9599880  80.8220054  49.8641295  19.1982692  81.7058923  50.8282466
  85.5603320  79.2466090  46.2308025  84.6506340  79.0266780  46.0300207
  85.5510766  79.4798330  47.1591091  33.8849872  38.3974791  10.4118819
  33.7479347  37.4806981  10.1732153  33.3184665  38.5345911  11.1711402
  47.9336719  39.8597329   7.0250887  47.4551205  40.4335577   6.4268059
  47.4499003  39.9159195   7.8491301  11.2619386  23.8251991  23.5134596
  11.4362130  23.9357252  24.4481463  12.1295819  23.7813015  23.1116004
  71.5181351  27.3982048  60.7163286  71.3422060  27.8636312  59.8986149
  72.4356270  27.1338463  60.6488276  81.1997835  70.4057314   4.5281596
  81.9208709  69.9332358   4.9440999  81.1151210  70.0015547   3.6646170
  51.6090870   5.8348566  55.2417374  51.0290527   5.7638144  54.4836187
  51.4705515   5.0211316  55.7263947   4.3099071   6.1386883  31.3263798
   3.5657932   6.2521625  31.9176865   5.0694515   6.0793549  31.9058728
  47.1038764  47.4857940  25.0053305  46.3530773  46.9108142  24.8572535
  47.7481883  46.9302179  25.4440112  17.7117111   1.8258713  62.1471643
  16.9874908   1.2038102  62.0781183  17.9653599   1.9997367  61.2407064
  60.0010586  37.6188731  64.6844292  59.0897560  37.3271489  64.7099876
  60.4543066  37.0427990  65.3000069  29.1822475  44.7710408  13.7403388
  28.9586776  45.4986979  13.1600279  28.7899917  45.0060769  14.5812411
   7.0261091  77.8921677   9.2818732   6.5696138  78.7311484   9.3447680
   6.5492195  77.4100663   8.6063094  25.7957214  79.1177680  21.5045733
  25.2238983  78.4968807  21.0531802  26.5991920  78.6252310  21.6721243
  72.1986723  11.5761817  36.8220162  72.6954603  11.3800037  36.0276937
  71.5634346  12.2384477  36.5497851  61.8718100   3.8191175  48.5490131
  61.8444920   2.9226488  48.8834238  61.1749315   4.2729056  49.0230131
  24.1693634  54.8709192  13.2675833  24.0538448  53.9210893  13.2409377
  25.1086181  54.9942030  13.4048457  13.5747188  71.5015652  67.8625388
  13.4643882  72.4520947  67.8390307  13.6523002  71.2466409  66.9431777
  26.1705631  32.9647447   9.8110575  26.1251300  32.6590879   8.9051146
  26.6515201  32.2773434  10.2719206  59.9342871  29.2138886  61.4155912
  60.4992771  28.5254598  61.0647583  59.1581297  28.7499309  61.7295313
  11.6747365  33.9877243   8.4649653  11.0736308  34.5599432   7.9880280
  11.4015946  34.0622587   9.3793387  66.7668025  58.3488979   6.2447972
  66.1835496  57.8485729   5.6740756  66.1959235  58.6838581   6.9362683
  39.4963312  16.5386951  62.9640770  39.5754337  15.6495905  63.3097172
  38.7528276  16.9138551  63.4359741  59.4100571  27.2784662  68.3121634
  58.7629938  27.9201341  68.6050797  59.7239733  27.6199555  67.4748611
  72.2936630  15.3618288  63.2115412  72.1444416  14.4267941  63.3518076
  72.0311451  15.7724965  64.0353537  34.0155643  62.6962950   7.6160664
  34.1328662  63.2393290   6.8365902  33.7641853  61.8381621   7.2745270
  11.9930833  20.1926543   8.8397784  11.1578268  20.0065162   8.4109158
  12.3031562  19.3386723   9.1411061  80.5644989  11.6209483  69.2513132
  80.4182816  12.5496244  69.4313526  81.4795494  11.4719772  69.4894886
  82.4284307  50.8150752  10.0085349  82.0689956  50.0289150   9.5974631
  82.0404235  50.8265849  10.8834929  47.0660925  27.4476981  53.1207371
  46.6073561  26.6118693  53.2054758  46.4991951  27.9761767  52.5589848
  63.6122546   5.1879520   5.4376931  64.2583785   5.8936996   5.4635233
  64.0639339   4.4355840   5.8199925  51.8703946  68.3793099  69.9850988
  52.8154858  68.5236604  70.0319529  51.5657338  69.0004916  69.3236303
  82.5206566  24.3664360  59.1458893  83.4643650  24.2063236  59.1428947
  82.4392223  25.3191710  59.1023445   5.6497138  38.4970083   4.7233672
   5.9452861  38.0682595   3.9202208   4.8353713  38.0474402   4.9491257
  49.5194006  28.5907722  67.5916719  49.7816133  27.7416229  67.9472256
  48.6607170  28.4315324  67.1998358  25.4801124  64.6682765   0.3735871
  25.0175136  64.1226317   1.0095973  25.9859031  65.2813699   0.9069962
   2.8223031  77.9638697  10.6493754   3.4108585  77.4854376  11.2332720
   3.2665437  78.7969186  10.4915328  26.3446754  42.8204279  23.2835288
  25.5923599  43.1285031  23.7888522  25.9644454  42.4665432  22.4795146
  65.6815720  16.1759055  53.7010622  65.5115080  16.5223372  54.5770168
  66.3525057  16.7555344  53.3403540  38.2913208  12.8141224  49.8359108
  37.6408386  12.1490252  50.0611925  38.5296750  12.6187515  48.9296818
  53.8711405  20.6025958  51.6963720  53.0503130  20.1219463  51.5893793
  53.6267662  21.3878942  52.1860886  68.9467525  29.7801805  12.7112496
  68.6356974  30.2705193  13.4721971  68.8380384  30.3839374  11.9764769
  64.9901199  12.1045566  69.0905046  65.0540066  12.1746469  70.0429964
  65.8940887  11.9891775  68.7976646  61.9522572  31.7867422  51.1433506
  61.5084648  31.9228315  51.9804668  61.9913530  32.6578712  50.7485867
  67.2375488  28.1690621  46.8883753  66.8979788  28.8781500  47.4343824
  67.7585459  28.6113214  46.2181520  80.8557645  72.6308014   6.2230868
  81.4652769  72.1050622   6.7410893  80.8596603  72.2197010   5.3586716
  39.4101661  52.4286033  44.0068240  39.5739025  52.9285170  43.2071299
  38.6785167  52.8810801  44.4265647  35.9391246   1.5571088   6.4223713
  35.4958329   2.4027748   6.3547463  36.3707051   1.4445133   5.5754418
   4.9828094  73.0140330   4.2787833   5.3040307  72.9369809   3.3803887
   5.0550264  72.1288111   4.6357150  53.7192202  25.7498813  67.8190088
  54.3539572  26.1105442  68.4380960  53.6666775  26.4035583  67.1217442
  26.9745549  75.1203001  46.5927029  26.8033226  74.9740202  47.5230360
  26.5098723  74.4106657  46.1491680   4.6102669   0.3917989  55.1941395
   4.5844604   1.3034339  54.9034691   3.6921837   0.1578041  55.3305101
  19.8467058  47.0988108   4.8370452  19.5749801  47.9632648   4.5286412
  19.8013824  47.1597727   5.7912249  61.7717179  50.4737456  52.3748779
  62.5191887  50.1506335  52.8779936  61.0305699  50.4060371  52.9768276
  29.4553226  20.0108721  13.5641093  28.9392608  20.7710292  13.2956500
  30.2873939  20.3791000  13.8612647   2.8504993  51.6284513  49.4273710
   2.2801830  52.3937368  49.5002556   3.7202885  51.9927216  49.2630625
  61.6036272  15.6156361  68.0475569  61.5319538  15.8771062  67.1295547
  62.5158501  15.3438675  68.1486654  17.4508770  64.7806103  70.1833630
  17.3337038  65.1154346  69.2943239  18.3964213  64.6604748  70.2713680
  55.7884645   5.3299689  59.9264097  55.5296803   6.1219227  60.3976536
  56.7091703   5.2045941  60.1562214  69.7383014  34.8836912   5.7810587
  69.6252576  34.1130580   6.3374514  70.3682033  34.6079959   5.1151414
  14.9494634   3.6039323  12.1893019  15.5226693   3.4014816  12.9286856
  15.5474601   3.7600822  11.4583869  39.9355388  62.0764256  54.6685219
  39.4668531  62.7736330  55.1272869  40.2645302  62.4929047  53.8719416
  14.5377105  35.1715811  35.5001063  15.4766553  35.2887632  35.6446070
  14.4463008  34.2511012  35.2539534  28.0653137  71.1320736   8.5658927
  28.0772632  71.4822485   7.6751275  28.8134521  70.5358865   8.5989279
  45.9381717  71.9527199   8.6733479  46.7244953  71.5553357   9.0475411
  46.1675590  72.1233322   7.7598328  50.9152079  46.2249660  61.2556076
  51.7683077  46.6589975  61.2636042  51.0878372  45.3509998  61.6057730
  84.0094988  81.2473752   8.6019511  84.4166366  80.4632594   8.9702315
  83.2582895  80.9179856   8.1085820  32.9876083  49.9388822   6.2264151
  32.9691928  50.7782038   6.6862340  33.2724231  49.3091704   6.8886656
  13.9066547  32.0342227   9.7907347  13.3901161  32.8056236  10.0238890
  13.3792728  31.2934973  10.0897784  56.5817738   2.2201484  68.8144159
  56.6652298   1.7882562  67.9642773  57.3886538   2.7269262  68.9058399
  78.3356428  19.2513192  63.5305071  78.9433241  18.5607219  63.2658720
  77.8448963  19.4564188  62.7346849  79.1414642  11.9460154  54.4332457
  80.0115299  12.3371136  54.3541908  78.9730215  11.9249618  55.3752756
  20.8555454  58.3713211  36.1253924  20.9287113  59.0806140  35.4868121
  20.1151412  57.8480770  35.8183856  27.7164888  13.3931601  57.7155399
  28.1135011  13.9595413  57.0538521  28.1485271  12.5472498  57.5971699
  84.9141312  49.7956324  47.7326107  84.1333866  49.5063448  48.2048225
  85.5994225  49.8281908  48.4001017  41.9241198  75.6580580  54.3182135
  42.3436888  75.0889272  54.9634123  41.8803652  76.5133388  54.7457790
  53.1629882   1.2616891  10.0803370  52.2892985   1.2878961   9.6901984
  53.0186400   0.9379310  10.9694857  39.3149614  35.5437803  69.9558258
  38.6722875  34.9112701  69.6346807  39.8539805  35.0463104  70.5708170
  85.5532447  61.5328409   6.9178624  84.9120609  62.2426178   6.8813176
  85.6141416  61.3127066   7.8474135  53.7301540  10.4956293  60.1056767
  53.0152893  10.1454902  60.6372786  53.2927322  10.9663844  59.3962526
  64.0221421  59.7714462  20.6397147  64.8582713  59.7084035  21.1013884
  63.4618203  59.1253890  21.0696978  80.8923618  53.5809292   7.7894015
  80.7481853  54.3557479   8.3326335  80.9980480  52.8652539   8.4161944
  85.1533031  48.4926796  45.0325918  85.7763386  49.0167952  44.5292425
  85.0465107  48.9715433  45.8544874  62.4490023   8.2186723  26.8842268
  62.5553036   9.1683096  26.9400930  62.2773933   7.9434812  27.7848101
  22.9164070  42.5846818   5.8661742  22.2442621  42.9938382   6.4111943
  23.4666389  43.3127891   5.5774970   5.2799076  29.7802009  18.7159915
   5.9958929  30.4028954  18.5900969   4.4942087  30.2639200  18.4611888
  62.7062130   3.3177844  40.3327894  62.9799223   3.7121812  41.1608982
  61.9035959   3.7840936  40.0991392  50.0020949  75.1775791   8.9278645
  49.2427460  75.4239513   9.4559950  49.6304433  74.8867204   8.0950923
  85.0337982  30.5280137  48.2311964  85.5139065  29.7870946  48.6010122
  84.2510223  30.1366735  47.8434515  36.8509587  63.7398500  59.5728922
  36.3062485  63.1690211  60.1148129  36.2531289  64.0799696  58.9071941
  47.8895251  59.9233474   6.2659545  48.7912122  59.8042836   5.9675974
  47.9730252  60.1798477   7.1843571  70.8634901  37.2506762  62.7684784
  70.8000088  37.8293920  62.0086813  70.0700474  36.7166543  62.7297640
   5.4156639  24.6240640  59.2574167   4.8701431  25.1084709  58.6377478
   5.1684334  23.7082815  59.1291523  71.0076992  48.3656074  16.3792319
  71.4829103  49.1445650  16.0900492  70.2651207  48.3013495  15.7786746
   9.4431108  42.0589382   8.2825942   9.2609495  41.6182842   7.4526114
   9.5808643  41.3464923   8.9068360  51.7391109  35.3040266  62.5191832
  52.3400879  35.7964396  63.0782795  52.3019838  34.6967959  62.0388985
   2.1977848  65.8071257  20.6113619   2.1143049  66.6756417  21.0049910
   3.0822891  65.7939030  20.2456946   7.2292854  37.9825568  67.5009346
   7.2637894  38.1631470  66.5615606   7.7037193  38.7105608  67.9023743
  16.6828721  40.5987509   3.2293219  16.7636770  41.3695521   2.6675696
  16.8163722  40.9335737   4.1160578  79.9370527   9.6235335  53.1470633
  80.7658195   9.7740066  53.6017418  79.3705130  10.3376329  53.4391737
  63.5166883   3.3230174  60.1210690  64.3092442   3.0165216  59.6804476
  63.8247061   3.9978343  60.7260275  80.1894093   7.2431153  51.5265560
  80.2414036   7.9865289  52.1272755  79.9439764   6.5031326  52.0819139
   7.5357828   3.8331909  18.8367076   7.9839835   4.4683666  19.3951888
   7.7120314   4.1322250  17.9446597  51.3328689  50.4926194  14.0064807
  52.0363277  50.6596811  13.3792109  51.7840522  50.3329195  14.8354334
  33.9793634   2.0663112  40.9374285  33.8528109   2.7438858  40.2732658
  34.5500088   1.4227796  40.5173540   6.8201631  47.1533425   7.5410742
   7.4384206  46.4228393   7.5223298   5.9582132  46.7373134   7.5551552
  64.6208191  36.0212970  41.2621450  64.8177719  36.9560337  41.3230467
  65.2463436  35.6055641  41.8555355  56.6588211  16.3090515  68.6963367
  56.2422657  15.8442187  67.9706335  56.0821104  16.1518812  69.4439554
  33.6147437  17.2618503  23.3823390  32.8249488  17.1321363  23.9073462
  34.0170941  16.3945217  23.3366484  82.9165173  38.2664347  47.1009207
  83.1408119  38.6585999  47.9447985  82.1463013  37.7283955  47.2840023
  86.2300968  15.5673361  52.6879358  86.4920807  16.1731720  53.3811617
  85.3098011  15.7737648  52.5246048  59.1555405  34.8170328  67.0099401
  58.9781904  35.7102180  67.3048925  59.8914289  34.9064469  66.4043760
  52.9531296  72.7708293  69.5094728  52.5315388  73.6242820  69.6100140
  52.4824437  72.1983279  70.1152182   0.6518930  32.6387425   0.3552527
   0.2354902  31.7795135   0.2876706   0.2084297  33.0626847   1.0899968
  16.7026227  71.2982775  13.7426276  16.2924427  71.5375377  12.9115195
  17.5454610  71.7518904  13.7330908  38.9993866  72.1516974  46.5641260
  38.3861884  71.9874413  45.8477211  38.4698447  72.0664437  47.3569393
  69.3192244  12.2208059  37.5604868  69.1325521  11.5391839  36.9149041
  69.7144413  11.7524707  38.2958102  27.4786609  79.0885450   6.9513125
  27.9136508  78.6666204   6.2103695  28.1675476  79.6027591   7.3723359
  71.1782551  62.1841335  43.2523298  72.0885181  62.4682903  43.1692076
  70.9599638  61.8250227  42.3923159  56.8203387   2.4215622   3.9720053
  57.4613128   3.0669469   3.6739153  56.4511046   2.0607395   3.1659598
  68.7565517   4.9728918  61.4749765  69.3952084   4.2755723  61.6236210
  67.9520845   4.5135200  61.2340641  49.7781024  28.0612630  14.6278567
  50.5334601  28.5446758  14.9624915  49.9640451  27.9411048  13.6966128
  31.9587177  70.1521947   6.8744607  31.8684047  70.2855040   7.8180213
  32.9038757  70.1415922   6.7234606  66.3362068  75.7878568  18.8823504
  65.8645862  75.4145099  19.6269412  66.4334815  75.0583698  18.2702822
  29.2992061  56.8669607  15.1248545  29.7188133  56.8318238  14.2652411
  30.0271648  56.8971397  15.7456584  23.9462703  65.9304430  15.9539790
  24.2237705  65.7679989  15.0524039  23.1312507  66.4250495  15.8682913
  73.0004883  64.7084856  31.9254470  72.4013376  65.4526758  31.8668652
  73.8712788  65.1043129  31.9611979  14.9930431  32.0609236  52.5985765
  14.1184856  31.8284273  52.2866011  15.0148727  33.0170822  52.5596619
  19.2037632  15.6651783  62.9988670  18.4707691  16.0902226  63.4441710
  19.0646698  14.7299194  63.1477833  68.0614424  15.3315210  56.0831928
  68.0174971  15.3881788  57.0377016  67.2427893  15.7255745  55.7819271
  80.8704797   1.3745730  46.3403034  81.7647211   1.5729087  46.6181946
  80.8547727   0.4222052  46.2455654  29.2813343  71.5839793   2.4138207
  29.7061866  71.8254020   3.2368893  29.8265308  71.9842006   1.7364640
  42.1474457  17.8018117  65.7738113  41.8207407  18.6514056  66.0699320
  42.9222918  18.0116391  65.2524567  78.0124712  24.9625230  24.1042042
  78.3937788  25.7422733  24.5077205  77.1062565  25.2080703  23.9178944
  69.1772175  16.1312521  24.3875480  69.2153072  15.8605385  25.3048778
  68.8040304  17.0123363  24.4131398   5.2971548  59.2467644   0.9335942
   5.6647676  59.7153606   1.6829342   4.3495840  59.3065705   1.0551066
  72.1535144   2.0897836  16.9015021  72.6912246   1.3295383  17.1231360
  71.5874133   1.7843027  16.1926741  68.7213645   0.1927108  26.0726637
  69.3374190   0.8502502  25.7496352  69.1306624  -0.6453019  25.8571620
   6.7167697  34.7200269  12.8690428   5.7854352  34.5426149  13.0008502
   6.9046435  34.3769617  11.9954104  54.0676737  15.7299650  45.9669065
  53.3501482  15.1158404  45.8112001  53.7292099  16.5742815  45.6689024
  17.1219684  39.8282957  64.7844315  17.9015591  39.7667313  64.2324543
  17.2687008  39.1858530  65.4786730  34.8945659  70.0816180   1.8839402
  35.3225654  70.3895785   1.0850567  34.9198478  69.1271307   1.8165154
  40.1032004  12.1021146   2.3817248  39.6095738  12.1979780   3.1962056
  41.0165343  12.0392007   2.6611895  13.9631416  19.9125767  56.8987942
  14.8850204  20.1432085  56.7839622  13.8257076  19.9393523  57.8456974
  51.1501265  45.2284288  50.2281904  51.1933899  45.6891584  49.3902826
  50.3487587  45.5530119  50.6389046  73.0750370  23.4281588  66.0380220
  72.2464609  23.7699318  66.3740110  73.6370564  24.1988182  65.9577274
   6.6614288  51.0031905  21.8412203   6.3724607  50.9527852  20.9300704
   7.2578567  51.7515613  21.8622775  72.8277818  75.1503207  36.5735049
  72.8450052  74.2299725  36.8359847  73.2791416  75.6098153  37.2815795
  55.4347420  31.4162230  53.5734844  54.9925518  31.0151887  54.3217278
  54.9457932  32.2228074  53.4104347  18.9317983  37.2464718   3.6154885
  19.7819560  37.6761271   3.7095923  18.9554304  36.5277495   4.2472405
  66.4152473  47.5858416  19.4101424  66.4494842  47.2097250  20.2896876
  65.7516807  48.2731696  19.4692320  12.7839424  37.5982022  68.9180040
  12.4975540  38.4022403  68.4847164  13.4955646  37.8770685  69.4942474
  11.6360142  20.2281594  43.9609575  12.3429634  20.8652496  44.0637922
  11.1001350  20.3361106  44.7467136  15.2235692  47.8740110  21.7837996
  15.5312055  48.5144831  21.1424059  15.5607646  47.0362701  21.4664359
  66.7457406  58.1131841  14.7915358  66.8599192  58.0420949  15.7392401
  67.0936052  57.2910775  14.4460482  44.9182948  77.1110527  34.8922706
  44.2069825  77.7483530  34.9564242  45.1548394  77.1087001  33.9647603
  80.5401611  29.8945856  66.3293362  80.2724648  30.7228231  66.7275763
  80.6329155  29.2926812  67.0678043  84.3210697  21.5765333  60.9905624
  84.4369125  22.1296573  61.7631340  84.5079517  22.1553063  60.2514219
  79.3929529  34.9192190  34.7141433  78.7218571  35.5986118  34.7796106
  79.9115229  35.0170517  35.5127358  38.1666606  68.5911013   1.0886569
  38.4846920  67.8643252   0.5530400  37.4283641  68.9475729   0.5946202
  46.4110408  27.1489687   3.9356513  47.0416341  26.6661472   3.4013600
  46.0422311  26.4905471   4.5244546  16.2758304  28.8314629  49.0095997
  16.1280968  28.9587021  49.9467278  16.9061233  28.1126547  48.9619160
  39.3832725  70.3595950  10.7185359  39.2232364  70.9242942  11.4746661
  39.3484062  69.4706632  11.0718340  72.5336498  53.7575425   1.4710421
  72.1396106  53.5385408   2.3154397  73.1416267  54.4701280   1.6680569
  32.3260649  73.6059482  56.5631914  31.4905222  73.5047925  57.0191240
  32.6003464  74.5012797  56.7616463  12.9629852  15.5405009  59.5077562
  12.9271461  14.5862389  59.5735645  13.8151504  15.7213891  59.1111135
  18.0961754  55.9677124  48.7953711  18.2954170  55.0431490  48.6480331
  18.7411644  56.2514353  49.4432306   1.8755771  30.9789538  48.8238955
   1.0042335  30.9280920  48.4309340   2.4215557  31.3759875  48.1452942
  79.0052223  63.9602709  68.8105440  78.3382607  63.5143805  68.2884598
  79.7384405  63.3455610  68.8379765  17.8372242  21.6747546  43.4110832
  16.9694092  22.0754766  43.3605528  17.6642753  20.7348156  43.4643221
  41.7580271  72.0007038  42.8068542  41.4296627  72.7315283  42.2831154
  42.0764446  71.3683939  42.1626282  43.7279075  73.3826591   2.9105181
  44.2031330  74.0331961   3.4274239  43.0318969  73.8799693   2.4810071
  81.4089870  57.4416590  28.4658217  80.9243488  56.6178799  28.4133244
  82.3293495  57.1804667  28.4351635  65.5467510  80.1913834  58.4955978
  65.1311827  79.7397232  59.2301321  65.2866411  79.6858978  57.7254963
  51.6333518   4.8538704   6.0826296  51.7334685   3.9225692   5.8854193
  51.5238986   4.8870344   7.0329709  20.8170845  20.7981467  61.4694834
  21.7567589  20.8550715  61.2963057  20.4171707  21.3644671  60.8094978
  69.9009132   4.6305749  39.9737215  70.3169489   5.4136109  40.3342772
  68.9867306   4.8830861  39.8443246  71.9640684  54.3936825  50.2135611
  72.2253847  53.4743690  50.1605129  71.0092545  54.3680525  50.2760315
  41.6789192  58.1665863  11.2396044  41.3378852  57.4404492  11.7617602
  40.8986801  58.6319794  10.9381480  27.6251302  14.2188377  28.0835623
  26.8435941  14.1812534  27.5321860  27.9269729  13.3118362  28.1333441
   1.7743732  47.7219391  60.2938271   2.0307400  46.8261814  60.5132055
   2.2722771  47.9265308  59.5023251  26.3933231  16.6987288  43.9467144
  25.9703590  16.9546545  43.1270599  26.5273144  17.5229490  44.4146252
  44.8787063  67.2397925  35.2039141  44.3243068  66.8293359  34.5402808
  45.2212089  68.0252959  34.7774024  20.2882665  53.7917449  27.9320044
  20.2064031  54.7436752  27.9899497  19.4950050  53.5104408  27.4761099
  62.7336822   1.1889333   0.5247588  63.2603297   1.8681736   0.1034445
  62.5617442   1.5292997   1.4027257  79.2819548  42.2450018  66.4992142
  79.5426369  42.8231049  67.2162008  79.0082979  42.8388453  65.8001423
  10.0717499  50.9643316  58.5789156   9.7302582  51.2453747  57.7300167
   9.4636299  51.3373280  59.2171097   5.6564094  10.6663692  58.4313011
   6.5551235  10.9749985  58.5466146   5.5835010   9.9156487  59.0206528
  55.8561263  13.5413999  36.6592688  55.4272781  12.6870508  36.7083258
  55.1701102  14.1367645  36.3573546  26.5434124  34.0084529  67.2464323
  25.6644298  33.9467573  66.8725061  27.1283676  33.7928796  66.5200758
  32.0474380  69.3687131  16.4018435  32.7612155  69.0122988  15.8729548
  31.3150161  69.4514014  15.7911486  73.0764675  45.7983541  58.1268311
  73.8691092  45.6577492  57.6089764  72.3759079  45.4101610  57.6026583
  39.3384784  72.0481493   6.8349261  39.4517272  72.9149725   7.2248311
  38.7263244  72.1885564   6.1125798   9.6908428  25.4565501  53.6892605
  10.4515507  25.5333400  54.2651606   9.9266865  25.9631348  52.9120970
  33.2880020  20.5010366  67.3328733  33.8099909  20.5629802  66.5329218
  32.4281263  20.8405042  67.0846653  53.6492572   2.0521373  24.1083712
  53.3034835   1.3445158  24.6523852  54.5963798   1.9136161  24.1087431
  43.3632979   8.2144184  41.0756964  42.4580846   8.0468530  41.3378806
  43.3508144   9.1061945  40.7281203  26.3747646  30.0573373  42.8708887
  26.0058262  29.4963169  42.1887064  26.8851902  30.7111812  42.3932028
  58.8880676  44.0578540   9.1217131  58.6858028  44.9926014   9.0820975
  58.2913631  43.7115939   9.7852511   5.5455249  53.7030091   7.8065629
   6.1447662  53.0271186   8.1232876   5.6132596  53.6554004   6.8529505
  71.5672970  40.2586651  53.3401871  71.8988657  40.2585363  54.2381287
  71.4215183  39.3343639  53.1385660  26.0928291  73.3790590   0.0797648
  26.7364162  72.7155735  -0.1688629  25.5649894  72.9582812   0.7584138
  51.1677585  29.8421545   0.8378501  51.3112197  30.7853527   0.7602448
  50.8593307  29.7198696   1.7357106  86.7549706  19.8984826  50.4949474
  86.0593224  19.2758012  50.7060862  86.2924480  20.6916571  50.2244329
  73.1003040  38.8087541  11.0463900  73.3503574  38.9138048  11.9643588
  72.1585124  38.9793107  11.0336585  19.2093326  35.9539986  18.5596251
  18.5584690  35.5826068  19.1551697  18.7358143  36.0834718  17.7378941
   7.9112007  29.3366885  70.1192808   7.2542145  29.6196604  69.4832516
   8.7190105  29.7648430  69.8358107  34.6698985  11.3391084  15.6327910
  34.1889033  11.9857997  15.1163954  35.0747333  11.8471021  16.3358397
  37.7398896   1.3884152  42.6450729  38.0437255   2.2908625  42.7425623
  36.8701911   1.4694776  42.2535515  16.4554780  70.5286099  16.2490172
  16.4473623  70.8641531  15.3525920  16.7308563  71.2747838  16.7815775
  50.5083704  19.2839694  61.2612438  50.2138233  20.0208163  60.7259607
  50.1346874  19.4519043  62.1263409   6.7821266  64.4309664  53.0725193
   5.9174969  64.6872139  53.3934259   7.3204948  65.2146864  53.1828451
  79.7291136  30.8455086  61.5832710  78.9321852  30.7223940  62.0990086
  80.4349518  30.5520344  62.1593714  85.9794227  60.3328587  32.4033541
  86.5439169  59.7254111  31.9252486  85.1624910  60.3436567  31.9046206
  28.2587292  33.6303473  57.0583534  29.0403892  33.5611081  56.5102243
  28.4727432  34.3116593  57.6957321  34.5853267   4.2007227   7.2604556
  33.8032136   4.3150158   6.7205805  34.3029676   3.6269302   7.9726834
  76.0237360  25.0372434  36.8455267  76.9249010  25.2967072  36.6536450
  76.0108662  24.0911674  36.7005920  39.1765866  15.0418634   9.1901059
  39.2503629  14.1368455   9.4929785  38.2530913  15.2612466   9.3136496
  18.4861225  79.4324090  41.8654723  18.4416908  78.4766962  41.8360133
  17.6837963  79.6956946  42.3162455  43.6820316  13.5684645  38.5224319
  44.0680313  12.7016497  38.6484075  44.3464279  14.1760480  38.8474727
  80.2897541  62.5283028   1.4562745  80.9839622  62.4919392   2.1142907
  79.5146886  62.1931578   1.9070382  44.7179367  15.8003080  41.8016434
  44.0927746  16.3198292  41.2961817  44.4816830  15.9631896  42.7148199
   8.6977913  49.4991684  61.8117476   8.8383438  48.7638426  61.2152815
   8.0406143  50.0403118  61.3741255  20.0165552  49.8080327  15.6485552
  19.8812955  50.2897759  14.8325533  20.4539817  50.4334684  16.2262435
  19.8119690  28.6140609  47.2030926  20.4851772  29.2120934  46.8784714
  20.2228309  27.7501631  47.1698761  40.1947063  81.4185120   0.6611199
  40.0015491  82.1313836   1.2699933  41.0258239  81.0580708   0.9702534
  59.8478270  24.5150304  49.6673012  59.7375154  23.6769152  50.1163292
  60.7948399  24.6527553  49.6464491  81.6267490  31.9244123  54.2866564
  81.4769650  32.4483061  55.0736332  80.7662106  31.5651584  54.0707064
  18.7913372  28.8851237  41.4153624  19.1855575  29.2389560  40.6181049
  17.8482105  28.9579988  41.2689209  28.7991470  77.7847053   4.7594781
  29.0294975  77.8477527   3.8325495  29.6191066  77.5512983   5.1947016
   6.9115108  60.4056861  33.0529875   7.5038904  60.8380248  32.4378485
   7.2057146  60.6991722  33.9152712  79.5135164  76.1764574  35.1503301
  80.3771591  76.0020638  34.7762489  79.4843006  77.1277666  35.2522492
  58.3583069  65.8419609  66.7544842  58.3109140  65.9166813  67.7075815
  57.4714422  65.5986929  66.4889145  11.8957704  80.8366563   8.6944336
  11.7853874  79.9752332   8.2919449  12.8282493  80.8848740   8.9051146
  58.7466097   3.3037466  52.2388935  58.0685949   3.9792973  52.2262812
  59.4506502   3.6808369  52.7664948  11.8182891  42.1080905  23.4207339
  12.7666467  42.0351187  23.3133883  11.5573019  41.2763648  23.8161463
  78.7296534  39.5375800  66.3599539  78.7172747  39.4878531  65.4041243
  78.7124729  40.4753113  66.5512466  72.7907705  41.7271042  36.1868024
  72.1395206  41.0259199  36.2078309  72.2996998  42.5019741  35.9135675
   3.3659738  61.2214925  20.4089446   2.4356693  61.0483195  20.5530829
   3.4969133  62.1123173  20.7337851  72.3951769  38.8391972  25.7840943
  72.0818806  38.6568308  26.6699958  71.5985727  38.9094615  25.2580547
  76.0359049  35.6876254  22.1814036  75.8319187  34.7619057  22.0484900
  76.8839407  35.6846762  22.6253223  32.5936828   4.3189020   4.6066517
  32.3298202   5.2331276   4.7105784  31.7810760   3.8225145   4.7041125
  10.3616669  35.6007481   3.3866042  10.6944706  35.7370138   2.4995266
  10.1465370  34.6686769   3.4211600  18.3898308  17.3162651  67.7176714
  17.5060417  17.4786127  67.3878431  18.4485103  16.3633478  67.7864981
  73.0124807  19.9232495  59.7981644  73.0979013  19.2134964  60.4347086
  73.7198973  19.7697294  59.1718912  61.5171146  16.4160442  29.1471314
  62.3651266  15.9827948  29.2440820  61.3704538  16.8466210  29.9893475
  53.8096857  12.8862309  43.3415508  54.2617321  12.0538592  43.4795332
  54.4337368  13.4188366  42.8484726   6.9808922  68.0877442  34.6219516
   7.8296433  68.2164438  34.1985273   6.8916187  68.8361938  35.2119398
  81.6489697  10.8521700  44.5807219  81.9736671  10.4136348  45.3671646
  81.1083221  11.5691388  44.9122190  42.4566120  54.6093776  35.8230300
  41.6939681  55.0219728  35.4176039  42.5174087  53.7520601  35.4016776
  85.3795663  81.3888671  19.0467925  84.5164863  81.7879845  18.9371390
  85.3115598  80.5447866  18.6005492   2.4902862  61.4928080  13.6994547
   1.7376178  61.7638304  14.2250628   3.0683845  61.0489561  14.3199629
   0.9537651  24.9315476  64.4045162   1.4242699  25.6161666  63.9289618
   1.3791229  24.8995805  65.2614212  79.1220126  13.6626405  36.7374034
  78.7119422  14.2168064  37.4014659  78.7128291  13.9316816  35.9149642
  18.2794898  80.3404714  19.0899462  18.3730215  79.4257929  18.8237757
  18.5189861  80.8423306  18.3108420  63.0796814  30.0885701  37.3538351
  62.9782867  29.1370320  37.3309231  62.7739811  30.3827453  36.4957905
  54.3891662  62.6734020  11.9662184  54.3327945  63.4319903  11.3851828
  54.4396251  63.0483844  12.8454585  65.5759463  21.0119791  10.7849497
  64.6947131  21.3782901  10.7109446  65.4457507  20.0645704  10.7437892
   4.1813232  36.6375685  55.7766294   3.6022903  36.3705277  56.4905167
   4.8085167  35.9190488  55.6954288  48.1938942  56.8801958  53.8503122
  48.8444813  56.9570739  54.5482063  48.3058413  57.6756747  53.3298206
  59.5381403  39.8757601  57.7932167  59.2198277  39.2032409  57.1910334
  58.7889051  40.0657129  58.3578348  14.1826957  65.7552697  23.2280345
  14.4714492  66.5051724  22.7079386  14.5027297  64.9923875  22.7465529
  31.5881429  23.9789886  14.2863078  31.3321672  24.8474474  14.5969290
  31.4500556  24.0128727  13.3397193   1.2247707  19.2870378  53.3474874
   0.5869915  19.1116667  52.6555967   2.0738651  19.1192448  52.9386902
  12.5849201  30.1855278  55.2341032  12.9109146  31.0805321  55.3285742
  11.6704799  30.2330017  55.5130053  14.8042482  74.3193461   0.7390637
  14.7703641  75.2730967   0.8128686  14.9717325  74.1567518  -0.1892381
  17.3556473  46.6934681  33.7177801  17.7679588  46.5585566  32.8645325
  18.0820228  46.6724300  34.3408060  78.2886744  47.4686670  46.4107943
  78.9912796  47.8835630  46.9112301  78.7421989  46.9392014  45.7548857
  59.8866878  10.2347965   7.7302546  59.5938430  10.4338712   8.6195511
  60.2663455   9.3584032   7.7936644  23.3196403  36.1528301  60.1265907
  23.5980560  36.7158461  59.4042826  23.8939812  36.3940096  60.8533621
  52.0335136  26.5883512  17.1609969  52.7304397  26.4455051  16.5205950
  51.7912040  27.5077266  17.0502371  41.7679010  20.9105177   5.6341691
  40.8845792  20.7552070   5.9686179  42.0587859  21.7031831   6.0850520
   3.3031036  30.9634471  32.7734160   3.2152702  31.3037038  31.8830538
   4.1327240  30.4860377  32.7666259  81.5490947   9.0911121  27.9348940
  81.2720332   9.7280378  28.5935301  81.8406711   8.3335132  28.4420962
  72.4307394  28.2043052  63.7090206  72.6243973  28.8365412  63.0169153
  71.4934158  28.0317140  63.6203384  58.3641100   8.5147476  40.2327299
  58.6379099   8.3691955  41.1383104  57.4123955   8.6045545  40.2817488
  34.6833938  77.2336675   9.5776267  33.8367504  77.4438931   9.1836447
  35.1937526  78.0389764   9.4925208  75.6001792   0.0158948   7.7742762
  74.8839984  -0.5569582   8.0484147  75.2260814   0.5475874   7.0717187
  27.0192760  78.8949158  18.1027884  27.0481723  77.9540541  17.9290766
  27.8039306  79.0665509  18.6234469  17.4619621  80.4532244  21.6038508
  17.7909702  80.6636740  20.7299513  16.6363471  80.9329106  21.6708750
   3.8148929  31.8042254  69.6302509   4.1670467  32.6896238  69.5391893
   3.8385631  31.6326976  70.5716610  42.9266057  44.7189159   6.0451598
  43.0778060  45.4688568   5.4698653  43.4473691  44.0135688   5.6610674
  43.5614476  12.1288223  33.8252635  43.1551919  11.2824125  33.6387724
  43.1900010  12.3924703  34.6671385  73.8805199  50.4899979  38.1227422
  73.8796997  50.6931686  37.1873522  73.6015558  49.5755434  38.1694603
  79.5629311  45.7620955  69.9255133  79.5945978  44.9211979  70.3817129
  79.8110151  46.4046669  70.5901861  26.5385192  59.1386916   5.8702082
  25.9842914  58.7799146   6.5632720  26.2259239  60.0359012   5.7538933
  10.1055576  70.6564951  67.6342821  10.5839016  69.8559475  67.8500032
  10.4883434  70.9486961  66.8070459   1.7652180   9.7414911  45.1516485
   1.1301758  10.0050497  44.4856977   1.8932201   8.8045985  45.0030613
  85.9519672  55.1380396  45.7623291  85.1154137  54.9890184  45.3216410
  86.2155342  56.0156012  45.4854774  46.7759269  79.6630742   1.9677443
  46.8999237  79.6254470   1.0193581  46.8356460  78.7514641   2.2534604
   5.7325985  50.0880527  31.5692687   4.9808742  50.6051540  31.2798762
   5.3518440  49.3877554  32.0992136  45.5172000   7.8956289   8.8752455
  45.0091968   7.2541732   9.3719287  46.1999688   8.1820459   9.4818968
  56.6002879  16.1524601   7.9850239  56.4446197  16.3424224   7.0598692
  57.4476180  15.7074089   7.9988761   0.3227569  30.9949136  61.0245562
   0.3022911  31.9453049  60.9124279   0.7953026  30.8607864  61.8461037
  54.6360526   1.3023252   7.6904769  54.0672145   1.4228792   8.4508223
  55.0936160   0.4792089   7.8617854  67.7329445  34.2755413  53.5886860
  66.9478273  34.5536733  53.1170177  68.4456015  34.7637630  53.1763887
  52.0651007  13.4788060  45.5210066  52.4368525  13.3807826  44.6444082
  51.1210442  13.3867705  45.3924704  32.9224151  71.9553329  16.9634528
  32.0552581  72.3181297  16.7827601  32.7525371  71.0544397  17.2387023
  31.4236110  77.8297855   8.7427468  31.2638133  77.2988035   7.9625220
  30.8333820  77.4679162   9.4037432  70.9683045  80.9294371  63.6277676
  70.8018120  81.3626301  62.7905941  71.0946377  81.6474522  64.2480278
   6.8198063  60.1496029  67.0700312   6.9004299  59.7573280  66.2006330
   6.9101955  59.4129324  67.6744986  17.9009765  77.5162865   0.3268094
  18.8409894  77.4509122   0.4951520  17.7606672  76.9859101  -0.4575639
  77.7900062  30.9980936  31.6328616  77.7955470  30.3436203  32.3313422
  78.0973373  31.8007154  32.0542616  59.9289165  17.9489584   4.4367308
  59.8149238  17.3818559   5.1993794  59.9352012  18.8359136   4.7965951
  36.0002933  17.5640983   5.6160636  36.6848788  17.6724882   6.2762351
  35.8211026  16.6238470   5.6089778  73.9685917  25.3250122  45.8594227
  73.5354471  25.4787588  46.6990519  74.4433308  24.5028973  45.9818220
  21.2169411  28.6773467  63.4377098  20.6971695  29.3843126  63.8201523
  22.1185924  28.9967227  63.4732914  52.2587212  76.6806776  26.2204576
  52.6130207  77.5249536  25.9413552  52.2829255  76.7150999  27.1767330
  73.5217953   6.4572453  65.5067253  74.1258955   6.0137004  66.1021757
  72.8776217   5.7877129  65.2765083  61.5706730  21.1247921  41.5173817
  61.4944124  21.8288207  42.1613979  61.1858606  20.3622437  41.9494343
  57.5008059   9.2256910  47.2520161  57.6726961   9.9538678  46.6549873
  57.7970982   8.4502095  46.7754984  85.9634876  19.8508394  64.6752787
  86.3422966  18.9999986  64.4543695  86.0810280  20.3778338  63.8849020
  67.8628365  41.3937024  10.3027339  67.4719683  42.0484588   9.7241587
  67.4513570  40.5691472  10.0438399  61.7815781  31.2474966  62.6907206
  61.2796307  30.7051706  62.0823097  61.3040733  31.1842084  63.5178947
  57.0898852   8.1301469   6.7498488  57.7733741   7.7880210   7.3260636
  57.2569881   7.7117176   5.9053177  67.9656730  13.2293052   0.7777447
  67.9615054  12.2747011   0.8480687  67.5592265  13.5310859   1.5901227
  86.5716457  37.2737837  31.3468170  85.8624268  37.8312373  31.0266757
  87.0202065  37.8091097  32.0013714  22.4800342  73.4031464   8.9254469
  22.0763868  72.8267934   8.2765097  22.5044387  74.2610480   8.5016055
  29.6798851   2.1906060  46.4771986  30.1184418   2.9121238  46.0262918
  29.4512035   2.5480548  47.3352003  78.8055754  66.9058228  40.0689220
  79.3727779  66.1359262  40.0267553  78.1960630  66.7155075  40.7820177
  15.5868580  26.9531322  63.4346867  16.3619282  27.3741531  63.8065052
  14.8685314  27.2276092  64.0046835  24.2680027  24.3965960  62.8484058
  25.0263454  24.0419149  62.3843527  23.8639213  24.9977422  62.2226429
  17.3281624  37.6395774  66.6843224  18.1948711  37.8173065  67.0496464
  17.2003414  36.7002726  66.8169880  82.7189350  48.2300138  61.4897871
  82.0569992  48.5078382  62.1229458  83.2651424  47.6087332  61.9713449
   0.4260303  42.0539856  51.7327642  -0.4846333  42.2399950  51.5040350
   0.7140304  42.8274870  52.2175169  64.7091055  24.7559619  48.7322569
  64.6041536  25.2108574  47.8966236  64.9964619  25.4364872  49.3409824
  56.8470391  79.1333563  32.8137159  56.6425999  79.6120083  33.6170411
  56.4241131  79.6388049  32.1195316   5.9301712  21.6055250  61.7441750
   6.2519123  20.7104897  61.6363287   5.8761551  21.9496822  60.8526182
  76.8338537  32.3804092  55.1261759  77.3430681  33.1898189  55.0838375
  76.0595369  32.6111484  55.6394291  25.6980747  72.8097297   4.1380543
  25.6395858  72.2212889   3.3853621  24.9139732  72.6188375   4.6528048
  53.0606755  76.0103936  38.5260916  52.8155621  76.6615088  37.8686762
  53.0088337  75.1731891  38.0649710  50.1094532   5.7118642  64.5606327
  49.3619204   6.2710589  64.7721243  50.8466530   6.3172710  64.4815683
  25.1841881  16.7388475  41.4586926  24.3571236  16.8353748  40.9865952
  25.6753017  16.0923052  40.9517241  84.1593647  11.0702407  42.8981495
  84.5850468  11.9254756  42.9581165  83.2974052  11.2035549  43.2924795
  49.4205898  34.3776693  21.4326853  49.5725769  34.7662159  20.5711932
  50.2612346  33.9867063  21.6707797  58.6519768   4.9527043  38.1372905
  58.0853226   5.4654115  38.7137127  58.3953144   5.2155972  37.2534108
  55.7925320   8.1299102  51.3404846  55.1907730   7.6002467  50.8174419
  56.6281509   8.0707222  50.8773756  57.4816179  22.8194237  49.7389793
  57.2100401  22.3866892  50.5484343  57.9675913  22.1481657  49.2599440
  76.3091850   2.8421137  47.3755789  75.8181238   3.6545390  47.2528791
  77.2103643   3.0701569  47.1473217  36.3682469  80.1275590  50.8431149
  36.8567618  80.0024746  50.0295162  35.4639252  79.9121147  50.6150341
  48.8163813  69.0656395  49.9498272  49.5778807  69.4103701  50.4162169
  49.1292008  68.9168079  49.0575123  22.6177170  16.9784498  46.3722134
  22.7053024  17.9306555  46.3290167  23.1915523  16.7175782  47.0925522
  54.6593960  55.7456047  53.5756159  54.4570359  55.0439603  54.1944695
  54.4374188  56.5499933  54.0445709  67.7259111   8.7775576  52.9037523
  68.3789015   8.9728034  52.2316599  67.1898937   8.0823749  52.5221300
   4.1003467  24.2793393  19.9709535   4.6778251  25.0419092  20.0061774
   4.3343117  23.8392687  19.1537452  85.3065205   7.2692585  60.5503941
  84.8687744   7.4836612  61.3741875  84.5999908   7.2352713  59.9055004
  71.7861128  12.4902570  46.5427446  72.4200296  12.8700876  45.9343767
  72.0214415  11.5634513  46.5861559  62.8869724   1.4730535  49.8206949
  63.4187698   1.5003075  49.0252829  62.5247574   0.5871734  49.8364019
  46.3626418   3.5276956  18.1220336  45.9114394   4.0905256  17.4928565
  47.1483979   4.0187616  18.3622069  53.6145496  28.8303757  69.1196871
  54.5616245  28.6958122  69.1538858  53.2838726  28.4082699  69.9126005
  83.2709599  29.4547534  56.7655659  82.9359818  29.1903615  55.9087563
  83.5834503  30.3499961  56.6347218   9.6725609  31.4893627  43.7497950
   8.7328007  31.6712356  43.7477350   9.8341801  31.0734797  44.5966434
  64.1647625  11.8485343  56.0100508  63.7164402  11.6403711  55.1903534
  64.2355204  11.0089362  56.4642572  26.6449207  68.3817364   7.2225613
  26.7929882  68.4328582   8.1668562  25.7143444  68.1745436   7.1369166
  42.7539452  62.3593540  57.6020050  43.4271773  62.8832311  58.0362272
  43.1287773  62.1489281  56.7467546  70.6815856  58.9632727   9.2694134
  70.1510757  59.7323467   9.4775481  70.3565258  58.6714305   8.4177155
   2.1511986   3.0392367  46.7146683   2.2820331   3.4358045  47.5759745
   2.8629543   2.4044865  46.6326284   2.0229103  10.4109097  68.3310890
   1.6041042   9.6229976  67.9846430   1.3204052  10.8751369  68.7862968
  14.4650986  25.5795240  27.0153069  15.1053764  25.4634905  27.7173114
  14.9929382  25.7548046  26.2362719  15.4419281  30.1294184  65.0842381
  16.0125877  30.0775242  64.3175030  14.6599342  29.6371078  64.8345423
  29.4891121  18.1398010  66.1421776  29.9603416  18.1458914  66.9753313
  30.1269676  17.8111398  65.5086470  79.8650837  48.1239843  13.7620497
  78.9681292  48.0686092  14.0916562  79.8254108  47.7271843  12.8918731
  40.4263401   6.4063233  52.7856827  39.9849749   7.0946950  52.2881126
  41.3528061   6.5105522  52.5688267  13.5523790  69.5656063  15.4062266
  14.1056102  70.1256205  15.9507937  13.4809059  70.0350262  14.5750994
   5.7369178  55.5029942  35.6310172   6.5374511  55.6730809  36.1274523
   5.7394498  54.5563223  35.4894633  70.0158119  28.5907722  33.3104682
  69.5626259  28.1832409  34.0485549  70.5601549  29.2698073  33.7090039
  71.5319443   8.4969431  35.8334661  71.3971853   8.1742835  36.7245126
  71.1656046   7.8128624  35.2730536   4.5370724  60.6658745  22.7796292
   3.6251213  60.4861498  23.0082822   4.5997192  60.4422092  21.8510389
  68.0626631  27.8566766  66.0788822  68.7326097  27.4184060  65.5541706
  67.7528858  27.1823716  66.6835117  61.3501263  33.6514115  43.2008839
  61.6262770  32.8800869  43.6958885  62.0336771  33.7701559  42.5414228
  74.4007492   4.6092254  47.3494577  73.7067270   4.5074856  46.6981363
  73.9487171   4.5555738  48.1914949  18.9380218  23.4526682   7.7967799
  18.8547470  24.3768644   8.0316448  19.3370678  23.4616518   6.9267720
  22.7157165  29.0471911  67.1975756  23.4074642  29.1122270  67.8559685
  22.5597050  28.1072283  67.1061277  43.7929924  70.4062826  47.5245142
  43.4910353  70.7218904  48.3762455  44.1479405  69.5355959  47.7038097
  46.4141355  18.1382722   0.5147118  45.6536994  17.6060457   0.7486004
  46.2787185  18.3573837  -0.4071813  71.0501909  33.1355357  36.3480735
  70.4600239  32.4325013  36.0766411  71.8388653  33.0026174  35.8221841
  33.7009956  19.3321335  61.5670967  32.8994896  19.3168092  61.0440493
  34.1641285  20.1164150  61.2727451  20.8328392  21.2904239  29.4286275
  21.1365368  20.4993963  28.9833450  21.4472915  21.9709277  29.1536760
  21.4758581  44.2346139  36.2953085  21.7700857  43.3527298  36.0673995
  20.6131500  44.1049554  36.6891951   7.6336529   2.5994763  55.4985332
   7.0963146   2.5194055  56.2866306   8.0995609   1.7653325  55.4405451
  46.9660187  14.2399096  44.6871996  47.2996187  14.8222518  44.0046930
  46.3859797  14.7924888  45.2110720   1.9549515  30.9111190  57.2895765
   2.3179008  30.9690595  58.1733942   1.4073517  30.1262069  57.3065138
  50.5140265  69.5516331  45.0910425  50.2381476  69.9359781  44.2589331
  51.4698132  69.5347078  45.0418568  82.2869023  64.4408555  56.3587475
  82.2926529  65.3923447  56.2545061  81.6105088  64.1376419  55.7531261
  48.2785519  66.2698574  50.5835819  48.8063439  67.0417351  50.3789616
  47.9853018  65.9474416  49.7313547  82.3628998  22.3832035  67.6945257
  81.6778278  22.0938516  68.2971716  82.0225620  22.1710920  66.8253803
  82.1886539  57.9465199  67.4428654  82.5699615  57.1149111  67.7243948
  82.7868080  58.2681084  66.7683077  16.1489433  18.3310129   1.5096182
  16.9600767  18.1376030   1.0396332  15.8229536  17.4748852   1.7871232
  55.2800417  28.3373928  51.1191702  55.6673717  28.9203882  50.4662371
  56.0306120  27.9420567  51.5625525   3.8483272  27.8884811  30.5018420
   4.3696675  27.3230476  29.9320025   3.0787954  28.1120271  29.9783129
  11.1330845  35.9779167  63.8590431  11.3181354  36.9065142  63.9993715
  10.2130272  35.8774757  64.1032743  76.0576769   7.5884695  19.3755145
  76.4983555   7.3771066  20.1985354  75.4565902   8.2984180  19.6011252
   0.2666555  13.5597057  18.1138033  -0.1156154  14.3821353  17.8076739
   0.3599701  13.6762542  19.0592856  49.9649620  31.6743588  56.8280697
  49.0198040  31.5794778  56.9460106  50.3322029  30.8601618  57.1722364
  36.2999950   3.5143728  19.8509116  35.5482087   4.0207357  19.5432658
  35.9388194   2.9307718  20.5181403  29.1232416  52.6077248  13.8789458
  28.8185906  52.5858440  14.7860999  30.0601924  52.4204864  13.9363570
  12.9238162  24.0642662  33.4772009  13.3884511  24.3361539  32.6857371
  12.7589688  24.8798961  33.9502806  76.8316539   4.3151111  18.7797541
  76.0498365   3.7950344  18.5939784  76.6569634   4.7140569  19.6321387
  12.6443801   4.5664806  45.5756087  12.7829251   4.9969692  44.7319789
  12.3131118   3.6973686  45.3494734  42.9084162  71.2696387  50.0814528
  42.4396221  71.3065078  50.9151835  42.3605744  71.7695524  49.4763178
  37.7859972  60.3894581  25.2864737  37.4590192  59.5920529  24.8699851
  38.4505717  60.0823714  25.9031291  82.6697047  37.8852052  21.6898722
  82.8832682  37.2732563  22.3942465  83.0233629  37.4749012  20.9006877
   0.8536182  14.6485776   2.3632378  -0.0890961  14.8065776   2.3126216
   0.9381161  13.8843841   2.9334111  50.7522821  48.2133389  47.9694605
  49.8019075  48.1106043  48.0191326  50.8796310  49.0761900  47.5751305
  17.9539476   8.7300224  16.6615481  17.5264535   8.2545251  17.3738570
  17.2418056   9.1958303  16.2232394   9.2052898  16.5773744   7.2400326
   8.8428388  16.0799617   6.5069289   9.7093449  15.9349269   7.7394528
  41.7331252  18.7698717  23.6270041  41.9568000  19.5324869  23.0935092
  42.4441991  18.7067861  24.2646784  78.1245430   5.1809473  15.4431052
  77.9344996   5.8077402  16.1411376  79.0120991   4.8754711  15.6306166
  54.8101989  51.2684037   5.5622000  55.7540790  51.2600555   5.4032940
  54.4651047  50.5820401   4.9911971  57.1283070  65.8243825  42.1790881
  57.0097343  65.5186607  41.2798018  56.3936679  65.4436566  42.6603217
  21.8273625  21.6768474  23.8565917  22.4289546  22.3968954  23.6672492
  22.2930703  21.1373920  24.4956011   8.3748096  61.6358234  34.8955531
   8.3338541  61.9976403  35.7807917   8.3643669  62.4026014  34.3226904
  56.6258041  77.7490999   5.0791163  57.1443955  76.9488599   4.9959940
  56.0799734  77.6016380   5.8514876  57.9561206  15.7990427  21.9671053
  57.2074305  15.9329576  22.5482745  58.5750613  15.2872629  22.4878878
   8.5774142  35.5201244  64.3126249   8.7220860  34.5952582  64.5124292
   7.6275456  35.6292582  64.3581390  86.0673459  17.4845619  27.6293654
  86.5026363  17.3777933  28.4751505  85.8641155  18.4186811  27.5808138
   7.7402577  33.6868257  10.3611941   6.8456302  33.5786218  10.0384516
   8.2574663  33.0683631   9.8452277  29.7360545  79.9075939  25.5926222
  29.0287448  79.2691185  25.5015559  29.3596796  80.7287766  25.2760310
   4.2873798  58.4448642  12.7284808   4.6650014  59.3208713  12.6494593
   4.1857252  58.3119888  13.6709494  67.5511495  42.3873168  17.2941775
  67.6116888  43.3217223  17.0955462  68.0061642  41.9584228  16.5694327
  45.6150440  73.1633188  39.2901320  45.3396932  72.2520258  39.3899245
  46.5709607  73.1300904  39.3269057  71.5293018  77.0785476  29.1846938
  71.1336414  77.4200823  29.9865908  71.5872137  77.8374078  28.6041636
   5.8103047  14.0572137  21.0311694   6.5105686  13.9469070  21.6743655
   6.1853323  13.7356968  20.2112860  72.6773663  14.8260517  59.6635241
  73.5846301  14.6720810  59.9269576  72.3496028  13.9612789  59.4166083
  20.0104556   8.6423654  58.7928290  20.8831821   8.4656829  58.4415907
  19.7149930   7.7989311  59.1356844   9.7153316   7.5314350  23.3307356
   9.1644011   8.0254097  23.9379401   9.2411838   6.7119855  23.1896014
  18.7803063   9.3585558  33.0707545  18.9545331   8.4719963  32.7546973
  18.6884866   9.2612190  34.0185542  15.5171571   6.7892665   7.5661892
  15.2206836   5.8920211   7.7187724  15.3857741   7.2308750   8.4052081
  14.0429483   2.7931518  20.0448699  13.7806926   2.1365709  20.6901259
  14.6313748   3.3773107  20.5231471  67.9540602  69.4214489  14.9032015
  67.2017805  69.3013789  15.4827685  68.1743542  68.5371687  14.6103663
  40.4343979  53.8053872  41.6536803  40.2100042  53.1137432  41.0311789
  40.0895397  54.6055021  41.2572951  59.8475496  79.4824077  33.0390925
  58.9044730  79.3284370  32.9831595  59.9255435  80.4037549  33.2866091
  72.3031370  67.0306804  41.4517397  71.8173401  66.8053128  40.6583685
  72.3349468  67.9873468  41.4494795  76.0058443  69.0325405  21.2134738
  75.6965009  69.9173953  21.0196395  75.5735389  68.4797241  20.5625147
  55.1176039  79.0239693  20.3700347  54.6343438  78.7696363  19.5839018
  54.7275607  79.8580481  20.6315894   9.3247137  38.1123943   4.0112490
   9.4745526  37.1744794   3.8925500   8.6257706  38.3235044   3.3922619
  83.1522028  16.5245765  62.2084332  83.1603138  15.9885733  61.4154196
  83.3706371  17.4055045  61.9043398  49.4787550  70.1805258  63.5741043
  48.7205696  70.7633066  63.6160517  49.6915960  69.9981642  64.4893503
  66.4302363  30.2383871  28.2502455  66.8543895  30.7938976  27.5962252
  66.7800899  29.3630285  28.0841631  21.9028268  20.9829921  14.2267794
  21.9518790  21.4043922  13.3687300  22.3784623  20.1596374  14.1168017
   9.7711215  29.3539114  22.7674574   9.2264090  28.6913890  22.3425097
  10.3892956  28.8513679  23.2980628  21.0624061  32.9568405  10.6867499
  21.9252429  33.1763525  11.0382552  20.7637105  32.2240848  11.2253470
  28.8482318  17.7920217  37.7319521  28.9184413  18.7283964  37.5462145
  28.8880334  17.7335472  38.6865325   9.4266122  79.1197397  28.6187739
   8.6362022  78.7251784  28.9872927   9.2063516  79.2859794  27.7022166
  68.1903116  50.7214995   9.7805876  68.2457582  49.9679388   9.1929621
  67.3275844  51.0978987   9.6066470  20.2720523  33.2770872  47.6392221
  19.9483573  32.5864983  47.0608282  21.2073565  33.3342910  47.4438620
  70.2529104  14.3585128  39.4812197  69.9023934  13.5866184  39.0367503
  71.0908564  14.0677614  39.8411364  14.6142373  15.5646438  15.2169985
  14.1449151  16.1709756  15.7900042  13.9268289  15.1374120  14.7059531
  60.3009462  42.3850727  59.9137354  61.1896420  42.3076153  59.5666742
  60.2512026  41.7158461  60.5963039  82.2848233  21.1600656  22.8573126
  82.9767569  21.8138237  22.9576201  81.9752153  21.0002679  23.7488455
  10.5878100  37.3809833  17.6351542  11.2754712  36.7610569  17.8781504
  10.0680957  37.4866457  18.4319968  21.2141070  41.2447376  29.1528887
  20.3944240  41.1322898  28.6715407  21.8499694  40.7171077  28.6696524
   6.7962730  20.9676456  69.0457869   7.3589361  21.6833401  68.7501144
   6.3289446  20.6893229  68.2581520  85.1884882  62.7570774  68.4234614
  85.8381216  63.3881094  68.1136126  85.1948539  62.8547551  69.3756480
  12.5476926  73.2732608  21.0712523  13.0537742  74.0854575  21.0924811
  13.1860202  72.5880648  21.2694449  54.4156758  56.8791117  14.2864317
  54.3243305  55.9374334  14.4317908  55.2163116  56.9650199  13.7689013
  37.1615348   5.9924192  24.8896021  37.3819766   5.1516456  24.4886775
  37.1120629   6.6028947  24.1540045   0.8329616  11.7051572  39.4960494
   0.1763210  11.9836874  38.8577170   1.5282021  12.3592872  39.4254584
  42.3419189  59.5038271  68.3110571  42.4729013  60.3799629  67.9484797
  42.0182180  58.9856243  67.5742292  39.4431973  56.9636583  66.3067389
  39.2004514  57.8538513  66.0520554  39.2970729  56.9368076  67.2523403
   8.3355917  70.7745406  13.6256398   7.6788671  71.3298460  13.2054223
   8.9636089  71.3902613  14.0034093  70.4737910  14.7826833  32.7413268
  69.8452326  15.3495760  32.2943587  70.2101513  13.8949604  32.4990935
  64.3358578  23.5460300  34.8704905  63.6674495  24.1301603  34.5123667
  64.0032466  22.6656932  34.6955390  72.9492613   3.3469314  39.3660445
  72.9416283   2.4482650  39.0365405  72.0431932   3.5147590  39.6250910
  29.8552499  30.7894487  12.2963042  30.5140529  30.1138038  12.4566741
  29.0336738  30.3064699  12.2069926  48.0974034  81.0156180  11.0273261
  48.7413518  81.6234042  10.6637950  47.7913002  80.5117060  10.2732653
  14.7178834  79.7467019  11.8842501  13.8214105  79.4113161  11.8749804
  15.2645343  78.9665200  11.9776244  80.6913932  10.0932760  21.5790457
  80.8219989  10.6886978  22.3170466  81.5629299   9.9909658  21.1966986
  26.4187322  22.8592844  38.6621279  25.6170688  22.9123849  39.1824622
  26.6503892  23.7710590  38.4853930  51.9697708  73.3262231  18.1465716
  52.0050662  74.1832353  17.7216906  51.9955963  73.5219862  19.0831847
   4.4558153   1.0956306  26.7738719   5.1929245   1.6573877  26.5344328
   4.8404727   0.4216213  27.3342127  21.7081914  77.3242761  14.9443812
  22.1825216  78.0423285  14.5252795  21.6948203  76.6295697  14.2860217
  66.8420639  24.1895790  33.7744231  66.6571422  24.1833086  32.8352732
  66.0219665  23.9109201  34.1818709  63.2571451  78.7596847  10.4614920
  63.8989607  78.5738017   9.7761149  63.4223978  79.6708943  10.7036109
  20.4364381   1.7350788  21.3757605  20.3338943   2.5298757  20.8522982
  19.9972949   1.9345111  22.2025675  15.5169091  31.3836975   2.9419083
  16.3203654  31.3583965   2.4222464  15.5014596  32.2645015   3.3163113
  36.1167750  12.2543401   4.9604697  35.8298287  11.8537159   4.1398663
  36.4716563  11.5266056   5.4710431  17.5968442  29.5625848  25.6225295
  17.1106896  29.2939872  26.4021105  17.9094539  30.4438800  25.8270449
  34.2440987  24.9195147  70.3358459  33.5787749  25.5881524  70.1730537
  35.0704360  25.4024100  70.3503418  71.3255064  70.6228997  26.4517874
  71.1580793  71.4648272  26.8752951  70.9251110  70.7062985  25.5863661
  26.5585599   3.2273168  17.9047103  26.5715537   3.6565179  17.0492262
  26.6816888   2.2985477  17.7085967  19.7582996  61.5863657  59.2381430
  20.2707553  61.0113573  58.6698246  19.1871929  60.9934235  59.7264957
  28.2085276   4.2250359  65.6987715  27.3805857   3.8915884  66.0445404
  28.7625980   4.3377417  66.4711285  73.7317181  42.1174002  54.9016094
  73.4419870  41.5102291  55.5825090  74.1605377  41.5611029  54.2513132
  32.2071981  26.1698389  65.5559111  31.5168309  26.6653872  65.1153898
  32.5924087  26.7921996  66.1727619  57.7085773  64.1377260  26.3376135
  57.4272720  63.7247874  25.5211634  58.1964103  63.4537174  26.7962832
  32.3941588  35.2006245  70.2657175  31.7187738  35.7425690  69.8578119
  33.1537580  35.7785749  70.3379250  11.8901294  51.4586820  49.3487544
  11.8831438  51.7871072  50.2478213  11.9493431  52.2454609  48.8068099
  81.9210919  17.0452041  26.5946478  82.3401554  16.3602657  26.0736079
  81.6293510  16.5973682  27.3887248  30.4139948  18.4267604  68.7806273
  29.5386481  18.6122429  69.1206217  31.0073090  18.8348687  69.4112301
  21.7749438  17.5573701  17.4678893  22.3133121  17.5101680  18.2579321
  22.4064813  17.5934095  16.7494959   3.0987972  30.5845227   0.7740826
   3.5488647  31.4025595   0.5631585   3.3307355  30.4119410   1.6865820
  61.5717477  80.8076796  64.0849543  60.8151439  80.7240769  63.5046196
  61.5195596  80.0429026  64.6582127  40.8980131   6.0828531  65.7261419
  41.7316771   5.6373155  65.5753660  41.0407543   6.5951854  66.5219879
  64.4664588  10.2284355   2.5500483  63.9705559  11.0282392   2.3750348
  64.8922666  10.3900356   3.3919568  62.3654071  57.1343281  16.7401785
  62.7561132  56.8855073  15.9025282  62.9947607  57.7433302  17.1265215
  83.2197507  10.8937473  18.3591075  83.3931025  11.3998241  17.5653452
  83.3876069   9.9860401  18.1058688  61.5949980  72.9732110  35.3602690
  61.7102114  73.8003566  34.8925204  62.4566332  72.7869489  35.7332606
  -0.1690966  56.2906613  15.4612727  -0.1486641  57.2463550  15.5109114
   0.5575984  56.0654094  14.8803992  33.1098914  39.1776466  70.0716496
  32.8386331  39.2889810  70.9828329  33.9596701  38.7404895  70.1264334
  73.6598531  32.0323880  28.7821574  73.0287878  32.2642000  29.4635100
  73.2348005  31.3291128  28.2912726  53.2774162  31.3508773  65.3941107
  52.6849604  30.6855941  65.0439262  52.7334929  32.1335983  65.4820013
  16.2505531  34.7094893  46.0626984  15.6364381  34.7870827  46.7928171
  16.5530992  33.8021111  46.0995960   7.5736890   1.9308872  20.8368487
   7.6501689   2.4014206  21.6668982   7.3427377   2.6062650  20.1990695
  72.5813190  78.0740787  18.3224005  72.8700487  78.8717605  18.7657637
  71.6327659  78.1744792  18.2423968  78.7418560  65.5437040  71.0740137
  78.4621291  66.4036942  70.7603121  78.8483934  65.0216961  70.2787876
  10.4785355  60.5066116  57.6801682  10.4049953  60.4751427  56.7263174
  11.3770493  60.2301581  57.8603697  61.8161933  61.7399790  53.6647124
  62.2862426  60.9737469  53.9936060  62.4415652  62.1736028  53.0840964
  36.5930543   2.4488134  25.3386683  35.7288919   2.0461912  25.4244227
  36.5042243   3.3001489  25.7671065  74.4305154  10.6549806  31.5567107
  73.9504393  11.1923284  30.9266181  74.5611962  11.2295885  32.3110194
  42.8241066  71.1198546  14.0408320  42.1945516  71.0268428  14.7558493
  42.5330190  71.8977811  13.5650916  10.9160089  31.9245505  59.3965673
  11.1479914  32.8192568  59.1477299  11.7565191  31.4932251  59.5506239
  58.5706011  65.7704355   1.0931344  58.5924379  64.8191764   0.9889264
  58.4068624  65.9054329   2.0265145  50.6470696  35.3195562  16.6167349
  51.3168422  35.7684149  17.1326441  50.8647696  35.5281325  15.7082648
  75.4531805  53.7127044  18.1058116  76.0491363  53.1282152  17.6373763
  75.0565950  54.2501153  17.4201483  42.0244936  80.4303695  10.1544375
  41.7454938  80.5248048  11.0651965  41.3074211  80.8065750   9.6440405
   8.1594547  73.5427226  67.1771765   7.2786291  73.2028074  67.0195866
   8.6639126  72.7794869  67.4586535  45.3765583   3.2311323  67.5667048
  44.5452023   3.5645112  67.9042435  45.3140831   3.3475205  66.6186619
  58.3390252  73.0132319  20.8620257  59.0609542  73.4591343  20.4190535
  57.5520484  73.3402302  20.4261679  25.5809445  38.6754462   5.2342410
  24.8335303  38.0901863   5.3570170  25.7768936  38.6207144   4.2989106
  64.8296859  25.3087873  18.7391085  65.1068171  25.7466430  19.5439238
  64.8011931  24.3801136  18.9693064  66.7910546  74.6836455  52.8195000
  67.6216150  75.1574917  52.8627443  66.3869655  74.8300428  53.6747837
  74.2926113  36.1826556  15.3351588  73.8753645  36.9048454  14.8655028
  73.5639564  35.6885477  15.7108588  64.1862694  55.5778684  15.1642317
  65.0045983  55.1723041  14.8777194  63.9083020  56.1093046  14.4182105
  70.7401983  70.1982190  15.0985140  70.9887449  70.8184745  14.4131369
  69.8557750  69.9200250  14.8605246  69.5690823  38.8377762  39.3396211
  69.8304844  38.3789802  38.5412431  69.9144506  38.2975292  40.0503159
  79.7005073  71.7380788   9.6665663  79.1637222  71.0209300   9.3292327
  80.4567234  71.3053061  10.0628943  55.5220381  65.2691032   7.9485936
  56.3578645  65.7329609   7.9982323  55.7589642  64.3428900   7.9957814
  74.8936168  79.0527322  29.2574019  74.3977062  78.8249208  30.0437922
  74.2277757  79.1687800  28.5795970  81.8323787   4.2758054  14.8798747
  82.5639351   4.5623416  15.4266448  81.4169439   3.5756702  15.3833193
  57.5279705  74.2795278   7.9916186  56.6284386  74.5339133   7.7858014
  57.4957101  73.3259179   8.0678839  36.3993583  11.0784931  24.9188799
  35.8118949  11.7399759  25.2843279  35.8150992  10.4001588  24.5801539
  10.5595344  61.3522484   8.8621563  10.2410930  60.9553267   8.0514235
   9.7658056  61.5574743   9.3562216  60.3806280   0.2965707  34.3934722
  59.9612810   0.1485462  33.5458464  59.8958494   1.0279007  34.7760672
  65.5456893  52.1924640  45.7506842  65.7084695  53.1062974  45.5169196
  65.1706974  51.8059553  44.9593348  17.9228864  17.8249139   4.2453236
  16.9801364  17.8735179   4.0868992  18.0286155  17.0775337   4.8339505
  86.3019713   7.9967136  13.0586810  85.9948881   7.0906419  13.0276770
  86.4097126   8.1812973  13.9917178  10.1973257   4.4160623   1.5978808
   9.8138461   3.7029810   1.0873026  10.9681854   4.0271444   2.0110983
  43.1995026  70.2798201  20.7499404  43.7304143  70.3902079  19.9611563
  43.4928278  70.9777357  21.3356967  30.7348490  34.2309356  63.7126732
  31.4097786  34.8724723  63.9343357  30.3450584  34.5630717  62.9039812
  79.6177427  79.4341685  34.9603362  79.9034301  79.6374561  34.0696616
  78.6703388  79.5698597  34.9448294  25.3189693   4.0560884  65.6417460
  25.3121028   3.1023616  65.5605788  25.5911479   4.3679637  64.7786803
  85.1006468  20.6871624   2.5457425  85.6446274  20.0062627   2.9415841
  85.4609450  20.8003921   1.6662020  61.1239902  76.8086364  19.7146601
  60.1794283  76.8852522  19.5798964  61.5099804  77.1777059  18.9202876
  13.1519931  56.8654527  13.1887908  13.8608831  57.0148100  12.5631709
  13.5867780  56.5060093  13.9620871  17.1775804  25.7218570  25.5086798
  17.5113473  24.9520797  25.0479407  17.7202401  26.4442081  25.1925082
  42.8245354  58.2911205  52.8372097  42.3395824  59.0160513  53.2315779
  43.5507345  58.1325817  53.4403133  56.2012903  71.8231775  27.9230399
  55.2765552  71.9219877  28.1496043  56.2810532  70.9144713  27.6330084
  27.2079358  19.0496511   1.3795514  26.4349685  18.5069484   1.2238926
  27.8297362  18.4629650   1.8101306  52.0184994   8.9071268  61.7858171
  51.1545038   9.0330470  62.1781063  52.4113607   8.1977153  62.2943687
  46.8305049  10.0382299  14.0557475  46.7076144  10.1581926  14.9974150
  47.7692924   9.8809881  13.9548297   4.9377435  80.1759841   1.0264582
   4.4998210  80.3471352   0.1926941   5.1442426  79.2416646   1.0011763
  33.0865131   1.4824218  18.6557097  32.5632129   0.7974310  19.0718455
  33.9351640   1.0703725  18.4937186  71.1795322  49.7147967  20.5268759
  70.3919260  49.7884931  19.9879164  71.4006416  50.6183203  20.7526869
  82.3759452  68.1296183   7.4629635  82.7046100  67.2933199   7.7928395
  81.6989938  68.3849265   8.0896897  81.4782373  57.6667275  34.0763659
  80.7742492  57.1457006  34.4625754  81.4518444  57.4513485  33.1440825
  54.3781988  68.9655544  29.9239726  54.2760603  68.4687092  30.7357211
  54.3024246  69.8812033  30.1924414  18.9611564   7.1452875  31.4248843
  19.4322620   6.5092868  30.8865542  18.0553136   7.0927877  31.1200518
   5.8619604   5.8101530   3.7581391   6.6058502   5.7981796   3.1558795
   5.7855091   6.7258758   4.0261740   1.7948097  26.8401374  35.4858965
   0.8928865  26.5294315  35.5648322   1.7433208  27.5709893  34.8699183
  76.9427701   5.5051584   4.2462678  77.7909740   5.9427471   4.3190760
  77.0867129   4.6388597   4.6271033  51.3391630  71.6704585   0.2428383
  51.3684622  72.6048018   0.0369830  50.5048720  71.3715531  -0.1188903
  17.0596728   5.9533615  52.1311850  16.4804874   6.2990017  52.8103823
  16.9619403   6.5632362  51.3999362   0.7028573  80.5898001   8.6370272
   0.8670610  81.4455630   8.2408709   0.3114122  80.7905509   9.4871420
   6.2798446  45.1737785  61.9670486   5.8516276  46.0161304  61.8143797
   7.2101104  45.3875256  62.0388031  44.8381404  78.6960365  39.1912169
  44.2734818  77.9247596  39.2414565  45.6181447  78.3920051  38.7271113
  62.0396988  74.7114374  11.8177123  61.2225429  74.8788645  11.3481803
  61.7827551  74.1595532  12.5563807   1.8863100  64.4966938  43.4796996
   2.0923370  65.4261329  43.5793299   1.1403793  64.4796564  42.8800864
  65.4095771   0.2470512   0.1896185  65.6175776   0.2845163   1.1231942
  64.4529726   0.2363176   0.1576085  71.6317089  18.9577789   6.6540904
  72.0250245  18.6342735   7.4645705  70.9467812  18.3211870   6.4495081
   4.6991334   4.3347997  35.6087775   5.3683267   4.6125145  36.2343020
   4.8167358   3.3875627  35.5370040  15.8226538  38.7846017  53.9881325
  15.7988286  39.5800543  54.5200348  15.8636510  38.0715156  54.6253633
  46.0897152  45.2876462  18.6519332  45.5917589  45.1896702  19.4635195
  46.7842905  45.9089156  18.8706202  46.8833303  17.3084629  69.3109035
  47.3695612  17.1616614  70.1222372  46.0226917  16.9226742  69.4743109
  11.3354907  11.2329597   1.7779345  11.4653096  11.9314880   2.4193711
  10.3911195  11.0768241   1.7816729  76.2167164  44.4504280  13.8890643
  75.7536360  43.6787242  13.5630889  75.5776532  44.8961181  14.4451136
  57.8131334  63.3638408  17.8478808  56.9070069  63.0917336  17.9932303
  57.8280656  63.6728074  16.9420428  80.2084343  60.0122430   0.2178855
  80.9419052  59.4692220  -0.0708728  80.6191770  60.7464613   0.6744427
  41.5713638  80.8679368  32.2008509  42.3526710  81.1038615  32.7009768
  40.9539646  81.5792491  32.3714060  35.3121261  64.4361402  35.2458949
  35.8754329  64.3555285  34.4762129  35.8532087  64.8896553  35.8922572
  64.5434491  66.2714507  13.9615149  64.6444003  65.5520369  13.3382220
  64.2852847  67.0199372  13.4235949  70.5114357  65.7204010  17.3264403
  70.0872985  65.9823014  16.5092845  71.3354961  65.3190352  17.0506377
  66.2586037  67.8677203   7.6217599  66.9523493  67.5331809   8.1901164
  65.6425683  68.2911946   8.2195897  44.5251767  80.9028794  21.4078326
  45.0680105  80.6886961  22.1665759  45.0044314  80.5433609  20.6613059
  23.8525909  45.7764153   5.1616044  23.7322277  46.1887850   4.3062157
  23.7904304  46.4987441   5.7865948  16.8782759  14.3577886  58.8290882
  17.6657701  14.7853708  58.4925508  17.1866846  13.8375807  59.5710468
  42.4896178  23.9940233  12.6586718  43.0161891  23.8845033  13.4504790
  42.9187856  24.7045393  12.1820063  21.3284874  10.1617348  37.0251608
  21.3719201  10.9891069  37.5045371  21.4104772   9.4887972  37.7009320
  12.7459949  41.7463219  11.7870707  12.1009630  42.3642263  11.4430327
  12.7736944  41.9273190  12.7266020  18.4331212  19.1393728  21.5026373
  18.5099301  20.0894374  21.5904517  18.7201820  18.9575691  20.6077761
  86.0203067  41.9349496   1.0792489  85.7155315  42.0555529   0.1799197
  85.8323471  42.7689769   1.5097184  12.1798909  30.1999521  67.0280170
  12.6191902  30.5889583  66.2717628  11.6670489  29.4791150  66.6624784
  46.0598210  78.5093381   9.8088545  46.7300514  78.8329222   9.2069335
  45.2799992  79.0225150   9.5973010  30.2292848  36.6985011  69.0458298
  29.7507000  37.5233436  68.9632225  30.4088521  36.4343739  68.1434870
  33.2001662   4.8933294  65.3556633  32.9225779   4.1805893  65.9311438
  32.4883032   5.5313975  65.4041624  57.7347128  78.2540418  19.6259493
  56.9659058  78.6967637  19.9853510  58.2671634  78.9593674  19.2582030
  21.7368732  10.9196157  27.2425456  21.3724504  10.0352878  27.2798247
  21.1258540  11.4521236  27.7517886  30.6542491  71.1714985  50.6065650
  30.8550493  70.2608945  50.8226962  31.4463125  71.4962889  50.1783366
  80.2429716  51.6277470  29.7383875  80.3741304  51.5222050  28.7961096
  79.4108049  51.1889531  29.9150080  27.1527999  66.4733388  20.7105155
  26.2807506  66.2268283  21.0187239  27.0256942  67.3214676  20.2853674
  46.4279018   5.7455797  32.9188151  46.6924319   6.3636608  32.2374720
  47.2466979   5.4972667  33.3479399  50.0019550  41.2623978  67.5961924
  50.0577545  41.9858742  68.2204533  49.5873117  40.5533743  68.0877113
  25.6175089   1.2187839  66.1468506  25.8752155   0.3909701  65.7412148
  26.2673903   1.3607846  66.8351269  86.3970947  45.9381866  54.6321774
  85.4662800  45.7403135  54.5288658  86.4364910  46.8939877  54.6656942
   4.1249237  27.1937818  41.1650271   3.5175834  27.9321737  41.2113471
   4.7497449  27.4400110  40.4829688   0.9227071  20.1916093  24.4185156
   1.3383803  19.3337030  24.3321986   1.6357217  20.8172197  24.2902464
   6.6214794  76.3576938  32.3618311   7.0364564  75.9803941  31.5861506
   7.1777719  76.0805537  33.0898089  47.8089229  55.1116277  14.1992564
  48.3451120  54.3307211  14.3368048  48.2904498  55.8130814  14.6378131
  74.1021053  56.9625201  20.9084696  73.4327928  57.5460328  20.5510230
  74.7294799  56.8516328  20.1940913  19.9694383  42.5637007  64.5075846
  19.3612659  42.2813988  63.8244534  19.5014775  42.4017239  65.3267384
  20.2226448  14.2383695  65.6751394  19.6447957  14.4335341  66.4128590
  20.4127622  15.0925779  65.2873039  39.4214384  64.9533679  19.2233462
  38.8249604  64.5522930  19.8554701  40.1386181  65.2975060  19.7557540
  74.9129375   0.6230945  29.8154540  74.9032338  -0.1447659  30.3868765
  74.0332111   0.9918851  29.8948664  54.9732010  67.5986459  17.4566264
  55.7079975  67.8888680  16.9161887  55.3588740  67.4348404  18.3172412
  10.9530888  16.7283029  58.0811877  11.6742597  16.5156049  58.6735529
  11.3768706  17.1285886  57.3219676  28.7378597  34.5067143  65.3374243
  28.1158423  35.2313161  65.2720213  29.4426227  34.7407913  64.7334814
  21.5420280  24.9262924  42.1038813  21.1502490  24.8899526  42.9764742
  21.9039331  25.8101625  42.0404429  15.6694541  10.6740112  59.2892451
  15.9359346   9.7726698  59.4703669  16.1078725  11.1934156  59.9632258
  69.6935598  64.2078878  28.6656947  69.9670831  64.6490385  27.8614516
  69.0160505  64.7761967  29.0320773  77.8925276  55.6445599  59.8670959
  78.3662128  55.5045223  60.6869984  78.5619068  55.9440708  59.2519045
  80.1299612  65.0704862  15.7539935  80.2977935  66.0120847  15.7157797
  80.3351108  64.8270752  16.6567130   4.9549542  24.0518875  29.3389601
   4.3384657  24.5282526  28.7828536   4.5179710  23.2204837  29.5234675
  44.6407596  47.7426954   5.4799599  44.2534761  48.6064507   5.6219811
  44.9932734  47.4947949   6.3346572  63.4668748  81.4716508  11.2301344
  64.1359631  81.1126401  11.8129439  63.0967514  82.2088076  11.7157740
   9.4636879   5.4810781  19.9820132   9.4279752   6.4166755  20.1810546
  10.2858410   5.3689403  19.5048136  17.1265874  17.3874635  30.1027293
  16.7564616  18.0713100  30.6609339  18.0715070  17.5366993  30.1357455
  64.8910300  50.2430590  17.6971049  64.5083324  49.3929251  17.4802012
  64.8862139  50.7257880  16.8705554  72.9232009   4.7695465  11.1668868
  73.2473667   4.1582555  11.8283076  72.7386602   4.2214508  10.4041476
  13.8664301  80.3425250  65.6636381  12.9444846  80.3149861  65.9195518
  13.8784512  79.9912683  64.7732973  67.0082752  76.9273164  27.6180262
  67.3034827  77.2719456  26.7752261  66.6388432  76.0691931  27.4097533
  17.5266546  47.6321836  18.9048190  17.5475973  47.6600428  17.9482550
  17.2344964  48.5062160  19.1635508  39.9380193  12.4998493  16.9582362
  39.4456945  12.3228807  16.1566538  39.3880782  13.1122989  17.4468035
   4.4594663  68.1572820   9.8348422   4.8010820  67.4349119  10.3618235
   5.1067966  68.8550212   9.9365992  17.9846805  57.5049784  16.9689936
  18.4402841  56.7600717  17.3611350  17.5123971  57.1320297  16.2246222
  76.1181919  66.4338257  21.6842646  76.1000816  67.3901679  21.6480727
  76.6340772  66.2334277  22.4652571  63.2297327  25.8129615  24.8063368
  63.3260401  25.4393549  23.9303393  64.0149309  26.3470287  24.9266047
  13.4318099  11.8337125   7.1273608  13.0307136  11.0684986   7.5394291
  12.7395187  12.1997947   6.5769524  71.6132069  38.5217643  69.8675203
  71.7653465  38.7124491  70.7931137  71.1364174  39.2848420  69.5409966
  61.6093008  44.3357842  17.8925509  62.4506704  44.7915547  17.8679747
  61.7100398  43.6842267  18.5865016  58.3987894  10.1324911  38.1085295
  58.4885987  11.0408134  38.3968348  58.4869968   9.6169204  38.9101691
  36.2344919  54.4285275  11.2706465  37.1478383  54.6451272  11.4580340
  36.2235651  53.4737040  11.2041182  73.3247034  75.0662567  30.0879855
  72.6945392  75.7541229  29.8735995  72.8188459  74.4251897  30.5873675
  66.1127329   7.4737293  61.6115713  66.5160513   8.2255709  61.1776352
  65.8826065   6.8798393  60.8970261  67.2911215  24.3397403  50.5495548
  66.4246750  24.2070985  50.1649618  67.9012346  24.0526581  49.8701620
  14.3994365  12.8008909  10.4780478  14.7792564  13.0413837   9.6329875
  14.6376929  11.8811864  10.5946917  79.3377741  12.7322788  23.7670321
  80.2634819  12.4947567  23.7134070  78.9830192  12.1610851  24.4482989
  25.0665134  62.5611975  14.2599291  25.6109756  62.6433613  15.0428958
  25.0287097  63.4475042  13.9003939  18.4302745  48.4752101  12.3753733
  18.4468064  49.1889114  13.0130095  17.5686774  48.5417099  11.9637293
   1.7758983  64.5036389   6.6752286   0.9262842  64.3422629   7.0855231
   1.8485015  65.4575040   6.6419644   7.6923984  59.4657924  11.2925620
   7.9742616  60.2114655  10.7626910   6.7430585  59.4333138  11.1745257
   0.6422982   0.1075668  41.7927069  -0.0601854  -0.2528983  41.2515826
   0.9620080   0.8624048  41.2985034   4.2364877  73.5232283  13.8525004
   4.2526239  74.4648697  14.0236182   4.0360206  73.1289341  14.7013659
  25.2935395  12.4858875  21.8373293  25.1593099  13.3532352  22.2193331
  26.1516366  12.2118015  22.1610159  67.8967754  66.2238433   8.9339776
  67.4985663  65.7616474   9.6715636  68.8359968  66.0675217   9.0322680
  74.8088380   3.7872095  37.2729678  74.1630765   3.8217420  37.9786772
  74.7130354   4.6246976  36.8194670  12.1352923  44.7863436  62.4638081
  11.4850569  45.3713465  62.8526449  12.2787607  44.1123295  63.1281567
  67.8103654  76.8686225  21.6946787  67.5133530  76.4451672  20.8892531
  68.7563268  76.7229034  21.7070956  41.8249241  71.9173338  11.2173552
  41.9111447  70.9680416  11.1299414  42.5946383  72.2698786  10.7707209
  51.7614794  38.0074334  66.3822985  52.3695469  38.6737132  66.0620499
  50.9310246  38.2154489  65.9541512  68.9655820  70.1528980  32.2687048
  69.3869249  70.3173496  31.4251036  68.1912319  70.7155587  32.2633929
  80.5245821  76.1107160  47.9184527  80.6583492  76.9718768  48.3143611
  81.3667957  75.6672122  48.0195040  63.5560703  26.1029577  45.5276680
  64.0730429  26.8784904  45.3096724  62.7114153  26.4507842  45.8136797
  50.5539942  45.8341312  70.4786825  50.4708195  46.5229034  71.1381578
  51.4651585  45.8874464  70.1902819  56.1050735   9.7446127   0.6624217
  55.5870376   9.8365850   1.4620490  56.7155871   9.0324754   0.8531422
  82.4325792  74.9889232   4.1714568  82.2443668  75.4910900   4.9643273
  81.8738262  74.2147567   4.2399926  73.6098997  75.7772829  43.0760283
  74.4825975  75.3852608  43.0452437  73.0403654  75.1264550  42.6658053
   5.5295143  11.8170852   5.1092286   5.7641683  12.1785755   5.9639163
   4.8847351  11.1373968   5.3054852  84.5303873  39.3131638  61.5954399
  85.1289379  38.7486172  62.0845795  84.7025852  40.1928186  61.9312859
   9.5236120   8.9709110   6.6249556   9.2567358   8.2925958   6.0045571
  10.2820621   9.3860740   6.2143130  50.0831032  46.1273241  65.3679943
  49.1619635  45.8780813  65.4428673  50.2228498  46.2485552  64.4288397
   8.0659828  10.9587593  28.6639208   8.7761197  11.5964717  28.7364573
   8.3869681  10.1884861  29.1328330  79.5686380  58.9121022  18.0995555
  78.9240591  59.1147949  18.7775416  80.2905838  58.4973289  18.5717768
   0.3379148  39.0381904   3.6541218   0.9816688  39.7448135   3.7041039
   0.8595890  38.2362579   3.6856074  42.7323596  80.3185465   2.0513959
  42.4613706  79.5800235   2.5967259  43.3814720  80.7817509   2.5808568
  50.8660380  46.8382932   7.5241561  51.0560910  46.3782819   6.7065329
  51.6841022  47.2840597   7.7439112   8.8950667   1.7018861  15.4111571
   8.1238518   1.2659282  15.7736487   9.3377338   1.0221500  14.9029917
   9.1490970   2.2367353  11.4511294   8.3638034   2.7781171  11.5314574
   9.2412314   2.0864982  10.5102915  78.3945791  65.2665545  31.6142935
  78.3343259  65.1391413  30.6675334  79.2188064  65.7365491  31.7407412
  67.5921297  28.1987691  69.8355436  67.7327776  28.9464569  70.4164171
  68.1525469  28.3740115  69.0795946  72.7371875  62.1003415   1.7833895
  71.9385664  62.5020053   2.1255965  72.5991193  61.1597754   1.8952126
  76.8665496  71.9840648  13.5421652  76.3036195  71.8228437  14.2993636
  76.8147031  71.1776211  13.0291457  34.5282111  24.0041370  18.1773371
  34.2018542  24.2736358  19.0358824  34.0210900  23.2210226  17.9633517
  34.7302635  10.5551738  40.7347388  34.4413503  10.1580782  41.5563674
  34.2165550  11.3597364  40.6639189  57.1066427  21.5547943  58.1074047
  56.7498732  21.9290829  57.3018932  56.3814354  21.0535574  58.4803200
  74.4555279  11.9638748   3.3821721  74.2263623  12.0516748   4.3073792
  73.8538094  11.2984247   3.0484910  77.5477783  42.5348043  18.1551909
  77.7088634  43.0839252  18.9224911  78.2149081  42.8039455  17.5237370
  75.1803684   8.9345407  49.8442936  74.7599602   9.7599852  50.0854015
  76.0918140   9.0415180  50.1164198  41.8244366  52.0377995   7.1021361
  41.0414998  51.6576971   7.5005908  42.2378508  52.5316836   7.8102297
  71.4574440   7.2524852  16.7441172  71.2884124   6.8891830  15.8748240
  72.3736950   7.0379753  16.9193358  69.5299236  35.2561797   0.6531329
  68.8754264  34.6835549   0.2531714  69.1217414  35.5556847   1.4654822
  57.4511615  74.5407202  28.0943675  58.1750433  74.4572260  27.4736781
  57.0794932  73.6602976  28.1487078  42.4364743   0.7528801  15.4189486
  41.6494260   0.2088136  15.3910155  42.1602283   1.5507288  15.8698935
  28.8846288   0.1358337  11.6214556  29.1003785   1.0683937  11.6259665
  27.9925809   0.0947065  11.9661135  37.1371078  17.1674204  64.7584867
  37.3250532  17.6120722  65.5850410  36.6870141  17.8258657  64.2292452
  68.9332219   1.2012882  29.8496909  68.1557091   1.2890071  29.2983241
  69.3161233   2.0784301  29.8650927  82.5001105  12.7416343   1.9048495
  82.4326285  11.7886037   1.9632859  82.1295937  13.0589265   2.7284236
  82.6889992  22.1730042  57.4476624  82.7733231  22.8099871  58.1571484
  82.3565769  21.3828087  57.8734779  22.4087653   6.7258472  12.0389647
  21.8376622   7.0579786  11.3463206  22.8911004   6.0083170  11.6281886
  79.4364341   1.2684078  25.1025099  79.0190156   1.7410488  24.3823714
  79.1661032   1.7426414  25.8888049  53.7566821  76.4661075   5.9869427
  54.1776744  75.6839730   5.6302065  54.2936174  76.7034008   6.7430014
  65.8751059  49.1016912  62.7815390  65.4150200  49.3479872  61.9791079
  66.6053343  48.5599852  62.4822903  19.9367843   5.1580162  20.3688235
  19.7761283   6.1008186  20.3294844  19.5307479   4.8124904  19.5738501
  20.8680949  31.8882722   5.5241103  21.7244277  31.4639444   5.4705185
  21.0644994  32.7953023   5.7585425  49.1246843  31.1890650  64.3251753
  48.9714050  31.9805932  63.8092089  49.1449022  31.4945269  65.2321005
   6.8536601  10.7416458  31.8084616   7.6118312  10.1671190  31.7020411
   7.1972857  11.6221542  31.6572661  21.8602848  47.5775719  67.1929550
  21.9372940  47.3856783  66.2583542  22.6415396  47.1855879  67.5831175
  18.4289298   2.9239769   1.6685290  18.0256734   2.2267408   1.1513466
  18.9538322   2.4635334   2.3232884  13.6098752  28.4025211  29.6566577
  13.0030236  27.9387493  29.0797038  13.0450807  28.8778848  30.2659697
  82.9260341  65.2992369  31.2739939  83.6644355  65.7659652  30.8826346
  82.6767770  64.6504714  30.6158061  15.4796920  77.3909492  19.2888159
  15.2762828  78.2972259  19.0574450  15.6148753  76.9536991  18.4481234
  86.7754499  21.1542361  66.7058229  86.4269296  21.9850486  66.3825560
  86.5819875  20.5262988  66.0097599  83.2077225   1.7493648   2.7152199
  83.3661326   1.8247957   3.6562056  83.5849531   2.5470037   2.3441405
  55.3778354  10.9904998  57.5155926  54.8227255  11.7155020  57.2284412
  54.7737781  10.2566760  57.6289749  43.9484501  34.4265151  69.9014235
  44.1930389  33.5118318  69.7608376  43.1359291  34.3824148  70.4055023
   7.9230342  12.5143070  11.1831851   7.9972730  13.3717985  11.6020388
   8.1547103  11.8907089  11.8714327  48.6568491   3.9741175  62.4070597
  49.1667334   4.4860595  63.0348825  48.8826815   4.3466227  61.5547276
  -0.0347477   5.5262606  58.0469656   0.4011911   5.0251715  58.7362385
   0.4544633   5.3154605  57.2516918  65.7808590  27.3475266  64.5991564
  65.7491302  27.7137208  63.7153435  66.6031408  27.6741695  64.9643803
  72.0391933  65.0555779   2.8908772  72.3957817  65.6030752   2.1913619
  71.2509624  65.5167105   3.1777281  63.4865514  77.2945406  36.0239405
  62.7551309  77.8516104  36.2902636  63.8163225  77.6994802  35.2217478
  18.6170087  42.5885219  22.2355837  18.6648355  43.4510822  22.6478190
  18.9614711  41.9877929  22.8964228  64.4315501  29.1192312  20.6466574
  64.8304166  29.3605728  19.8106570  64.6556201  28.1957025  20.7611842
  21.6398138   1.2660735  69.0032530  21.4157861   0.4168551  68.6226320
  22.4881500   1.1240142  69.4232273  17.5805992  53.4515776  26.9337935
  17.0890897  53.3292951  26.1215777  17.0671028  54.0882851  27.4309439
  53.0008499  78.4098126   3.5364146  52.8947393  79.3117024   3.8390202
  53.2297913  77.9179551   4.3250174  55.2382127  79.7734405  13.9851565
  55.6551663  79.0803887  14.4970793  55.8307783  79.9154736  13.2469649
  61.8607632  70.3186991   0.6324286  61.5136663  70.8819248   1.3241906
  62.5530163  70.8390500   0.2246899  81.7116261  75.6299114  57.5955582
  81.2648296  75.6465673  56.7491913  82.5318909  75.1672411  57.4243116
  46.3192320  42.0776415  70.5918407  46.8304539  42.1215820  69.7837877
  45.4437256  42.3692608  70.3375196  30.9096704  16.5942974  17.9703898
  31.4942870  17.1981306  18.4284777  30.8033977  16.9779081  17.0998854
  31.9634423  16.1550636  37.0601458  31.7036424  16.9320793  36.5651888
  31.1557374  15.8559532  37.4777312  48.9140224  59.8984861  64.3828917
  49.7749662  59.7665787  63.9858961  48.4394503  60.4392290  63.7515354
  59.8708582   2.6296616  69.3362904  59.8354912   2.2310276  70.2058172
  60.7950068   2.5868955  69.0906143  71.8159620  63.2935168  22.5652594
  72.5506155  63.8891722  22.4179167  71.7112915  62.8319241  21.7332644
  18.1960569   4.2847080  24.6118922  18.6553035   4.3362302  25.4501433
  18.4244857   5.0987930  24.1632075  32.1535277  66.8479395  70.5059290
  33.0698323  66.9809246  70.2631712  32.0217109  65.9025240  70.4348612
  79.1627320  42.7700920  28.8057608  79.3509515  42.3237629  29.6313471
  78.2591089  43.0722446  28.8974280  72.3005811  61.4357926   4.8474116
  72.0742027  62.2401573   5.3142972  71.5993301  61.3261964   4.2051739
  49.1504622  19.2798519  69.4052076  48.8299894  18.4088576  69.6395111
  50.0606537  19.2878497  69.7013855  44.5706163   3.6114616  37.1404452
  44.5870767   2.7028102  36.8399329  44.2713771   4.1098518  36.3799853
  29.1169152   4.8858852  16.4177985  30.0050340   4.6302814  16.6670699
  28.7449536   5.2663726  17.2134776  38.4406409  19.0314407  45.8264250
  37.6782546  19.5761985  45.6308837  39.0731130  19.2500658  45.1420111
  14.3561730   5.2345008  43.4322543  13.9387784   6.0849161  43.2951064
  15.0063214   5.3943367  44.1163535  80.1135190  10.2022333   8.8220639
  80.8602460   9.6033926   8.8173337  79.5558532   9.8840780   9.5320124
  67.6973281  10.0657148   8.5775227  67.8593764   9.2077655   8.9698214
  68.5437141  10.3268976   8.2147021  75.9512444  30.7079286   8.0928940
  76.3241072  29.8443908   7.9153962  75.2107521  30.7775373   7.4903531
  85.7011326   7.7690811  32.0381445  86.3556870   8.4537715  31.9003386
  85.6031330   7.3553295  31.1805625   0.4988903  66.0496904  27.5041956
  -0.3157002  66.5161158  27.6916117   0.6705516  65.5398490  28.2959265
  83.8902227  58.0046059  31.6237349  84.5055572  57.2728838  31.5770812
  83.0269186  57.5959279  31.5610880  34.2075763  13.4411783  30.3352255
  33.8887057  12.6192302  30.7079882  35.0174031  13.6223001  30.8123107
  59.6812820  43.3854580  63.4122515  60.4326773  43.3931065  64.0051889
  59.1223717  44.0969563  63.7246943  54.2647266  43.9618635  58.4929466
  54.5156479  44.4226360  57.6923513  54.7463131  43.1355238  58.4546566
  85.7744725   3.3587617  15.4275984  86.3923081   2.6597280  15.2134509
  85.8441361   3.9723558  14.6962447  25.0343173  77.3440530  14.0072341
  25.8020538  77.7018644  13.5613818  24.7506755  78.0442859  14.5949835
  23.5162759  41.9380903  61.4162159  23.6020589  41.6120338  62.3120737
  24.3905807  41.8371868  61.0398626  70.6764928  70.9501530  43.4247679
  71.4099828  70.7034709  43.9881320  70.5263464  71.8754460  43.6184687
  67.9393196  43.0302238  65.8397961  67.7368975  42.8044176  64.9319029
  68.1166935  42.1895981  66.2618446  81.7315483  35.6363916  62.8282881
  81.2260342  34.9852180  62.3418188  81.6940117  36.4235282  62.2849321
  19.8840127  26.0809679   8.0552620  20.6716333  25.6200094   8.3440632
  20.1147399  26.4342565   7.1960873  49.8350558   3.9116163  37.3248572
  48.9712749   3.4993286  37.3130316  49.7191272   4.6951456  37.8623290
  41.8369509  50.0899788  18.0956926  41.8073441  49.2361971  18.5274495
  42.6553942  50.0791689  17.5994386  39.0977859  15.8469999  45.3420115
  38.5929942  16.6211009  45.5913830  38.5450935  15.1082695  45.5970478
  40.5450473  41.3036079  24.8029608  41.4129148  41.6971798  24.8931689
  40.4619155  40.7298393  25.5646033  24.3349681   2.3220272  57.8445334
  24.4054494   2.6251859  58.7497229  25.1415048   2.6245422  57.4271388
  33.5627580  25.9925580  62.1847630  33.4859228  25.1390028  62.6111078
  33.2850599  26.6196704  62.8524780  30.6387839  21.8416328   7.2191710
  30.6577764  21.5456171   6.3090891  29.8006854  22.2958536   7.3058505
  55.8369827  57.4813747  68.9030886  55.9044981  57.9958487  68.0987310
  56.4131069  57.9289579  69.5227480  79.0979910  48.9481020  60.0666571
  79.7681761  48.8335276  59.3929005  79.0852404  49.8904753  60.2339983
  24.3905768  14.7672672  29.0043158  24.7623906  15.0145788  28.1576628
  24.2236600  13.8278789  28.9274020  20.8032022  42.8255386  19.7071070
  20.9137139  43.6334915  19.2058844  19.9258027  42.5193996  19.4775672
  39.4930730  20.8952159   7.1865077  39.9509320  20.4167194   7.8776164
  39.0545640  21.6134948   7.6425976  72.8080115  18.9557762  20.6525416
  72.1097217  19.1163892  20.0178523  72.7005420  18.0372638  20.8995623
   7.1062598  43.3504219  20.9537978   7.9740295  43.2053585  21.3308425
   6.5004740  43.1843013  21.6760535  26.2683044  19.2407817   4.4973130
  25.4309354  19.3070335   4.0383381  26.8147311  18.7047977   3.9225335
  72.1687420  27.5075025  27.0591921  71.7256089  26.9729728  26.4002890
  71.5660437  27.5195188  27.8027243  19.4505391   1.6577835   3.9653010
  19.7710738   0.9140558   3.4550423  20.0801978   1.7465515   4.6807618
   2.7533382  68.7929084   4.6035475   3.4894412  68.4501936   4.0966649
   2.4340194  68.0401112   5.1011033  53.4024429  64.2105150  65.1110792
  54.1358662  63.5958052  65.1322412  52.7137566  63.7454367  64.6360588
   1.5643495  71.9339825   1.3969035   2.1575778  71.1844088   1.3473887
   1.7420000  72.3238875   2.2528548  11.1303562  81.3659789  13.8750071
  10.4498714  82.0386054  13.9023966  10.6490034  80.5387308  13.8610262
  32.7156394  37.6416894   0.8999199  32.6832145  38.2370965   1.6486973
  33.5669368  37.8106956   0.4962201  53.8611762  61.5062310   5.7649560
  54.0105788  62.4358227   5.5924220  53.2290546  61.4945914   6.4836497
  15.2820573   7.1257610  10.2735323  14.8523603   7.1372146  11.1287875
  15.6649814   7.9986686  10.1861662  59.5513717  68.5910847  26.5962214
  59.7706644  67.9777076  25.8948607  58.7257425  68.9876296  26.3181586
  77.5783197  81.0921265   9.0860314  77.3293296  80.2282883   8.7573618
  77.0733873  81.7059876   8.5526938  38.7615190  12.2566337  13.9796443
  39.6630893  11.9478387  13.8899512  38.8103900  13.1949110  13.7966818
  52.1872172   3.5082931  35.9518523  51.9396052   3.1626100  35.0942893
  51.3544021   3.6573953  36.3995452  14.3999992   5.1980323  31.9981474
  14.7587047   5.0272817  31.1272807  13.5623107   4.7349710  32.0071597
  22.2035728  59.6109027   6.7340607  22.5718389  60.0270004   7.5134701
  22.8362880  59.7986049   6.0407538  37.0456260  80.2839305  23.1877989
  37.8474945  80.7070805  22.8808970  36.9615119  79.5038630  22.6394839
  11.7208467   7.2410459  11.7007727  11.9472489   6.3595695  11.9973845
  11.2716518   7.1050472  10.8665366  10.0921450  26.4626283  25.2313799
  10.8806524  25.9332342  25.3506560   9.5226488  25.9237499  24.6822829
  64.9351565  63.0473711  16.7317957  65.4101316  63.7326457  17.2019286
  65.3055326  63.0615713  15.8492655  59.8989169  69.6216609   4.2092127
  60.1941291  68.8861920   4.7460265  60.6706540  70.1816131   4.1249032
  65.4266596  57.4601269  55.9934711  65.4429054  57.9548693  56.8127394
  64.9898100  56.6386557  56.2183666  54.2831961  69.4560458   9.7079176
  54.6691481  69.4446923   8.8320489  53.6698500  70.1906969   9.6898741
  75.5920688   5.2374499  67.1777344  76.5155021   5.3708499  66.9639492
  75.4759113   4.2875808  67.1556520  28.7452421  58.7832786   7.6348395
  27.8754375  59.1360904   7.4472327  29.3170325  59.2004885   6.9904608
  63.2476564  33.6996955   1.9560856  63.3163704  32.9902715   1.3171620
  64.1393628  34.0387697   2.0343203  32.2969899  27.2114009  11.2678809
  32.0872531  27.7392072  10.4973788  32.0799718  27.7749509  12.0105357
  76.7269365   3.4527533  62.8969288  76.2689726   4.2746394  63.0730152
  76.7368881   3.3838980  61.9422579  12.4188465  74.5351054  58.7155051
  12.1277183  75.2672531  58.1719584  13.3685440  74.6409489  58.7711901
  54.1496849  46.9922209  59.8330402  53.6923409  46.4007854  60.4307604
  55.0769234  46.8667746  60.0348282  33.6063848  56.2066669   1.3338561
  32.8618226  56.7317028   1.6274352  33.3566508  55.3043861   1.5332217
   8.0158760  45.0220776  69.9233389   7.3543026  45.6740189  69.6919823
   8.8234665  45.3493595  69.5272064  12.5227294  14.1847963  14.0093989
  12.3183427  13.5353727  14.6822352  12.2315154  13.7819643  13.1913848
  33.9217649  10.9668464  31.7029185  33.3845267  10.2795381  32.0968813
  34.7741494  10.5542392  31.5635199  15.9895549   6.8081636   4.7773404
  15.9797082   6.7374725   5.7318778  16.1973891   5.9244604   4.4738574
  25.6800121  63.2764913  29.1140837  24.8809856  63.7999560  29.0526766
  26.1103385  63.3960678  28.2674689  82.0442446  34.1355390  21.0366339
  81.1563309  34.4795007  20.9390063  81.9288953  33.1869239  21.0918803
  26.4485550  57.2556257  66.9007540  27.0196939  57.9408693  66.5536594
  27.0445037  56.6417933  67.3300409  22.4660230  72.9613352  69.8925209
  21.8562222  73.6934280  69.8007727  22.5516129  72.8379440  70.8378649
  24.6416602  22.6194400   4.2147059  24.5156179  22.5400848   3.2691617
  25.0850568  21.8092174   4.4660563  38.2194761  44.9657415  38.8214774
  37.7972625  45.8246447  38.8055892  38.3676563  44.7546076  37.8996844
  86.9500057  80.5758764  21.4174361  86.1141864  80.5642273  20.9510512
  86.7236225  80.8439042  22.3080248  64.8743321  28.3373327  29.6872325
  65.1767309  29.1353435  29.2536826  65.4269560  28.2633371  30.4652876
  41.5607977  74.2561293  68.5633612  40.7024860  74.4882774  68.9178133
  42.1857452  74.6658945  69.1614914  65.7680337  80.5690529  38.6999411
  66.6552297  80.7880189  38.4150405  65.5579297  79.7620012  38.2300944
  86.5322105  70.3941514  37.9813475  86.5329782  70.9102084  37.1751780
  85.7708446  69.8201014  37.8975386  38.5520969   4.3591137  23.4185786
  38.9569602   4.4422502  22.5552077  38.2080970   3.4660501  23.4368128
  55.4086304  38.0562806  68.2252884  55.0354481  37.1791840  68.1377506
  55.1782990  38.4972835  67.4075508  26.5559659   8.5813732  28.0103488
  27.3647485   8.4787483  28.5119147  26.6657815   9.4111366  27.5459570
  46.0579286  81.0619373  14.1256995  45.4183755  81.2869281  13.4500022
  46.8675027  80.8948536  13.6431021  62.8040091  34.5812322   9.2677540
  63.1678526  34.6317561   8.3838458  62.1904294  35.3142949   9.3164630
  73.4724331  49.6204805  57.9923439  73.9921379  49.2055750  57.3038769
  73.7330389  49.1681623  58.7946653  83.7543591  26.7553730  27.3696608
  84.1410406  26.2830658  26.6323466  83.8852175  27.6794929  27.1572680
  70.1773874  59.3738379  33.3272261  70.7631675  59.5492293  32.5907893
  70.1120369  60.2113714  33.7860293  27.2497068  27.0087785   0.0211520
  26.6258845  27.7321119   0.0833268  26.7615638  26.2445087   0.3274865
  24.5040593   5.6327123  13.8994689  24.2892919   5.3206701  13.0204196
  24.6687589   6.5689869  13.7876792  20.3429875   0.7123012  36.3992972
  20.0758967  -0.1091509  35.9868617  19.7267613   1.3617773  36.0606665
   0.9905157  27.6251096  25.6552786   0.8045755  27.9443426  26.5383143
   0.5455170  28.2453079  25.0777335   9.1314659  12.3146505  15.0172133
   9.7295508  12.4380798  15.7542891   9.6571264  11.8662948  14.3547244
  23.2463632  22.1282787  16.4374156  22.8416333  22.0186157  15.5769534
  23.7988935  22.9044265  16.3450522  13.8436645  79.0564706  27.8311915
  14.7542184  79.2363741  27.5971884  13.3303779  79.5831897  27.2185416
  30.2155242  34.6576757  16.7256922  30.0258527  33.7207431  16.6766162
  29.8828063  34.9248428  17.5825209  19.1908401  78.8065268  23.1046671
  18.7192577  79.3036844  22.4363226  18.6361402  78.0446746  23.2723708
  72.0556545  60.7978392  48.3628798  72.1146011  60.2685833  49.1582680
  71.4777565  61.5231037  48.6000633  34.2952905   1.1189050   9.4964308
  34.5557485   1.9182128   9.9541373  35.1210675   0.6803770   9.2914481
  86.0453606  57.5214434   9.1878611  85.1771927  57.5872898   8.7901539
  86.0815334  58.2512426   9.8061752  36.2031207  55.5012435   0.9920592
  36.6723666  56.3355274   0.9946436  35.2859483  55.7419033   1.1228509
  51.6333914  66.3484240  59.0178680  52.5673103  66.4982510  58.8709784
  51.5597820  65.4026937  59.1459846   4.6141515  35.7494373  22.4171633
   5.0569711  35.3125400  21.6896529   5.1418171  36.5303297  22.5845141
  19.2829595  30.4520673  28.9799017  18.5939775  29.7881240  28.9530654
  18.8132987  31.2810201  29.0719981  43.4803963  50.0283337  65.9932756
  42.5912333  49.7658014  66.2313890  43.6435890  50.8174467  66.5098953
  16.2725625   1.6554946  29.4254202  16.8519387   1.0686845  29.9114317
  16.3681779   1.3844127  28.5124011  19.4864736   4.6114225  17.5163264
  18.8081918   3.9520521  17.6626010  19.5628820   4.6692390  16.5639300
  63.1420469  48.1429815  63.4054089  63.1755400  47.1868706  63.3743620
  63.9736652  48.4242868  63.0239439  52.0254447  46.3101527  10.9532727
  51.5289237  47.1163937  10.8129872  52.9267098  46.6039463  11.0860719
  13.9509099  64.7909643  45.8674140  13.2519430  64.3474461  46.3480086
  13.9591735  65.6797721  46.2226386   5.5504665  51.8797416   5.6054015
   4.6555719  51.5425033   5.5646271   6.0451875  51.1927719   6.0521216
   4.1516910  33.6309499   1.1646456   3.7712011  33.6030120   2.0425267
   3.9197025  34.4974203   0.8305163  24.2107051  77.2029807  25.4797072
  24.4591468  78.1150867  25.6299491  23.2822936  77.2423364  25.2500720
  44.0828995  75.6072857   4.3483681  43.8600341  75.2909495   5.2238650
  44.9393527  76.0214426   4.4541640   7.1219764   0.9919614  17.5022406
   6.2148032   0.6961078  17.4264998   7.0583949   1.8596477  17.9013819
   9.3158581  61.8177795  68.7133312   9.8907902  62.1407509  68.0195284
   8.4660484  62.2159815  68.5249281  51.2897539   1.7965765  70.1899862
  52.1382093   2.2210641  70.3171444  50.7420254   2.4714068  69.7889519
   7.7752107  55.2780833  41.6490073   8.6389583  55.0963904  41.2786479
   7.8071493  56.2043967  41.8880744  69.1274405  51.9479322  63.0085278
  68.5110283  51.7178917  62.3132896  68.7520409  52.7304649  63.4121990
  52.4150435  70.6299092  47.7165694  51.6491453  71.1947991  47.6139445
  52.4824468  70.4869487  48.6606307  46.2521744  47.4333429  64.6780443
  46.5506697  46.7410088  64.0882921  46.9896507  47.5773239  65.2710295
  83.3622201  10.5664653  21.2141604  84.0837940   9.9792404  21.4393992
  83.2974966  10.5116577  20.2607245  25.8270359  29.5144749  59.9893284
  25.7740235  30.0084782  60.8074903  25.6629634  30.1644230  59.3060446
  20.8460412  26.1370773  24.1538996  20.8804450  25.8867092  23.2306666
  20.0952420  26.7277736  24.2140574  65.8965921  46.5269995  60.2701616
  65.2524042  47.1535921  59.9405527  65.7942295  46.5562773  61.2214231
  46.2384176  34.1490507  67.7436113  46.0953331  33.9199662  66.8253088
  45.6554365  34.8922276  67.8987074  65.7435815  68.9388825  22.4714179
  64.7872273  68.9047243  22.4502177  66.0117594  68.0360677  22.6424212
  83.2124527  19.2639656  13.7256617  83.5784252  19.3138380  14.6087260
  83.2856925  20.1556177  13.3853335  38.3064342  32.1246219  63.4309578
  37.9212928  32.9469609  63.7337065  38.8860941  32.3813415  62.7137995
  12.4473608  44.5979452  41.4355183  11.8866789  44.0720940  40.8651257
  12.8614116  45.2299309  40.8478212   8.7443338  29.6706123   4.4517178
   8.0106173  29.3367595   4.9678893   8.3352361  30.0672884   3.6826129
  60.3008453  75.9654238  45.0585742  59.5234791  76.5031053  45.2096743
  60.1124994  75.1408126  45.5066485  65.1716075   2.5193948  16.9263644
  64.7731242   3.2702798  17.3663802  64.8674808   1.7607421  17.4245448
  78.8488285  76.1572887  11.8507857  79.1467468  75.4788186  11.2448496
  78.0777971  75.7790901  12.2735304  13.2045779   7.5579567  42.6758093
  12.4006972   7.3067827  42.2209258  13.4079013   8.4304590  42.3387141
  83.4970570  44.4587040  66.8104887  84.1307545  44.1002941  66.1890364
  83.4423637  43.8004494  67.5032663  47.2105694  67.2498322  65.4515696
  47.8673840  67.6176071  66.0428143  46.6035604  66.7848396  66.0273838
  74.1169391  23.8078041   8.9296336  74.9170623  23.8083191   9.4550414
  73.4160266  23.6449403   9.5608420  24.0086446  56.1829967   5.5271954
  24.7097478  56.6880340   5.9390397  23.5275302  55.7991333   6.2602753
  22.0525926  45.9591641  12.7939028  22.5235408  45.3972779  12.1784873
  22.7405113  46.3715305  13.3163542  47.3543930  49.1958284  61.9056129
  46.8551064  49.4954443  62.6653337  47.9288960  49.9309063  61.6915131
  76.3808068   5.5572147  30.1106829  76.7259200   6.4269609  29.9090190
  76.4931997   5.0610275  29.2998881  62.2424603  65.8344221  63.7151527
  62.9911518  66.1789846  64.2019463  61.7642498  65.3057146  64.3539143
  74.3167440  73.2104065  19.2440886  74.7061054  73.6380936  18.4813876
  75.0611154  73.0061628  19.8101515  35.9311152  35.6561732  67.7870417
  35.7503033  35.5525613  66.8528032  36.1644149  34.7768879  68.0848026
  72.4414762  51.1304683   3.1568904  72.9949482  50.6542701   3.7758679
  72.1151753  51.8799800   3.6548895  73.2551281  64.1197016  12.3351759
  74.1482870  64.0458085  11.9989581  72.8877346  64.8744656  11.8751902
  40.4483012  66.0771086  48.8362689  39.6211080  66.3950826  48.4744925
  40.2066235  65.6786205  49.6723456  29.1345010  37.5684042  21.8967623
  28.2959352  37.1174306  21.7984480  28.9008317  38.4442110  22.2043223
  25.4445062   8.6601181  13.4238143  25.2050243   8.9524622  14.3032450
  26.3930783   8.5377473  13.4621043  41.7378697   6.8245668  27.3464961
  41.7753587   7.5488348  26.7217822  40.8487687   6.4804048  27.2611136
  46.4841447  11.1430902  35.3861899  46.3456140  10.3449220  34.8763175
  45.9614263  11.8076725  34.9374957   8.9387848  73.3284712  40.8834171
   9.1952946  73.0261230  41.7546368   9.2563392  74.2304087  40.8397865
  77.4084473  37.6119137  58.3774710  77.5776243  38.3205628  57.7566433
  76.4864349  37.3919010  58.2443619  35.5379663  33.3578128   5.7182545
  35.8276067  32.8343410   4.9710459  35.5528770  32.7494163   6.4570803
  22.8677497  25.6844873  25.9519286  23.6223445  25.6867094  25.3630156
  22.1092925  25.6463975  25.3692431  16.1004815  29.1694612  10.6937975
  15.5685840  28.5302944  10.2196784  16.4456687  28.6847419  11.4435477
  41.2659917  75.1525135   1.5221114  41.3968644  74.5256824   0.8106417
  40.4221187  74.9096603   1.9030757  10.8929024  42.1345729  29.5085043
  11.6628347  41.9400234  30.0429053  10.5729613  41.2770576  29.2282672
  24.5557294  24.6252174  43.4147639  24.3169675  25.5520219  43.3989138
  25.0480685  24.5186061  44.2286868  33.4760509  15.5052156  15.8243746
  33.1280313  14.8234815  16.3991446  32.7058396  15.8610887  15.3812403
  84.8275185  58.7706327  53.7868357  84.9200630  59.6417999  53.4011698
  83.8950253  58.6963463  53.9897299  28.5172734  28.3345432  24.5791335
  29.1830239  28.8334674  25.0525088  28.6550508  28.5633153  23.6599440
  28.9885467   6.9359534  40.3984356  29.7996849   6.6335147  39.9899960
  29.2185825   7.0690768  41.3179970  55.3151560  60.9341002  69.4066191
  55.7716370  61.7729187  69.4717407  55.2627945  60.6192160  70.3090239
  26.9258914  37.2111721  14.3419547  27.0647416  38.1556625  14.2720694
  25.9890208  37.0944948  14.1841883   6.8585954  12.6634044  23.3331675
   7.7418480  13.0087442  23.4629244   6.5860829  12.3698635  24.2025370
   2.5369113  78.7160970  19.0132231   1.7370218  78.2811333  19.3085475
   3.2214921  78.0553247  19.1179080  49.3268538  79.0251637  51.6665649
  48.5383224  79.5554066  51.7818499  50.0328732  79.5656538  52.0210266
   6.5693229  13.0917208  45.7068205   6.6117185  13.6091082  44.9026155
   6.2187999  13.6953681  46.3617802  25.0165734  12.1403522   6.5715880
  24.9738011  11.2847347   6.9985861  25.5575690  11.9939966   5.7956118
  37.0454073  72.9704666  35.4830313  36.1758852  73.3681393  35.5279899
  37.1668386  72.5625372  36.3403988  29.3253312   2.3212690  15.2730555
  29.5383916   2.1297521  16.1863799  28.9957652   3.2198305  15.2873416
  51.7957306  47.7683544  58.2996130  51.3741159  47.0171976  57.8821993
  52.5586510  47.3984766  58.7438726   7.8494845  50.9380264  17.8892226
   8.0028949  50.2819175  18.5690779   7.8103194  50.4352588  17.0756335
  78.2883016  74.7801544  17.5914568  77.7808801  75.1608493  18.3082671
  78.4933607  73.8933660  17.8877444  20.5880866  30.5828352  11.6666216
  20.7528958  29.9213380  10.9946913  19.6517406  30.5087967  11.8510336
  70.3993893  55.7087851  62.1344280  70.5037928  54.7971058  61.8620777
  71.2541485  56.1071539  61.9703579  39.1820083  34.2800731  11.2081999
  39.7238526  34.9112291  11.6817851  39.8063264  33.7621326  10.7000632
  73.3957760  53.9592482  42.1340270  72.7890865  54.6932020  42.0367045
  73.1747095  53.3686544  41.4139170  85.3886223  52.4049950  67.7981234
  85.0229359  52.6793623  68.6390924  84.6796608  51.9203806  67.3753262
  14.2584500  26.7387981   5.5349774  14.3580566  27.6835413   5.6523175
  13.8912377  26.6440029   4.6561141  57.3225164  55.5665159  65.3410387
  57.8733778  56.3489437  65.3653049  56.5231848  55.8500290  64.8972750
  28.0605683  13.5263557   2.3229212  28.6712823  12.7917118   2.2632784
  27.4199758  13.3620805   1.6309065  56.9401965  10.7439155   6.4735789
  57.8601108  10.9521646   6.3103671  56.9238219   9.7918481   6.5711779
   5.0219212  47.5868244  61.8363661   4.1325984  47.9143066  61.7018694
   5.5567226  48.0853290  61.2185378  33.3462510  62.3238773  14.6290774
  33.5268817  61.4428443  14.3013758  32.9056010  62.7640934  13.9022536
  47.2715139  52.5626993  63.4705877  47.2584581  52.5357294  62.5138569
  48.2006645  52.6069975  63.6962891  31.0201202  42.8002185  18.7487502
  31.4835916  43.5742206  18.4288401  30.5258594  43.1131286  19.5063967
  58.1476307  48.6346388  58.6083984  58.3835316  48.0114079  57.9212570
  58.0108261  49.4611740  58.1454182  35.6325572  70.6053354  17.7219004
  35.9283584  71.5140631  17.7762026  34.8184055  70.5880071  18.2249827
  42.5885472  28.8406486  20.2254290  42.3501430  28.8629217  21.1521906
  41.8069253  28.5069961  19.7850031  80.0797121  23.1569522  23.9046454
  80.4478685  23.3666365  23.0463171  79.3035261  23.7127154  23.9745975
  11.0189543  46.5065689  12.2526354  11.3197789  47.0938701  11.5592188
  10.6042204  47.0846672  12.8929705   5.8554587   3.9208717  16.2503333
   5.4631457   4.6451110  15.7626910   6.7987571   4.0433378  16.1434741
  73.5950941  73.4551824  54.3911362  74.5085365  73.3775545  54.6665049
  73.6189288  73.3257289  53.4430265  74.0552417  15.5327703  39.2431635
  73.7350122  16.0372569  39.9909491  74.6571962  16.1261870  38.7940116
  79.1293031  78.6520726  55.9431028  79.2440325  79.4849702  56.4006519
  78.4674531  78.1869025  56.4547682   9.3022736  53.6848123  51.5365982
   8.5714062  54.1486962  51.9450998   9.0581640  53.6189778  50.6133938
  42.1261978  24.9964619  49.6224403  41.3027048  25.3142095  49.9927568
  42.0458746  25.1616001  48.6830235  39.7386050  13.9067829  64.1179991
  39.7353339  14.1210032  65.0509167  39.2988229  13.0582106  64.0655661
  18.3708286  18.8669693  54.2185783  17.9277420  19.6730423  53.9537096
  18.9916301  18.6914444  53.5114527   9.3635829  79.5235434  37.7224302
   9.3277319  78.6779750  37.2752595  10.2722391  79.8080518  37.6242828
   1.7820980  15.4703307  35.8960104   1.4621403  14.9765682  36.6510296
   2.2524978  14.8242521  35.3691864  77.6846010  64.4786448  17.0613122
  78.3659488  64.3013448  17.7098179  78.1615693  64.6039469  16.2409258
  32.8927525  80.4406712  60.3437948  32.6591404  79.8907630  59.5959568
  32.5829800  79.9520894  61.1063957  73.9602477  62.8226025  48.4610462
  74.2113072  62.7068956  47.5446367  73.3965403  62.0727963  48.6514568
  16.7278727  79.3524154  39.2303133  16.4988955  79.3313385  40.1594830
  17.6327141  79.0417073  39.1995120  62.4572627  28.5819794   9.2431922
  62.1234719  27.9027702   9.8292727  63.3588163  28.3179762   9.0595240
  68.1442587  67.5633861  20.7037348  69.0022174  67.9835655  20.7636637
  67.7062289  67.7953793  21.5226073  53.0052678  55.8054961  20.0535006
  52.8465621  55.2945353  20.8472056  53.2371012  55.1540376  19.3916220
   1.9347661   0.6710555  25.4626364   2.1303123   0.2584006  24.6213812
   2.7822727   0.9845306  25.7783885   7.3934992  63.5669250  42.5411367
   7.0614823  64.3977530  42.8813171   8.0479201  63.8192148  41.8897390
   0.3161138  47.4884422   1.3087077   0.3785032  48.3469887   0.8900971
   0.7782358  47.5933345   2.1403784  35.4238677  14.6386099  52.2096539
  36.2657118  14.7260392  51.7625666  35.1685381  15.5374229  52.4174309
  13.9949807  67.6647610  46.2435818  13.7946852  68.2050950  47.0078802
  14.9118908  67.4158187  46.3599062  34.6611500  12.4678433  44.6745110
  33.7530851  12.2351396  44.4808531  34.7800374  13.3266664  44.2688942
  75.7390396  73.1069161  34.3319125  75.8759443  73.1716110  35.2770609
  75.7705919  72.1678736  34.1490550  47.7919205  75.5995072  48.6279583
  48.5045155  76.0720033  49.0582895  47.1717318  75.4087312  49.3316650
   2.2905628  50.5232811  68.7601900   3.0109480  50.2501822  69.3282509
   2.2361615  49.8366642  68.0954933  19.1088732  62.4211771  64.4320965
  19.1270836  61.8469734  65.1977253  18.3046492  62.1811909  63.9718056
   7.6524242  70.6938989  68.8833141   8.5596212  70.9083087  68.6659336
   7.6681622  69.7572047  69.0797520   3.7186330  51.3480546   8.8360829
   3.5840553  51.3284864   7.8885932   3.9388889  52.2595968   9.0279383
  52.1105766   9.2369425  38.8223767  52.3469305   8.3628029  38.5121346
  52.4106598   9.8260242  38.1301570  52.2734499  32.3958015  55.2486467
  51.4125395  31.9875932  55.3404951  52.8931236  31.6733146  55.3498554
  58.2053010  62.3512675  39.8822875  58.4912697  62.0854070  39.0083499
  57.6761095  63.1348039  39.7330947   1.5785917  74.7808910  46.4326859
   1.1303337  75.6232787  46.3573217   2.4838646  74.9682517  46.1844778
  64.4532347   6.3120061  46.4491272  63.7217808   6.8447453  46.7612171
  64.4614267   5.5520302  47.0310259  11.6681536  70.5251832  53.4699440
  12.4100932  71.0601682  53.7519932  11.0090717  71.1594195  53.1878376
  76.9946138  40.5145009  23.5429568  77.1416990  39.9272739  22.8014941
  76.1184303  40.2899525  23.8561816  81.8722445  69.3037159  60.3581429
  82.2883708  69.8557658  61.0201979  82.2351414  68.4313018  60.5112219
  43.9364032  17.4513604   7.8955311  43.1039969  17.2565080   8.3260674
  44.3913547  18.0320813   8.5054583  77.6041049  75.7823862  60.9989834
  77.4610335  75.1337857  61.6882420  78.4372098  75.5294342  60.6012630
  64.6033079  64.8778624  35.4562330  63.7825316  65.3129203  35.6870651
  64.3591452  63.9623553  35.3203535  75.6957978  76.6419608  65.2528477
  75.1379592  76.3446856  65.9716463  75.1062864  77.1306957  64.6785259
  43.9271832  12.9565740  66.8077564  43.3793497  13.7402642  66.7637444
  44.3230724  12.9896867  67.6786232  57.0867530  50.8430447  22.0297904
  57.9204909  50.5139061  21.6939635  56.4768473  50.1147665  21.9120688
  84.0875379  42.4579077  31.8371768  83.1645671  42.6836764  31.9528861
  84.1763012  42.2857341  30.8997817  32.0895584  70.5776067  58.3384943
  31.6118296  71.3952167  58.1987667  31.5002259  69.8972208  58.0129242
  73.4809105  44.3286579  48.5002417  73.3463947  45.2762796  48.5125060
  72.7298967  43.9863952  48.0154032  58.2894341  46.7236318  13.7195487
  59.1894809  47.0366402  13.6291308  57.8107039  47.1651353  13.0180354
  75.8459330  27.7692413  61.9122505  76.1216068  28.6076117  61.5416145
  75.3482771  27.3492646  61.2106848  60.9067027  68.2404329   7.3934788
  61.3125459  67.6333215   6.7746539  61.3750092  69.0648724   7.2622485
   7.8022235  68.3426954  30.7945818   8.6980575  68.6119439  30.5915732
   7.3748964  69.1430356  31.0996718  22.1146951   1.4945526   0.0627179
  22.8124223   0.8670063  -0.1259571  21.3687120   0.9529752   0.3204722
   9.2138183   7.8991812  64.8255825   8.5120970   8.4444445  65.1812649
   9.4127768   7.2778690  65.5260277  39.8209910  77.9134180   0.2715630
  39.8637883  76.9641282   0.1564545  40.5111734  78.2549788  -0.2969556
  45.8312277  69.3161418  16.8812270  44.8779098  69.3055512  16.9666857
  46.1146585  68.4826376  17.2569556  33.0895505   4.5075674  31.9230361
  33.1109033   4.0126676  31.1039824  32.1977649   4.3904085  32.2504801
  -0.0439745  26.5667977   7.6278824   0.1481574  27.3983123   8.0613560
   0.8058542  26.1322381   7.5559182  48.2115602  54.6789169  57.8041172
  48.5375690  54.3467522  56.9676876  48.3328438  55.6268072  57.7490473
  12.5379365  32.1714403   6.4342732  12.1763032  32.8179409   7.0404810
  11.9044870  31.4538832   6.4434475  26.7257126  70.5071039  29.7052884
  27.2162350  71.1560590  29.2008281  26.8829211  69.6804054  29.2491245
  31.5905674  78.6619739  62.0053911  31.8206271  77.7347026  61.9464588
  30.7024201  78.6661799  62.3623323  42.3424816  19.7172022  68.7630510
  42.2879076  20.6707549  68.8262224  41.7908335  19.4948852  68.0130577
   9.7399553  55.3332169  62.9319048  10.2501114  55.4788596  63.7286234
  10.3608545  54.9403913  62.3183870  49.7850561  25.8291388  56.1263514
  49.0573645  26.4066458  56.3569736  49.3981504  24.9539304  56.1030674
  48.5619116   6.4572388  42.4404669  49.2154360   6.5877038  41.7533588
  48.1445456   5.6247556  42.2190905  71.7265789  67.4264027  13.0365271
  72.4555532  68.0060937  13.2573981  71.9990865  66.9972469  12.2254843
  58.6373138  32.3801923  40.7437563  58.1336403  32.1369290  39.9669862
  59.5373106  32.1313429  40.5332565  81.4196531  42.2907362   6.3959069
  81.8339960  42.8936374   7.0132107  81.7731372  42.5414178   5.5424208
  43.8730288   9.2616826  68.8585281  44.6822071   9.7515267  68.7118387
  43.5558128   9.5716792  69.7067690  26.3897119  11.8490095  18.5287566
  27.0543418  12.2722358  17.9852767  25.8723912  12.5729246  18.8816924
  64.9063818  38.6874747   5.8592267  64.2019240  38.0394523   5.8653731
  64.5138351  39.4642098   5.4607005  44.0239143  32.9153633  43.9521170
  43.6442900  33.2440829  43.1372166  43.6049986  32.0651197  44.0856314
  36.0294199  15.0342441  70.1185799  36.3504672  15.3217900  70.9732628
  36.8221259  14.8706520  69.6076107  55.8016698  67.2873999   6.0809226
  55.9670679  68.0504681   5.5272049  54.9493615  67.4614932   6.4802880
  72.7705185  71.8888594   9.7949023  73.3566372  72.1904709   9.1008372
  71.8911878  72.0461680   9.4510073  69.2310810  13.9798212  60.6215620
  69.2378616  13.5838556  61.4929962  69.9108124  13.5090673  60.1392841
  79.7213038   5.8112258   4.7763009  79.5465525   4.9904651   5.2367873
  80.2384122   5.5524749   4.0134902  69.5848171  47.0855393   4.4046588
  68.6904756  47.0134701   4.7381062  69.9130003  47.9051496   4.7744793
  31.5675219  73.8889922  68.9568090  32.3160418  74.4497437  69.1605473
  31.1984785  73.6625947  69.8105001  60.3250694  15.9420335  58.7239552
  60.8906364  15.1972020  58.9278889  60.8928156  16.5519738  58.2529259
  39.8970199  35.6699657  43.1019783  39.0946889  36.1787677  43.2186699
  39.7653556  35.2006984  42.2781515   0.7936042  65.7381179  10.0337309
   0.8728355  66.6673567   9.8181624   1.0214942  65.6873156  10.9620184
  57.5989723  29.9455476  66.1090851  57.0176077  30.6628084  66.3616419
  58.3699608  30.0548148  66.6657448  52.1937752   7.2652948  65.5419111
  52.7655268   7.1786934  66.3046932  51.7211437   8.0846363  65.6886387
  62.5699417  57.7127101   9.8092837  61.7387978  57.3152401   9.5495791
  62.3345105  58.3281900  10.5035395   4.0523014   7.6826353  12.2727770
   4.1899881   7.5758190  11.3315768   3.2396612   8.1838817  12.3405928
  48.7567071  70.4874803  14.3884940  49.4641582  70.9124543  14.8734088
  48.0735723  70.3391196  15.0423617  35.4857729  68.9433338  25.0388712
  34.6989457  69.4440605  25.2542967  36.1850111  69.3718769  25.5324835
  64.0602128  53.2386913  21.9696040  63.5086242  52.4570848  22.0023532
  63.4847466  53.9238788  21.6296191  10.3896659  46.2665935  21.6545481
  10.2975219  45.3342302  21.8506045   9.4907421  46.5811147  21.5584178
  20.8894777   4.3955126  35.6808686  20.0035191   4.5207676  36.0209012
  20.8550096   3.5534570  35.2270126  53.7821952  53.0124034  15.3111739
  53.1993214  53.6001875  14.8305506  54.0582577  52.3653485  14.6620650
  40.5098549  35.6346299   3.0573935  41.1915449  35.8685513   3.6873240
  40.6226985  36.2580170   2.3398394  29.7749098  72.9050435  52.8063917
  29.0132435  72.6041199  53.3019161  29.9858244  72.1748699  52.2245073
  70.5072395  69.3060233  17.7822680  70.7555000  69.7271373  16.9593043
  69.9625866  69.9545314  18.2283873  56.6630220  54.4501972  61.4476395
  56.0257196  53.7374687  61.4018488  57.2854280  54.1721535  62.1195984
  15.3824878  19.2422068  41.0529423  14.8599589  18.4677351  40.8446407
  16.2848973  18.9772642  40.8749104   1.2343114  66.8814232  35.8234591
   0.3377765  66.8340470  35.4914851   1.7712730  66.5276171  35.1144309
  26.0772460  37.6930939   2.7811427  25.8318752  38.0694323   1.9359250
  25.3445762  37.1214418   3.0105586  81.8408720  61.7826773  33.3989806
  82.2431127  61.3697840  34.1631503  81.0129062  62.1351721  33.7252516
  37.1341181   7.0611912  28.6367154  37.7235436   6.7763084  27.9383969
  37.6381540   7.7122742  29.1248441  42.7570347  54.3855657   5.6959862
  42.3019580  53.5749223   5.9240098  43.6777953  54.2046298   5.8849186
  46.0658121   7.6253295  55.7128668  46.0217524   7.0575988  56.4822626
  46.0996485   7.0212775  54.9711037  27.3383441  71.7368151  18.0132193
  27.7826452  71.2955596  18.7371821  26.4880819  71.9899751  18.3726592
  41.0761348  25.0543072   8.3452267  41.6810731  25.0663127   9.0869374
  40.6917123  25.9308650   8.3354706  29.6154618   4.7143021  68.0819511
  29.2226410   5.4996556  68.4629297  29.2594552   3.9927694  68.6004925
  55.7649652  80.4414274   4.5342631  55.5874983  80.3560497   3.5975403
  55.7643644  79.5417644   4.8611254  30.2320727  77.2714458  59.8644066
  30.8101853  77.9781277  59.5769787  29.4395169  77.7170748  60.1635838
   5.8874839  49.1185285   9.6350188   5.2973073  48.5943957  10.1765055
   6.3508218  48.4773936   9.0960402  38.0385780  37.3505592  68.2770634
  37.2973776  36.7691493  68.1073141  38.8103032  36.8013835  68.1389380
  85.5980341  46.4920397  18.9205927  86.0331051  47.2306468  18.4946723
  84.7652904  46.8497391  19.2285342   1.6787084  65.5063898  64.0783787
   1.8438514  66.2726266  63.5289764   0.7807597  65.6231947  64.3886614
  58.2909028  33.1099864   5.9408564  58.0948583  32.6806195   5.1081271
  57.5262205  33.6594369   6.1128897  71.8593160  32.1052380  12.1588797
  72.2638456  31.3603999  11.7141242  72.5740520  32.7309795  12.2765059
  77.2360794  67.9727842  10.1798625  77.0741645  68.3914830  11.0252661
  77.2142355  67.0347263  10.3690810  20.0603461  12.3207784  20.7495403
  19.6267486  12.0252299  21.5500879  19.3699658  12.7571070  20.2503157
  70.9837627   4.8487064  65.4982948  70.7802677   4.0039280  65.0968313
  70.2669334   5.4219002  65.2265644  37.2473145   2.7068606  65.9448910
  37.0753932   3.5504478  66.3632631  36.4342284   2.2141819  66.0562038
  44.8573971   7.4362862  38.7483740  45.4603577   6.7715740  39.0812802
  44.4080734   7.7638197  39.5275164  16.7463916  56.2164034  12.4192996
  17.5351709  56.6709651  12.1236128  16.1584609  56.2411584  11.6643424
  20.8401299  52.1568012  67.8905106  20.4026985  51.9304800  67.0697403
  20.5582714  53.0531979  68.0728817   2.6163524  75.0156595  10.4259295
   2.8096908  74.6801807   9.5505423   1.9145292  74.4507672  10.7493109
  45.4826216  56.7345585  23.0350585  46.2779979  56.2584080  22.7965445
  44.7703473  56.1287083  22.8305049  72.6608221  45.7254176   1.9894213
  72.0875351  45.1182725   1.5214963  72.1423141  46.5252604   2.0768065
  59.8850346  14.5646238  63.5941887  60.6797457  14.1352093  63.9108467
  60.1969290  15.3667331  63.1751728   5.9236377  56.7901613  11.0462946
   5.9794658  57.3233892  10.2533335   5.4752725  57.3499002  11.6802401
   4.7184556  69.7548582  12.8223605   5.0962919  69.2357804  12.1124167
   4.7208494  70.6525733  12.4901957  80.6855337  42.2555883  16.1550612
  79.7699205  42.3466364  15.8912654  81.1229602  41.8979192  15.3824229
  63.8291589  56.8846990  12.6244444  64.3530599  56.7793204  11.8303103
  63.9286081  57.8080751  12.8562159  67.8753153  70.1601722  10.9357733
  68.3653013  69.8010995  10.1960272  68.0857340  71.0939504  10.9318060
  64.0152324  58.4956653  45.3564882  63.4217221  58.9377672  44.7494268
  64.8742515  58.8746984  45.1703358  45.3223419  12.9222846  69.2065620
  45.1078701  13.0039692  70.1358414  46.2702799  13.0492580  69.1674709
  60.2275912  67.1122624  24.1748805  60.9924928  67.1247675  23.5995478
  60.4214374  66.4286496  24.8162264   6.8031496  31.7983484  44.0778780
   6.7565691  31.1968637  43.3347225   5.9098434  32.1280479  44.1755152
  50.3659288  62.3966529   3.4595866  50.7015244  62.8058626   4.2571778
  51.0523883  62.5422861   2.8085894  15.5032647  19.1098428  50.8329964
  15.0672042  19.5914066  51.5359783  16.0820854  19.7537351  50.4248285
   1.1326281  78.7168457  13.9167208   1.8152014  78.3675696  13.3437151
   1.3215844  79.6536447  13.9708895  38.9219985  14.9432678  17.7922148
  38.7038741  14.7368593  16.8833441  39.3796382  15.7826013  17.7440161
   8.5739040   5.2491528  57.1847630   8.3887643   4.9323869  56.3006735
   9.0121776   6.0895723  57.0511818  82.5103513  48.5046269  34.5708651
  81.6495124  48.7379916  34.2233939  82.5277940  47.5479372  34.5449347
  23.3357008  77.0050768  64.7355413  24.0573319  76.6883577  64.1922474
  22.7471836  76.2542159  64.8135471  21.3732266  32.7720761  57.6167059
  21.7521000  32.2184968  56.9338894  20.5659389  33.1109333  57.2298050
   3.6687406  29.5147998  65.9728575   4.0333184  29.7898872  65.1316452
   3.1390127  28.7453372  65.7641840  42.4899642  23.4391035  26.6269106
  42.3711614  22.6892592  27.2098822  42.5908164  24.1868235  27.2159571
  30.8140969   8.4993905  60.4604435  30.5452824   8.3875066  59.5486021
  30.6048393   9.4115096  60.6616402  78.3333627  46.2693747   3.3634514
  78.0186931  46.2225361   2.4606652  79.1872207  46.6969587   3.2975955
  10.4231819  63.9503546  25.9516716  11.2903937  64.1665680  25.6089902
  10.0420268  64.7955937  26.1894155  50.3708903  44.4625984  19.0095419
  49.4897119  44.1214873  19.1625113  50.8633486  43.7127953  18.6756129
   0.2394336  29.5403113   7.1605963  -0.1749379  29.6299662   8.0187888
   1.0529846  29.0673365   7.3356862  49.9837247  53.7943138   5.5091853
  49.7012297  52.9344060   5.8206172  50.7187859  53.6079051   4.9250931
  84.0638882  77.9339344  48.8306379  83.3278352  78.2982264  48.3389568
  84.1945797  78.5460789  49.5548153   5.0062913   1.6822821  35.4515529
   5.3071135   1.3509622  36.2977004   5.0018895   0.9135903  34.8811817
  42.3432008  67.1191956   0.7698912  41.5483598  66.8210127   0.3276867
  42.0285408  67.7020981   1.4608664  30.3040109   8.3015222  15.5678744
  30.0903974   8.2258577  16.4978690  31.0512242   7.7159566  15.4453463
  18.2633456  76.0162879  64.2286587  18.1243904  75.8189679  63.3023834
  17.5804194  76.6517372  64.4432497   5.8127302  47.3093845  39.3252081
   6.4938587  46.6443630  39.2250056   5.5019134  47.4700363  38.4342475
  70.4870168  42.1626802   8.8504643  70.4098264  41.6020081   8.0785079
  69.8403398  42.8542443   8.7098355  64.4316904  57.2977616   7.9963917
  63.7438432  57.3884179   8.6558480  64.3535558  56.3937833   7.6915116
  20.6150723  23.2257938  48.9505005  20.4533815  23.8773441  49.6328259
  21.5188074  23.3839798  48.6776066  49.6878147   8.7668669  63.0837440
  49.4255114   8.7470788  64.0040922  49.7276402   9.6981239  62.8660154
  42.2320215  51.1088230   3.6272902  42.5841550  51.9115021   3.2426591
  41.2844984  51.1850430   3.5149378  19.1034850  55.1010854  43.5982561
  19.2657812  54.3558461  44.1766262  18.6818798  55.7521779  44.1591120
  66.7443411  45.2338280   0.0167937  67.4164454  45.0802304  -0.6472211
  66.9598428  44.6229343   0.7214922  82.2947341  81.4941649  48.3936262
  83.0182368  81.6660754  48.9963055  81.6579324  81.0071312  48.9166117
   6.0295623  29.5501222   0.7158656   5.1058954  29.5866825   0.4673953
   6.4125532  28.9062371   0.1200766  26.1796339  80.3609456  30.1254487
  26.2803896  79.4102558  30.0778127  25.4152544  80.4929871  30.6862688
  55.0781480  76.0449888  28.1177420  55.8496539  75.5006339  28.2748599
  55.1636283  76.3241936  27.2061629  61.5310812  14.7293544  39.3523955
  61.5833807  15.5261755  38.8245940  62.3565578  14.2753088  39.1830921
  15.9351933  23.9098763  41.1268950  16.8788493  23.7509537  41.1490297
  15.5493665  23.1117916  41.4880466  58.9454214  46.9037201   4.7957177
  59.5054189  46.8502517   5.5701680  59.0540234  46.0570003   4.3627019
  11.9302424  64.4277246  62.8075409  11.7684563  65.1624233  62.2157001
  11.0576423  64.1376359  63.0733347  33.2989669   9.0555674  19.7694969
  33.0140042   8.1459934  19.8572588  34.2463970   9.0235937  19.9021125
  50.2588789  33.3994426   4.6187157  49.4932548  33.1866069   4.0850920
  49.9547807  33.3068408   5.5215878  47.6279275  60.6433024   8.9397282
  47.0839123  60.0471379   9.4543833  47.1774487  61.4861037   8.9943690
   4.3365272  73.6602790  52.2236109   4.6187123  73.3817793  53.0948400
   3.9311632  72.8812731  51.8427372  72.9025594  30.0743701  10.4781241
  72.5220958  30.2093531   9.6102233  72.8221361  29.1329028  10.6311125
  47.7545218  45.5211665  21.8997664  47.6363389  45.1115696  22.7567954
  47.2015432  45.0078954  21.3107009  73.0023853  54.2843510  10.6085963
  73.7232820  53.9857377  10.0541873  72.5336353  54.9214150  10.0694747
  80.9585897  74.1614749  19.6573443  81.7929260  73.7567546  19.8946471
  81.1252920  74.5749165  18.8102812  26.9625449  16.7327416  48.6817217
  27.5477290  16.2101662  49.2300892  27.4763703  16.9233215  47.8969336
  64.7341824  47.3780346  56.1537504  64.6510792  47.7765179  55.2874136
  65.3067017  46.6233349  56.0163260  81.7705957  16.4705231  23.0010027
  81.0934917  16.0460569  23.5278601  82.0754854  17.1977617  23.5435862
  43.2732050  36.0949593   0.6625504  42.6693968  35.6863244   1.2827630
  42.7772371  36.1489819  -0.1543527   7.4608081  46.6233941  20.6468386
   7.3759645  45.9000226  20.0257392   7.9206937  47.3059823  20.1581568
  34.5800304  30.2473021  68.1466389  35.1532817  30.8389902  68.6339998
  34.1646075  30.8044577  67.4884319  79.7983257  41.8925508   8.9005847
  79.4594137  40.9991278   8.9568324  80.0114814  42.0100194   7.9748435
  72.8633261  28.7969923  54.0905285  73.3131504  29.6296406  53.9470291
  73.5199451  28.1315136  53.8850498   4.0661748  77.4368099  61.5494776
   3.3181222  76.8813784  61.3300562   4.5655282  77.4987207  60.7352018
  47.2508566  50.0383015  23.6724753  46.8140463  50.5641653  24.3424697
  47.5450675  49.2548169  24.1370482   3.9892562  59.8243148  69.0919161
   4.4251831  58.9784105  69.1950846   4.4882878  60.4205949  69.6501780
  56.5589809  20.5123973  51.4420033  56.8613386  19.6845078  51.0686255
  55.6470346  20.3480506  51.6819429  35.2743077  26.1707211  45.0889778
  35.5621934  27.0749903  44.9638844  34.3792200  26.2478447  45.4192877
  42.8292656  32.9705429  59.0870714  42.4233770  33.5866284  59.6969271
  42.8560638  33.4408879  58.2538319  19.3304515  65.2336454  67.8676510
  18.5882187  65.4241562  67.2940397  20.0985599  65.3253794  67.3038864
  46.8937445   5.3013796  57.8003931  47.1238852   5.3043300  56.8712807
  46.1292982   4.7279978  57.8559732  86.1540031  18.6889803  36.3830709
  86.4117908  19.3944478  36.9764471  86.9119263  18.5681748  35.8110595
  35.1497769  13.2264960  34.5129418  35.2537513  12.8885841  33.6234260
  34.4529653  12.6911855  34.8925853   2.0760625  47.8729286  28.2030959
   2.6771110  47.9433502  28.9447302   1.2264341  48.1349464  28.5576624
  13.5490793  39.2268795  11.6250605  14.4535249  39.4379427  11.8567175
  13.0546182  40.0158251  11.8471045  21.6280359  27.1505274   5.9283442
  21.3068479  28.0466701   5.8283610  22.4486679  27.2428264   6.4123721
  32.0594788  16.8231952  54.4603682  31.7896008  16.0531843  54.9608469
  31.4047575  16.8992591  53.7662601  25.9491981  54.7640278   1.2812848
  26.5513332  55.1757707   0.6614966  26.4984595  54.1647960   1.7867179
  79.0661653  17.5778980  10.7296271  79.5207723  18.3990879  10.9172720
  78.1705435  17.7250499  11.0336585  34.7921848  10.9977937  62.1029997
  35.7404971  10.9064877  62.1957350  34.6013594  11.8720174  62.4429274
  77.7150671  78.6362960  14.1691203  78.4147159  77.9834201  14.1472334
  78.0940763  79.3777873  14.6411128  28.6224937  12.6688755  47.6348877
  29.5658040  12.5409842  47.7350903  28.5437441  13.4121048  47.0368576
  58.0049078  66.8259646   7.5160260  57.2013275  67.1996762   7.1543212
  58.7088791  67.3233606   7.0997901  41.7039871   9.8689348  61.9545460
  41.3427448  10.7290721  62.1687937  40.9852648   9.4084352  61.5214062
  49.3957567  27.8591537  63.6519718  49.0619230  27.3660326  62.9025555
  48.7011862  28.4857202  63.8550043  65.2845661  68.2893016  31.7767233
  64.7145383  68.5846640  31.0667510  65.9621827  67.7726652  31.3406653
  39.5005015  46.9493206  12.4599833  39.3381445  46.0093691  12.5397582
  40.1034741  47.1498282  13.1758399  48.6617998  56.8739106   2.6778740
  48.7113515  55.9966649   3.0576319  47.8620223  56.8624617   2.1520800
  78.3255617  46.3601394  10.7388396  79.1738359  46.7888607  10.8522219
  78.4774391  45.7050331  10.0576586  26.1421784  77.4637524  48.8394737
  25.8466586  78.2982777  49.2034340  26.8767317  77.2061936  49.3965435
  75.7209531  60.2136995  22.9186339  75.2501098  60.2496840  22.0860190
  76.0871879  61.0916688  23.0248160  73.7611047  57.0611693  13.6747260
  73.6891643  56.1270644  13.4784979  73.4277622  57.4970354  12.8904147
  51.6679350  38.2061015   0.9273810  51.9625775  38.8908178   1.5278668
  52.0528118  38.4451230   0.0841899  35.1460598  67.5551798   2.5086541
  34.8114030  67.4490001   3.3991379  36.0960833  67.4813749   2.5994296
  66.1126566  27.7165818  61.7888403  65.8659649  27.4235320  60.9116316
  66.8849802  28.2647061  61.6498852  56.0991859  27.0803046  69.6351719
  55.9022093  27.7352643  70.3048468  56.6657782  26.4482856  70.0776148
   5.7878860  78.6275266  18.2517016   6.5724786  78.0801914  18.2189918
   5.2374085  78.2174305  18.9188063  15.5757040  73.2839157  41.4290137
  16.2360614  73.2854583  42.1219534  15.3052228  72.3684789  41.3579650
  62.2612516  51.2897195  12.4526972  62.0433179  52.1277322  12.0446963
  62.2219960  51.4637996  13.3931155  80.9272424  63.9574196  18.0691809
  80.8207695  63.0741002  17.7161307  81.4869110  63.8425471  18.8371653
  24.4770360  17.2922182  59.0834999  24.5190096  16.3643539  58.8521147
  25.3578782  17.6230037  58.9076328  37.3228351  34.8285105   2.9421801
  36.4297918  34.4996371   3.0448813  37.8753010  34.1423358   3.3165831
  45.6065989  28.6083674  51.1915350  45.3970098  27.7358651  50.8582973
  46.1514330  29.0008044  50.5093479   5.4874452  77.8757987  56.0845566
   6.3498934  78.2358901  55.8777952   5.2636798  77.3386637  55.3245258
  70.2631030   8.1470937   5.9715933  70.2094112   7.2067041   5.8012337
  69.8042712   8.5505695   5.2347703  50.3459787  15.0895119  57.4646568
  49.8973370  14.3001282  57.7676868  51.0398149  14.7651994  56.8905115
  59.2566872  64.4215488  31.9553447  59.1757441  63.8703823  31.1769509
  58.5084343  64.1778183  32.5002694  53.6395693  16.9829714  66.7061567
  53.0678177  16.8629825  65.9479141  54.4520855  16.5373909  66.4663506
  26.4973807  21.4263129  64.6418333  26.5822673  20.9320188  63.8265419
  25.7038283  21.9484138  64.5238733  67.9244367  81.1628558  34.5815653
  68.8418213  81.0420682  34.3365092  67.5663129  80.2757551  34.6136851
  73.2863235  34.9696088  41.9707966  73.1560469  34.4311476  41.1902046
  72.4038839  35.2382302  42.2264767  16.8446010  77.9832198  11.9662280
  16.5226596  77.0974900  11.7986960  17.7741044  77.9468967  11.7405314
  60.2246094  48.2792425  63.3434534  61.1609507  48.3958244  63.5043955
  60.0454330  48.8168335  62.5720072  33.3084965   1.7474499  69.1326237
  33.1316614   0.9668735  69.6576595  33.8985801   2.2716920  69.6741104
  37.8946576   1.4206667  10.5578799  38.5627303   1.7390413   9.9507994
  37.2317777   1.0196466   9.9957366  57.2613096  40.7343769  45.4417753
  57.3286343  41.6086149  45.0578403  56.6487980  40.2691031  44.8720551
  19.1919607  73.4056117   0.6568379  18.5581964  73.9224269   0.1593728
  19.3902391  72.6599170   0.0903983  67.0120184  79.2692448  25.8352561
  67.4735943  79.9181010  25.3040595  66.6800515  79.7648932  26.5838236
  71.3653803  45.8199549  54.6151781  70.9745169  46.2397242  53.8488579
  71.7798662  45.0292826  54.2698336  32.0450530  15.7667036  10.3741355
  31.6147742  16.4299554  10.9137530  32.5003085  16.2672491   9.6970553
  42.4210215  35.2901244  67.6816034  42.8061199  35.3834152  68.5529423
  42.6670218  34.4076347  67.4042511  49.4566957  42.8786530  13.2036395
  48.6363284  43.3698051  13.2483286  50.1057545  43.4599282  13.5999674
  86.0180934   1.6052360  32.9520125  86.0363849   1.0319299  32.1857161
  86.6708740   2.2791929  32.7625651  61.5232563  49.6495581  66.2447596
  61.9588661  49.8854589  67.0637989  61.4102554  48.7005568  66.2982798
  73.6181394  67.6578452   3.9779706  72.7169840  67.8197028   3.6987776
  73.9446584  68.5175278   4.2436070  79.0477657  25.8935070  68.5172844
  78.5537767  26.3237429  69.2152119  79.6893072  25.3517723  68.9768267
  48.5726690  58.6109543  51.9261980  47.8443432  59.1408110  51.6021299
  49.3562508  59.0775394  51.6354513  67.0724678  37.4674678  66.8974304
  67.9178953  37.4536347  67.3460865  66.4796734  37.8934264  67.5166130
  59.4804764   6.2946403  62.5441122  60.4248285   6.1515898  62.6071119
  59.1992474   6.4386535  63.4476662  18.4986985   3.9815217  69.4441605
  17.5601792   4.1208947  69.5706034  18.5757732   3.6754137  68.5405064
  64.4169251  63.8978483  28.8580126  65.1279751  63.7469818  29.4808192
  63.8652913  64.5569398  29.2793555  56.6262484  36.8824124  52.8154325
  55.7281876  36.6307855  53.0308437  56.5663719  37.8093505  52.5842810
  63.3735704  39.8542786  60.8517408  64.1575718  40.0308371  61.3717413
  63.5786915  39.0502405  60.3745890  22.0508903  77.0062377  34.3344302
  22.4990028  77.2735144  33.5319418  21.7308753  77.8246238  34.7139926
  34.5061445  12.5220561  53.8289261  34.8525906  13.0475080  53.1077433
  34.5252609  13.1097722  54.5842123  62.0920134   9.8932207  59.3035173
  62.7120447  10.1530635  58.6221409  61.3265514   9.5777363  58.8231325
  54.4553749  55.8616211   6.2589879  54.5323674  56.8087949   6.1442465
  53.5704795  55.7328738   6.6004796  40.5588096  71.6491606  51.8097205
  40.8574527  72.5456740  51.6570468  39.6046680  71.7172195  51.8446440
  48.3247695  14.5865030  24.2844290  47.8811298  14.7826929  23.4592433
  49.2312751  14.4098348  24.0328974  68.9554310  18.5024047  55.5292654
  69.7179985  18.6413002  56.0908985  69.3236017  18.2328176  54.6878386
  85.1352666  23.5585499  59.0268135  85.9219026  23.9171600  59.4377041
  85.4229504  23.2868409  58.1552362  12.9238782  26.0281200   7.8450293
  13.1394467  26.6681356   7.1666903  12.8190980  25.2030296   7.3712296
  47.9875994  24.8344922  64.2640543  47.8471279  24.0898013  63.6793041
  48.9305878  24.9943709  64.2259836  12.2105592  65.1498033  19.5375056
  12.9438776  65.6952812  19.2530150  11.8549770  64.7849109  18.7271685
  70.8921214   3.4513301  29.2803568  70.2830632   3.4927673  28.5430903
  70.4889401   3.9976043  29.9550910  24.9046969  18.6202419  69.5592356
  24.3432951  17.8985751  69.8425341  24.4416976  19.4089723  69.8416662
  14.8433250  51.8710520   6.9107289  14.7972244  50.9155001   6.9427962
  14.2409271  52.1629991   7.5949187  28.7433052  19.6310127  44.2899418
  27.7873802  19.6688235  44.2581129  28.9783406  18.9654684  43.6433840
  37.5030923  30.4242110  55.9167576  38.1831789  29.8091030  55.6422424
  37.8601432  31.2865281  55.7042646  32.5988555  16.5651095  50.8837318
  32.8896022  15.9220910  50.2370262  33.3893585  16.7819810  51.3779974
  46.5168333  32.0634961  60.1607561  47.2975636  31.5686250  60.4093504
  46.8327856  32.7061868  59.5256519  50.7575695  62.7665521  34.5783324
  50.4300682  63.5261466  35.0599856  50.0152270  62.1629574  34.5494933
  56.7696492  73.9664914  15.2814574  57.4292223  74.2712356  15.9046168
  56.7571561  73.0157449  15.3917212  13.7873085  63.3973450  21.5717483
  13.1286820  63.6694009  20.9326625  13.2994994  62.8811092  22.2134447
  41.6693783  73.8510561  62.8975773  41.8949223  74.7230244  62.5734901
  41.1240149  73.4728336  62.2078228  60.1087205  72.0777561  12.2846789
  60.7073371  72.4297597  12.9434580  60.6681124  71.8817665  11.5330882
  82.9198591  70.1048853  20.6155867  82.9454271  70.2546479  19.6705241
  83.6485998  69.5073273  20.7831950  37.9500302  75.3456546  43.7327433
  38.6327036  75.9858758  43.9335060  37.7708491  75.4708529  42.8008366
  25.6839508  69.6163155   9.5645136  26.2845844  70.3419925   9.3946261
  25.4379409  69.7192170  10.4838175  40.8123255  20.4187918  66.2548780
  40.1699162  20.8507872  65.6919241  41.4589310  21.0982966  66.4456940
  54.9744383  74.0151026   4.6464867  54.8059909  74.5040371   3.8410039
  54.9191348  73.0960323   4.3847937   0.3974241  68.0364467  19.7786898
   0.3542846  67.2297694  19.2652220   0.2699512  67.7515008  20.6835551
  83.9549247  60.2808811   2.9234309  83.2410185  59.6972193   3.1801600
  84.6583501  60.0855936   3.5425324  -0.0279242  59.1542317  11.3955683
   0.7137626  58.5945310  11.6255087  -0.0952536  59.7732760  12.1225447
   9.9304145  72.9834844   3.1263918  10.5020660  73.7512423   3.1261153
   9.0463251  73.3431150   3.0536980  84.5716460   4.4242162   2.7508730
  85.4646953   4.5135564   2.4181408  84.6781166   4.0483970   3.6247487
  76.0221187  77.7965309  16.4499945  76.1930935  78.2756688  17.2608180
  76.6563694  78.1485678  15.8254714  84.2955406  17.2261924  12.1205706
  85.2305015  17.4231119  12.1780295  83.8855417  17.8270979  12.7427001
  48.6035864  51.7066457  12.6683611  48.5253421  50.7527448  12.6548094
  47.7639727  52.0109631  13.0128474  29.2208427  62.3771478   3.8815112
  28.9645236  61.7693235   3.1879134  29.4091266  61.8162753   4.6339745
   8.0515323   0.8233232  32.9798121   8.7235246   0.5637140  33.6101050
   8.4397278   1.5581340  32.5048537  50.0021315  11.7017198  62.8553963
  49.4720650  12.3628569  63.3005428  50.9049797  11.9293284  63.0774164
  44.6600533   0.3025583  43.5419941  44.9988890   1.1600153  43.2847214
  43.7736177   0.4798882  43.8566637  55.9547901  28.6113167  56.9690275
  55.5198050  27.8190112  56.6539526  56.8889427  28.4103870  56.9122744
  56.2147045  29.8671865  69.7668266  56.0943556  30.3735805  70.5701399
  56.1072874  30.5063415  69.0624285   4.1058621   0.0973434  14.5451827
   4.5971832   0.8924646  14.3387503   3.5188780  -0.0221186  13.7985892
  28.6030579   5.9553838  54.6817732  28.8209605   5.2619618  54.0589428
  29.0550923   6.7295027  54.3461561  22.9270434  39.5664907  65.9058809
  23.7626553  39.9756765  65.6810427  23.0888677  38.6272120  65.8175564
  45.1435089  11.1887300  65.0975466  44.5081139  11.6383553  65.6546307
  44.6162271  10.7948172  64.4025373  69.4992773  78.1717326   7.6183219
  69.1650192  77.6503207   8.3481402  68.8476507  78.8627292   7.4994177
  73.5334436  22.1833946   6.7903418  73.8563863  22.6286639   7.5737137
  73.1199638  21.3860800   7.1213336  37.7298580  66.9318487   3.4908385
  38.2385687  67.2081210   2.7285285  38.1142125  66.0925223   3.7438912
  55.2139282  49.6963692  50.4479933  54.7214079  49.6681595  49.6277094
  55.4042959  50.6249332  50.5812454  65.7847548  20.5784297  62.2793531
  65.6216955  21.5130997  62.1527195  66.2491894  20.3069067  61.4876366
  55.4840231   3.5519242  55.5024290  55.1253700   2.8432459  54.9682236
  56.1967659   3.1440178  55.9942007  71.0067455  76.0571601   6.7562003
  71.7828409  76.3499905   6.2785382  70.5334798  76.8634488   6.9615073
  69.2031614  55.7287385  14.1922564  69.2634718  54.9142207  14.6914095
  69.6189014  55.5272450  13.3539195  34.7337937   2.9119739  55.9857798
  34.9560237   2.0867249  55.5547237  35.4135942   3.0259278  56.6499424
  78.8931314  67.4825551   3.1248421  79.6021263  66.8428733   3.1909031
  78.1915132  67.1190979   3.6650796  39.7331128  17.5191135  17.5736231
  39.9889789  17.3989935  16.6591067  40.4007707  18.1024093  17.9345030
  16.9179958  44.1447474   7.9182667  16.6846746  45.0490053   8.1282944
  17.2649950  43.7905754   8.7370390  28.1227002   2.8766031   3.9897675
  27.6821981   2.0440073   3.8195557  27.5853143   3.5283203   3.5395331
  38.3199620  24.3696690  64.1110420  38.1813693  23.4256768  64.1878605
  37.4680352  24.7543764  64.3170834  61.0417366   5.7165736  50.5861950
  60.1588011   6.0025054  50.3518867  61.5491152   6.5263873  50.6409407
  23.1437159  33.3627367  59.4239950  22.6091337  33.3731055  58.6300516
  23.1335378  34.2691588  59.7314453   3.8456736  26.9410677  24.3727011
   3.1327186  26.5729255  24.8946185   3.5206328  27.7968664  24.0930743
  49.6881056  42.0580721  61.2055111  50.1899576  42.4715376  60.5030727
  49.9482489  41.1373758  61.1758184  83.2298167   0.7172365   6.4092249
  83.6040457   0.0503177   5.8335490  82.2967990   0.5064697   6.4451212
  35.0430536  12.5398827  68.9465904  34.4536281  12.7864718  68.2338476
  35.3512454  13.3735871  69.3018198  22.0141301   1.0973281   8.8679642
  22.0876870   1.4693279   9.7468466  21.4034352   0.3669805   8.9673466
  31.8794483  67.7454902  11.6191954  31.5129989  67.9695083  12.4746317
  32.7538246  68.1349565  11.6237635  42.0009756  50.1946831  68.5493135
  42.1901512  49.2587519  68.6162424  41.8699694  50.4778719  69.4542265
  27.3518643   6.1076564  18.2198710  26.4928899   5.7893772  17.9422183
  27.3427949   6.0209007  19.1730876  67.6462126  20.1224899  59.7653675
  68.3051109  19.9566340  60.4395914  68.0926704  20.6768703  59.1253901
  46.1165667  19.6808839  62.6005793  46.7068577  18.9535165  62.4037790
  45.4027414  19.5874572  61.9697428  58.2096004  21.9550920  53.3260918
  57.9990625  21.2809539  53.9721870  58.1067753  21.5174007  52.4810553
  60.3611469  24.1161633  67.9837322  59.6492672  24.2167664  67.3518038
  59.9214220  23.9155364  68.8099432  79.0155554  70.4400349  68.7934971
  78.3847332  69.9459600  68.2698679  78.7773848  70.2471113  69.7002983
  57.9328267  53.6170031  10.7421584  58.2136194  52.7019800  10.7311911
  57.4800054  53.7386014   9.9076552  49.3890810  39.1828489  69.2305660
  50.2932119  38.8792944  69.1491127  48.8618279  38.4575605  68.8956213
  22.6504469  26.2765408  67.5647497  22.4370456  26.3404083  68.4956741
  23.5692930  26.5393567  67.5110817  62.1337310  63.8023593  14.2514891
  61.5629450  63.3389713  13.6385340  62.7244655  63.1273939  14.5856852
  65.3138081  79.5982935   0.5296511  65.8413259  80.2275564   0.0377316
  65.1102940  80.0463726   1.3506455   1.0177320  76.7990996   0.6540484
   1.8169301  77.2821452   0.8642382   0.6615203  77.2475697  -0.1129060
  76.8394033  74.2687012   1.9718213  76.2873642  73.5144784   1.7653508
  77.3592178  74.4088580   1.1803765  12.9182332  59.9991836   6.4307208
  12.4966806  59.5691098   5.6867070  12.8417724  59.3685295   7.1467251
   1.9901937  58.7368788   4.2782588   1.7159170  58.3038832   5.0866646
   1.6568035  59.6303989   4.3601365  69.0742111  35.8412743  38.7303138
  68.8215351  35.8769107  39.6528745  69.9500942  35.4552341  38.7366104
  66.8370819   9.5395225  59.4636631  67.6144314   8.9957654  59.5913029
  66.5857315   9.3879521  58.5525751  23.9038700  64.2194583  43.1532378
  23.2591957  63.7656619  43.6960978  24.6720355  63.6485030  43.1658644
   1.1305628   1.6928501  10.5752654   1.5178571   2.5623865  10.6759829
   0.2703438   1.8570871  10.1888938  85.0124494  28.9574899  20.1718611
  84.2912475  29.0512218  20.7942099  84.5850984  28.8952090  19.3176264
  29.3510518   8.3740396   7.1739764  29.9013457   7.6726074   7.5223918
  28.5927949   8.3959837   7.7577586  70.9753935  66.6999580  32.0623488
  71.2515918  67.4348738  32.6099295  71.0777847  67.0178916  31.1653227
  24.3402171  14.8874533  66.7893648  25.1345229  15.4044080  66.9237852
  24.6577597  14.0284944  66.5108156   2.8108638  81.4241196  25.2099127
   2.1703380  80.7139684  25.1694102   2.7846855  81.8202569  24.3389315
  58.9108515  54.0505409  48.1279087  58.6922455  53.9632416  47.2001028
  58.7222528  54.9662304  48.3332872  27.0059156  43.5841560  64.3745375
  27.1746993  44.4042587  64.8384094  26.1264968  43.3282614  64.6526909
  35.9328160   7.3895998  31.7168803  35.1024566   7.0231695  31.4128012
  36.4315019   6.6317815  32.0222563  71.3334552  72.2886087  34.0905947
  71.1819784  71.4364983  34.4994921  71.6933338  72.0799972  33.2285018
  15.9388375   4.5237201  67.0971012  15.5442083   4.5147556  66.2250805
  16.6929913   3.9387006  67.0247316  47.0476007  34.0603280  56.7805147
  46.8490314  34.8285723  56.2451649  46.9675112  34.3699074  57.6827240
  74.6692602  37.7357899  24.7073264  74.9822704  38.2549982  23.9665980
  73.9464037  38.2476895  25.0701804  77.2632448  69.7022654  33.8714022
  77.2108738  69.7699811  34.8247618  77.7348272  68.8841178  33.7149424
  22.2640824  23.0189633  43.9292383  22.5646019  23.1213021  44.8322582
  22.7316713  23.6979103  43.4428024   0.4825888   5.1842184   4.8129410
   0.2512417   6.1091108   4.7275776   0.5065165   4.8592586   3.9129061
  78.0956785  64.8682310  13.6888117  77.8382818  65.6391265  13.1831450
  78.9442102  65.1012661  14.0655322  11.2618297  80.0575854  16.9651026
  11.5022653  79.4412567  16.2733264  10.9386724  80.8279564  16.4978499
  59.3243408  39.2261195  50.1452208  59.5284796  39.5041037  51.0381269
  58.3940077  39.4248366  50.0392914  85.1064388  57.0052840   3.2554860
  85.1933090  57.7204778   3.8857073  84.2319957  56.6502120   3.4151835
  48.8480091  36.8311000  57.5626040  49.1631794  35.9359741  57.6876879
  48.2341194  36.7688155  56.8308306   7.3480075  72.3864438  26.4767356
   8.2165569  72.3221924  26.0795779   6.8274063  71.7238476  26.0226721
  46.9424820  26.5107346  45.2941513  46.9998789  26.7623544  46.2159014
  46.0787821  26.8155122  45.0160122  61.1233322  72.2159125   2.5609583
  60.1864378  72.3486234   2.4165625  61.4826028  73.1004001   2.6305146
  45.0144867  60.6029667  12.9409499  45.4169909  61.4601995  12.8017420
  44.3721179  60.7498802  13.6352152  23.2958835  63.5624863   7.6121707
  22.8251403  64.3561270   7.3576779  24.1586917  63.6559011   7.2083659
  64.1281223  15.0008714  62.0281839  64.8793650  14.8967540  61.4442110
  63.6128616  15.7038939  61.6325808  62.7352667  29.6353078  69.1373205
  63.4442854  30.2083397  69.4291353  63.0644751  29.2386150  68.3307934
  66.0655920  77.5349118   2.6732821  66.7081253  77.7439763   1.9952912
  66.5083734  77.7444054   3.4956498  41.6697359  22.4916553  67.7152491
  40.8691740  23.0070639  67.8136444  42.3517513  23.1397963  67.5391817
  36.7250285   0.4042930   1.6873688  36.2468276   0.0171489   2.4206395
  36.1526570   0.2720613   0.9316344  83.7287362  12.8557367  16.1915869
  83.1177266  13.3206338  15.6199545  84.0972431  13.5375852  16.7532916
  63.7416331  53.1592681  15.5838484  63.4153716  53.2731916  16.4764876
  63.8511984  54.0508653  15.2532668  43.1276711  80.0528469  29.8733258
  42.9593333  80.6456637  29.1408896  42.5949677  80.3992858  30.5891705
  41.1977658   0.7747955  11.7368025  40.8860717   1.6797275  11.7236323
  40.6895528   0.3565092  12.4317832  25.0405067  64.9626543  12.9954333
  25.6058162  65.7015659  13.2205290  24.8127311  65.1064517  12.0769209
  75.3515855  69.5251967  16.8456645  74.7312204  69.6856620  16.1345858
  74.9190132  69.8753049  17.6244731  23.2332921  20.8792996  63.2991076
  23.1838202  21.7969775  63.5667896  23.0359030  20.3864956  64.0956068
  57.1558714  51.0594463  57.4666929  56.5495491  51.1677217  58.1994152
  57.6286936  51.8905306  57.4222517  48.8068056  46.5562725  51.2146330
  48.6412096  47.4585056  50.9411573  47.9390478  46.2014818  51.4079046
   4.7232192  32.7365066  18.4446330   4.4106382  33.5298009  18.0096526
   4.4482940  32.0232685  17.8684897  84.5217935  75.0535275   2.6890845
  85.2741758  74.6903445   3.1562609  83.8456194  75.1471450   3.3600945
  44.2677116  28.9295316  53.7734985  44.5100784  29.2832303  52.9177046
  44.0142202  28.0238724  53.5952902  14.0573726   3.1856222  38.3422656
  13.2663808   3.5756034  37.9701418  14.1856322   3.6481351  39.1704268
  28.2750934  65.6164004   7.4601693  27.4580329  66.1140801   7.4910731
  28.8459342  66.1284782   6.8873210  26.0969353  12.3129809  66.9484663
  26.6320515  12.6385903  66.2246847  25.8546972  11.4247549  66.6865349
  26.6082797   6.0796852   6.8580527  25.9543834   6.1589355   7.5525851
  26.9257531   5.1795024   6.9295783  56.1256520  73.6521246  35.5482573
  55.3408090  73.7715794  35.0134844  56.1103551  74.3854787  36.1632342
  48.0412912  24.2880297  54.7956705  47.5067234  23.8263178  55.4416513
  47.4422741  24.4624448  54.0697289  45.5090842  17.9184551  20.9934420
  45.9682593  17.9057140  21.8332190  45.0674090  18.7674589  20.9748168
  43.8572788  53.3383799  52.4762201  43.2891607  53.9854908  52.8942204
  43.3946848  53.0961800  51.6739845  32.9519272  18.5778594  56.8577385
  32.3467469  19.0695024  56.3025141  33.8168168  18.9188850  56.6299152
   7.6692766  43.0387931   2.3865981   8.4929365  43.0860912   2.8719658
   7.5709623  43.9073269   1.9964499   9.8300165  41.9822569  13.9626975
  10.3107875  42.6650518  13.4948535  10.1297897  42.0562267  14.8687357
  67.6509802  72.8238799  21.4559359  66.8672291  73.2102491  21.0651869
  67.6418416  71.9133927  21.1607070  22.8881019  73.0697967   2.3435254
  23.2527202  73.9237596   2.5759835  22.0246738  73.0575635   2.7565283
  69.8324347  43.9000845  59.4939852  69.8650742  44.1674900  58.5754776
  69.4278193  44.6411324  59.9449492   7.5561136  80.0235822   5.1421494
   7.0002407  79.5217873   5.7383389   6.9571012  80.3413202   4.4665331
  48.5268579   9.0177364   8.5252661  47.8420291   9.5180721   8.0815310
  49.3171630   9.1861791   8.0121607  73.9279127  31.5287757  43.2835960
  74.7759533  31.4269519  42.8515148  74.1351080  31.9352937  44.1250515
  64.1514921  31.3200092  39.6372318  63.8174438  31.0517216  38.7812710
  64.9494934  30.8047223  39.7551537  24.8647976  34.1686606  62.8673840
  24.0302777  33.8713241  62.5048923  25.3947616  33.3741403  62.9314804
  65.0782394  38.5374141  41.4408875  65.4675484  39.3356419  41.0838032
  64.1443777  38.7361312  41.5090084  47.9279995  37.1622062  68.2091999
  48.2427025  36.3540649  68.6143017  46.9888687  37.0204902  68.0901194
  39.6317992  16.2541551   6.7629475  39.2326245  15.8001680   7.5050969
  40.1126704  15.5714626   6.2950558  65.2038240   2.0929031  55.9572363
  64.3613720   2.3438653  55.5783939  65.8519316   2.3928799  55.3198910
  57.0378065  34.4490790  44.6726322  57.6745510  34.5787215  43.9697933
  57.2503328  33.5879517  45.0325298  18.0640209  24.1323447  63.5516548
  19.0175974  24.2029977  63.5077143  17.8858709  23.8497329  64.4486618
  79.2211914  53.9432764  39.2154932  80.1619911  54.1186523  39.2347503
  79.0374756  53.5289717  40.0585985  44.9287287  48.3183803   9.7582717
  44.8737423  47.4992170  10.2503867  44.0716795  48.4050514   9.3409152
  44.7169809  52.8881194  20.9029765  44.1606776  52.5354840  20.2084250
  45.2816848  52.1565260  21.1522002  50.2082777  33.6265659  46.5074539
  50.8778572  33.2338643  47.0675325  50.2332878  33.1070042  45.7039261
  42.5896072  25.6013298  69.2266703  42.8509712  25.2427959  68.3785105
  43.0850697  25.0894904  69.8660183   9.7011941  50.4395874   8.0133195
   9.7709411  50.3183206   8.9602418   9.7612852  51.3866522   7.8880639
  44.3483774  74.7481014  41.1944289  44.3377463  74.3753912  42.0760245
  44.9420337  74.1813208  40.7019229  49.9305407  45.7600071   2.5843186
  49.3711511  46.5305473   2.4864192  49.6854130  45.1917432   1.8540997
  53.6377573  33.8020635  61.1408949  54.5441103  33.8098931  61.4486265
  53.4713316  32.8883314  60.9093189  35.4007626  28.5440040  61.9187355
  35.0713921  28.5435104  61.0199881  34.6144605  28.4910464  62.4620152
  64.0329448  74.2644812   5.8553929  64.1791097  74.5514323   6.7567963
  63.1963197  74.6600391   5.6107945  54.3234460  64.2147590   5.7217307
  54.8908941  64.4961120   5.0040431  54.5951382  64.7513677   6.4663596
  28.3299241  37.1409578   1.5386004  28.9924083  37.7640838   1.8370194
  27.5342069  37.3951835   2.0059723  76.8196003  73.3660890  20.4176898
  77.1267549  74.2608311  20.2716441  76.8817274  73.2431366  21.3649172
  38.2157493  23.7979293  40.7667542  38.0542397  23.0953360  40.1370621
  37.8547716  23.4692883  41.5901136  18.8278613   3.0182142  10.0454421
  18.7608895   3.8620967  10.4922194  18.0436454   2.9739303   9.4983859
  85.8441353  48.5140085  54.8425102  84.9464512  48.5516310  55.1726246
  86.3790894  48.8419914  55.5653381  55.1211166  53.8025379  44.7001982
  54.4072247  54.3292713  44.3408442  55.3816128  54.2641258  45.4972601
  62.7906227  24.7552013  62.3130846  62.3321819  24.6875811  61.4755344
  62.4330568  24.0407038  62.8402138  68.0418865  77.7859237  32.4796671
  67.3958246  78.1651689  31.8838400  68.8824455  78.1180598  32.1644206
   2.3949331  48.1261660   6.2129588   2.2290414  47.5584819   6.9655842
   3.2116025  47.7954592   5.8389086  72.0426879   2.8584451   9.5384211
  72.2622237   2.0599956   9.0583033  71.1080680   2.7749271   9.7274680
  31.3288293  25.1325626  22.6274962  30.7660756  25.4352588  21.9148058
  31.9125066  25.8708973  22.8018851  63.0116796  61.1809206  41.3250113
  62.1602106  60.9646177  40.9449482  62.8424883  61.9495583  41.8698120
   5.6669944  43.9641862  25.8640189   5.9877199  44.2111255  24.9966139
   6.2565607  44.4089855  26.4729495  58.2481194  38.6361241  55.6161737
  58.0521917  37.7215147  55.8194780  57.4582148  38.9597392  55.1830959
  48.3627224  34.5589256  69.8856020  47.7078819  35.1271272  70.2912664
  47.8865671  34.1014075  69.1926479  75.8543007  74.7258879  29.0473075
  75.8137170  74.9147202  28.1097979  75.0018112  75.0014951  29.3842597
   0.1869211   8.5502882  15.9377474   1.0855827   8.7989397  16.1541075
  -0.3504839   9.2538137  16.3017172  21.5934134  16.2607276  51.2858438
  20.6866884  16.2742448  50.9794140  21.5233493  16.2307417  52.2400045
  16.0369976  62.7368517  46.3847780  15.2627858  63.2877762  46.2694120
  15.7104405  61.8420405  46.2904167  11.2102073  65.4362156  23.2511420
  12.1450132  65.6408979  23.2728667  11.1666864  64.4962694  23.4267420
   9.2073681  61.7556381  17.9082716   9.0237762  61.2214327  18.6810279
  10.0563576  62.1580029  18.0914450   5.4685253  54.3275179   2.1610636
   5.0107187  53.5968127   1.7454762   5.0565284  55.1089873   1.7925591
  70.8959723  54.1541481  53.2318592  70.1611328  54.0742731  53.8400173
  70.7253599  53.4922361  52.5617886  41.7386675   7.7043962  67.7345085
  41.5374565   7.0660895  68.4188414  42.4081326   8.2681209  68.1221437
   9.2731327  18.6290400  50.7140684   9.2015737  17.8388827  51.2495661
  10.2151817  18.7721770  50.6230450  61.3558197  34.0768790  63.0583143
  62.2052383  34.2123055  62.6383400  61.0472965  33.2402134  62.7104139
  55.8825302  72.0872402  58.5461664  56.2930536  71.8527555  59.3784618
  56.0717535  73.0195332  58.4400368  33.1702361  32.0254964  18.3401007
  33.2343516  31.1019010  18.5831828  32.7043376  32.4334783  19.0699763
  43.9872360  36.7795444  62.7329826  44.8706675  36.9510269  62.4068308
  43.7254286  37.5970149  63.1565714  18.6300168  11.3661403   1.1872143
  18.4082589  10.8603925   1.9690556  18.1134448  10.9652633   0.4881520
  76.7563391  42.2223997  54.5762777  77.2873592  41.8166304  55.2615499
  76.8269730  43.1622314  54.7434855  71.9113302  48.5569668  45.3084898
  71.8886805  47.8670120  44.6454000  71.0165644  48.8962030  45.3318167
  76.3645015  10.8146495  17.5784773  76.3132892  11.0211773  18.5117240
  76.9077334  11.5105886  17.2086138  52.5649500  27.3376942  42.6742840
  52.2513151  28.1272125  43.1153345  51.8405533  27.0773959  42.1053123
  84.1719341  72.6173735  43.1706095  84.6578121  71.7950249  43.1081724
  84.7604656  73.2082129  43.6404848  78.2290220  62.6182985  60.0780964
  77.9933929  62.8917122  59.1915560  79.1557264  62.8435993  60.1598740
  57.8544950  56.6771317  48.3623981  57.3200178  57.4326372  48.6068869
  58.5828495  57.0497417  47.8655195   2.4677040  43.3675623  39.9040294
   2.3982097  42.8427982  39.1065192   3.3666851  43.6962032  39.8969173
  27.9105649  12.3100824   8.8622183  27.4955402  11.5866155   9.3318839
  28.3003888  11.9015808   8.0893035  47.8544364   8.3553714  17.5699992
  47.4920116   8.4152479  18.4539122  47.2478280   8.8595695  17.0277495
  41.3254118  32.3482132  52.5476503  40.9144020  31.4837480  52.5463390
  41.0033178  32.7677655  51.7498636  14.3116047  15.6258655  53.7977123
  13.9775421  16.2641001  54.4280195  15.2420093  15.5460048  54.0079594
  22.7841888  18.0670757  13.5004229  22.0591531  17.4798984  13.7143702
  22.7581725  18.1420822  12.5465293  77.4672985  43.3267736  31.8660092
  77.0242119  42.8399992  31.1710572  77.7745485  42.6526833  32.4721670
  65.3366184  33.7057638  69.5005322  65.6301928  32.8595662  69.8381615
  64.7377539  33.4843874  68.7873840  16.2293515   8.3380527  24.0671057
  16.9799504   7.8167028  23.7824626  15.9517846   8.8076276  23.2805342
  62.3205233  57.7458334  63.3669090  62.5963783  57.3935652  64.2130995
  61.5618086  58.2925987  63.5709286  44.3420029  44.1765976  65.3751040
  43.9321804  43.5114288  64.8220873  44.6033955  43.7034464  66.1650610
  29.1873489   9.4886846  38.7507529  28.9594731  10.4139728  38.6604781
  28.9193282   9.2617817  39.6412081  71.8756398  77.4725560  54.7658682
  72.1033772  78.3573166  54.4802713  72.1639260  76.9077722  54.0488338
  21.2145410   1.4771289  44.3697543  20.9715066   2.2497530  44.8798747
  20.4184661   0.9461946  44.3452162  77.9970495  76.5468075  29.4892401
  77.1891538  76.0393788  29.5670313  78.6761228  75.8923508  29.3255992
  35.1326229  17.0283937  61.4570856  34.5675136  17.7871227  61.3114405
  34.6488525  16.4853764  62.0794392  59.8160879  50.4076357  21.4116664
  60.1321260  49.5041545  21.4030261  60.4441325  50.8862473  20.8706278
  75.6522886  61.7171408   1.4970345  75.9965936  62.0717027   0.6772942
  74.7065918  61.6670634   1.3578410  83.0850593  38.9844702  29.9612326
  82.4094097  39.1664589  29.3080802  83.7706272  39.6280824  29.7823901
  23.5940402  81.5901496  12.3512454  22.6872867  81.3583161  12.1505541
  24.1053909  80.8385398  12.0515151  76.6262102  32.4532247  63.5115623
  77.5238371  32.7728677  63.4202862  76.7213535  31.5719867  63.8729429
  66.5862123  73.7838175   3.8858695  66.3913385  74.1644265   3.0294890
  65.9515659  74.1879393   4.4776005  20.3846448  73.2958056  19.3579382
  20.4377073  73.6500861  20.2455706  19.8415893  73.9237549  18.8814826
  63.9323077  13.2651205   5.7557721  63.0452094  13.1734438   6.1034674
  64.4663940  13.4886617   6.5180106  73.3301196   6.8318576  22.0508380
  73.4238849   6.5224332  21.1498923  74.1011367   7.3798675  22.1973319
  81.1929170  76.0806705  22.6322360  80.8787481  75.3895261  23.2151980
  80.4086105  76.3822295  22.1738047  37.6049232  66.0618591  40.0337601
  38.5454583  66.2388420  40.0511980  37.2020674  66.9202614  39.9030447
  41.5864754  50.4297686  44.1896391  41.6252756  49.7453117  44.8576546
  41.0355997  51.1105728  44.5760059  53.0119038  16.9933224  54.9407101
  53.8812828  16.6349769  54.7618246  53.1183624  17.9396534  54.8439837
  14.2557009  78.1393967  60.6151628  13.5859450  78.6894382  60.2088213
  14.4957837  77.5115166  59.9337244  84.7791100  52.1293020  36.2014818
  85.0805187  52.9872608  35.9026575  84.5484543  51.6632223  35.3978658
  58.4844909   8.2518358  17.4091334  58.3514724   7.3238248  17.6023573
  59.1844783   8.5222692  18.0033679  77.6111460  36.5612817  64.5999336
  77.1307373  37.2340512  65.0824499  78.4069490  36.4208221  65.1129723
  49.5076261  21.0492248   2.4831004  49.7431836  21.7459459   1.8704600
  48.8051782  21.4245576   3.0140729  23.6107383  31.4686603  45.5482192
  23.5607419  32.1402855  46.2283988  23.8044152  31.9539518  44.7462077
  75.3114257   8.0887098  12.6607604  75.7456336   8.3434648  13.4748835
  75.2958236   7.1319933  12.6868529  83.9458752  53.5220289  69.8432636
  83.0136204  53.3670568  69.9952650  84.2403793  53.9938831  70.6222725
  64.1326284  34.1516829  52.5297737  63.4477997  34.4587970  51.9357014
  63.6666298  33.9201546  53.3331871  35.2609897  42.8283072  28.2115293
  35.3242636  43.2732487  27.3663950  34.3483329  42.9445696  28.4756804
  64.6928501  43.2106209  35.6914568  65.1115751  43.9561367  36.1216950
  65.4206085  42.6524973  35.4174113  84.6302128  12.5757992  46.0518694
  85.0971222  12.7511847  45.2348852  84.4432831  11.6374350  46.0242176
  58.6520386  22.8881884  70.2110004  57.9182959  22.2849417  70.3290939
  58.9927340  23.0268359  71.0947037  82.1225969  76.0438325  30.2904124
  82.5376312  75.4702236  30.9345812  82.4705927  76.9140078  30.4851622
  58.0401707  54.1615200  36.8491554  58.6706829  53.4831429  37.0909977
  57.1854401  53.7660217  37.0201778  77.0974827  41.5401793  63.0384731
  76.4281464  41.3101196  63.6829090  77.7841520  40.8848476  63.1619692
  68.2953548  67.0231295  40.5191946  69.1777802  66.9799900  40.1508331
  68.1856632  66.1893892  40.9764433   3.2288402  73.7607958  34.1705889
   2.9992574  74.3992497  34.8457903   2.4109834  73.6081960  33.6972422
   7.1008922  26.1183381  61.8658543   7.5267555  25.4921484  62.4513102
   7.6993706  26.1969256  61.1229706  74.2726699  40.4616254  23.9109034
  74.0474645  40.4760850  22.9806895  73.4441749  40.2813909  24.3551440
  73.2595388  76.9925048   5.1682181  73.6697189  77.6981189   4.6681256
  73.8455383  76.2446143   5.0520510  59.9752776  52.3567237   8.4308524
  60.7870905  52.0809640   8.0052371  59.4304506  52.6868512   7.7164216
  10.1911499  29.3741083  53.1089163  10.4344227  28.9024734  53.9055443
  10.3006508  28.7319970  52.4075365  60.2406931  65.1084566  38.5960484
  59.6788979  64.3877459  38.3111072  60.3123999  65.6745148  37.8275013
  21.9776591  78.9190392  61.1765432  21.9321593  79.7559837  60.7142830
  21.0666617  78.7091092  61.3820791  68.7044859  67.1292591  54.8566484
  68.7222338  68.0821562  54.7677612  68.1154251  66.8348360  54.1619873
  84.4276468  77.3169305   1.2413306  84.4152109  76.4731433   1.6931052
  85.3216974  77.3975469   0.9090466  47.0274925  53.0911207  60.0383568
  46.0981894  53.3162832  60.0822687  47.3713446  53.6309052  59.3265724
  23.2126339  80.9995303  67.0228863  23.2460936  81.1643400  67.9651976
  23.5579975  80.1124714  66.9224739  80.5758858  39.8564863  59.1463232
  79.9524307  40.2591372  59.7508192  80.5086231  38.9180923  59.3227530
   3.6370231  40.3287315  62.2317123   2.7742721  40.2648687  62.6413727
   3.4545566  40.3591633  61.2925529  17.5757632  34.2336053  10.8919425
  17.2784696  33.3680458  10.6114955  17.5271735  34.2055530  11.8475051
  85.9869901  62.8432633   2.9586405  86.9103471  62.6878955   2.7598757
  85.9947864  63.5734226   3.5775466  40.3946352  27.6847076  59.9001932
  40.5975151  27.6089811  60.8325768  39.6887255  27.0543623  59.7567129
   2.4942734  11.9490266  49.3902588   3.4309723  11.8184900  49.2426777
   2.4478294  12.4546063  50.2017164  69.5336819  67.7654457  48.6229420
  69.7912216  68.5591888  48.1540298  68.6997128  67.5130892  48.2266521
  67.5368738  32.6245999  55.8401155  67.3877621  33.3117843  55.1906729
  67.2267675  33.0017638  56.6634083  66.8795061  61.9770575  66.7621183
  67.7267075  61.7856312  66.3598299  66.4928865  62.6474524  66.1988020
  22.9982696  13.4613914  14.7023768  22.6593051  13.9397354  13.9457221
  22.7738795  12.5473423  14.5280451  56.7409549   8.5925359  29.7831149
  55.8921084   8.7607116  29.3739600  56.6026435   7.8025837  30.3056902
  64.9339294  22.3709369  64.7121096  65.2592516  21.7922592  65.4017019
  65.4386902  23.1772852  64.8181820  37.6691089  28.8360471  13.8152308
  37.1474204  28.1225986  14.1827292  37.0431743  29.5486469  13.6862464
   4.7989028  65.9546019  14.3990798   4.5591014  66.6817977  14.9734587
   5.2277416  65.3238990  14.9774832  43.6630869  56.9792843  69.8516941
  43.1818342  57.0260668  69.0255928  44.5653009  56.7913818  69.5929813
  47.9995918  66.0310602  55.2138376  48.0150938  66.9869661  55.1665592
  48.8767576  65.7918024  55.5131149   2.9078859  75.9202577   5.2791161
   2.5462955  75.6061961   4.4503541   2.5254434  76.7903282   5.3928895
  21.0436815  81.9113662  18.7486929  21.3368028  81.2382581  18.1344981
  21.3377326  81.5991666  19.6044344  41.8075929  14.4286222  16.1979384
  41.2117276  13.7588615  16.5334982  41.2407003  15.1716489  15.9911151
   2.7942461  63.9415194  35.6761355   2.2976249  63.2317807  36.0834117
   2.1713203  64.3590833  35.0813002  37.7279878  29.5292950  61.0478973
  36.8894720  29.3352318  61.4667749  37.8463960  28.8245273  60.4110956
  56.3738155  80.8969116  68.8848400  57.1632338  80.7130527  69.3940020
  56.4835930  81.8012238  68.5909176   0.7313492  62.9865980  65.2241135
   1.0800316  63.5097742  64.5023489   0.6830932  62.0971489  64.8737144
  43.8181973  55.3492212  65.4152346  43.9443684  56.2725353  65.1965904
  43.4282970  55.3611898  66.2893438  36.0688156  78.7024571  14.6912379
  35.4081291  78.1437566  15.1005930  35.5763763  79.4549872  14.3634696
  56.4441005  51.7829789   8.7338204  56.5404598  52.7192666   8.5597128
  55.5033008  51.6216578   8.6623902  83.8833992  62.7406050  19.3510623
  84.3376438  63.5806062  19.4165988  84.1864149  62.3684265  18.5228724
  80.3693008  18.9439452  27.7774334  80.7490158  19.7430086  28.1428695
  81.1102200  18.4869969  27.3793578  58.4406424  75.7734489  66.7623854
  58.5201788  76.0766268  65.8579540  58.3844900  76.5765715  67.2801447
  83.2823277  39.6289754  58.5579681  83.5049152  40.5591249  58.5191154
  82.3420334  39.6149683  58.7365341  74.1615963  26.3028479  60.0505495
  73.8886213  25.4646826  59.6774626  74.0891647  26.9229388  59.3249655
  38.0337319   1.5015049   4.5558924  38.4301410   1.5030355   5.4271502
  38.5849414   0.9104557   4.0429968  67.5919819  60.2391052  32.7026081
  67.1919775  60.7080030  33.4349799  68.3149242  59.7511053  33.0968642
  12.9240411  45.9619893  20.4404540  13.5273164  45.7101901  21.1396594
  12.1482128  46.2853928  20.8984179  21.0132918   3.7783260   8.8829512
  21.5496049   2.9854889   8.8856787  20.2160487   3.5298080   9.3507857
  58.6233363  11.2650842   0.2209420  58.9269385  10.5885047  -0.3842884
  57.6687560  11.1997289   0.1939530  23.5359710  60.5939581   4.4072432
  22.7714771  60.5406858   3.8337130  23.5680526  61.5112020   4.6790261
  52.9373312  34.8767805  54.8033571  52.0403194  35.0881195  54.5446348
  52.9063463  33.9497137  55.0396204  75.0802326  38.6931825  55.7540274
  75.3538513  39.3586946  56.3852644  74.1758251  38.9228868  55.5406857
  50.9357867   8.8097210   5.7383771  51.6989074   8.6536235   6.2947268
  51.0191808   8.1690092   5.0321431  50.3269100  29.1760898  57.7113056
  50.3031540  28.3775187  58.2385206  49.5883894  29.0874076  57.1088505
  54.3276439   7.5655384  18.1593222  54.8252044   6.8091507  17.8486056
  53.5952983   7.1870536  18.6458010  29.0334401   8.7917728  21.2632556
  29.8346362   9.2283887  20.9739775  28.4079251   8.9453954  20.5551905
  38.6862884  42.2775859   4.4113202  38.8014636  42.1184272   3.4744973
  39.0522323  41.5001411   4.8331112  34.4760418  70.4238653  45.2363825
  34.2804217  69.5062733  45.0466776  34.7644305  70.7854939  44.3983555
  20.7672868  41.0336513   7.7746815  20.7370172  41.9903106   7.7635378
  21.6903672  40.8216018   7.6361794  32.5189441  63.7070777  12.4511046
  32.3867935  63.5063173  11.5245719  33.2352680  64.3419434  12.4588103
  44.9386883  26.1423516  50.0235033  45.5068827  25.4063177  50.2507448
  44.1272783  25.7341862  49.7214222  44.1965866  51.6765261  70.2553797
  44.8534632  51.2450743  69.7089481  43.7151098  50.9572411  70.6640863
  71.6437189  59.9007024  31.0668559  71.5225689  60.8324315  30.8839984
  72.5775806  59.7477962  30.9227938  25.9336219   9.2108697   6.9378657
  25.8827529   8.2593793   7.0290370  26.1051784   9.3534584   6.0070223
  49.0588474  12.1172285  55.6276083  48.1682062  11.7668104  55.6133461
  49.0284204  12.8225017  56.2740564  58.7228743  69.6945073  47.4444670
  58.1568352  69.5357825  46.6890616  58.5166828  68.9839412  48.0517668
  38.2806668  33.1466074  21.4825530  39.1328464  33.3222980  21.8815035
  37.8274617  32.5940103  22.1193213  23.4340558   2.2064609   4.8179240
  23.4373317   2.3332614   3.8691659  22.6218209   1.7313213   4.9932618
  20.8579717  37.0061941  34.2224688  21.7616687  36.9900627  34.5376105
  20.9236798  36.7790908  33.2949252  83.2885170  51.0713148  64.2017555
  84.1407967  51.1740732  64.6251965  83.4787083  50.5962944  63.3927965
   7.1305038  41.9215059  63.0273914   6.7451145  41.4136457  62.3133993
   6.4464237  41.9517279  63.6962366  54.1517727  71.9912626  21.9370551
  54.0007488  71.5984799  22.7967925  54.1265623  71.2527849  21.3285822
  35.3557191   3.4289951  10.3930087  35.0530610   4.2803211  10.7090468
  36.2076888   3.6099691   9.9959845  66.4463949  29.4173551  42.9636669
  66.3901520  29.4626975  42.0091963  67.1625853  28.8051653  43.1325769
  73.4561348  52.0609140  56.6767740  72.6376104  52.1684122  56.1923170
  73.3593655  51.2219477  57.1273327  35.3273950  42.4784011   1.1303372
  35.5460200  41.7002220   1.6430516  36.1596713  42.9402942   1.0293383
  59.3493114  16.5457077  16.2373728  58.4500632  16.7665357  15.9948344
  59.3117461  15.6203670  16.4793677  44.6536431   0.2000398  23.5415072
  44.2468724   0.4167909  24.3804354  44.0230022   0.4973049  22.8856463
  72.0826244  23.7296009  50.6339502  72.7489471  23.1631899  50.2448130
  71.3133383  23.6123085  50.0765657  57.4514198  80.0304508  59.6667004
  58.0084801  79.2601252  59.7785425  57.8990078  80.7224369  60.1535845
  78.6346292  25.0104451  27.5233960  78.4257555  24.0763807  27.5347853
  79.5639849  25.0453067  27.2968626  47.4528918  23.9931602   9.0289397
  47.5663314  23.4914274   8.2217068  47.6345430  24.8982639   8.7759156
  45.9066486  46.4391756  49.9661064  45.0614452  46.7689466  50.2712584
  45.6831598  45.7629585  49.3265629  22.0001302  12.3280258   5.1724000
  22.4038491  12.7434558   5.9344143  22.3451696  11.4351863   5.1754851
   6.5699380  62.3711182  17.1713442   7.4363273  62.6948048  17.4179740
   6.5909761  61.4395739  17.3904604  10.7008896   0.9109134  26.2022109
  11.1872325   1.7350406  26.1794848  10.2373395   0.8832044  25.3651995
  52.2832394  28.1439996  38.5559916  51.3608122  28.1656599  38.3012629
  52.7344751  28.6260247  37.8629780  71.5962124  51.9212961  46.3685989
  72.3115873  51.7567444  46.9829226  71.3743401  52.8430128  46.5006590
  40.7544804  54.6551514  49.0457535  41.4221478  54.6469259  48.3599043
  39.9254322  54.5759583  48.5739088  31.6201196   9.9316663  12.8062911
  31.0895667  10.3784437  12.1466441  31.2200675   9.0660495  12.8893179
  35.2264714  80.8097076  53.5720825  35.3692007  80.5144691  52.6728106
  35.8432388  81.5325356  53.6876011  55.0480604  22.0713162  65.6667233
  54.5414257  22.8724551  65.7998943  54.4807529  21.3723183  65.9919882
  83.4600067  50.1082134  69.2332172  84.0280724  50.4536915  69.9218225
  82.5814342  50.1336765  69.6122932  60.1244402  49.4548893  54.5167923
  59.6588850  48.6615181  54.2521286  60.6622124  49.1805029  55.2595854
  66.9426219  78.9308931  18.7022681  66.3272230  78.9896085  19.4330687
  66.8538109  78.0318262  18.3860011  51.6783571  52.9624081  40.9589005
  51.4372587  52.0962572  41.2873650  50.9324551  53.5192966  41.1819172
  78.5951471  48.3508587  37.0412397  78.7466049  49.1459227  37.5522828
  78.5703516  48.6511993  36.1327171  79.4853822  81.1501338   3.1645054
  80.3165762  80.7441713   3.4105534  79.5406715  81.2522151   2.2143740
  45.7791561  63.5451152  26.7136950  46.3018459  64.3459989  26.7537779
  46.1166709  63.0767919  25.9501547  57.1883869  32.7745652  67.5010538
  57.6874352  33.5855865  67.4039602  57.6223707  32.3105502  68.2170010
  14.0659938   0.6009168  25.2511401  13.5496316   0.0010652  25.7894511
  13.6034379   1.4366645  25.3128523  51.9958067  17.2375882  58.2581043
  52.3418522  16.7354214  58.9958811  51.7051935  16.5742671  57.6321793
  65.0813804  31.6795559   3.4581227  65.0840411  31.5147323   2.5152201
  65.0015197  30.8111877   3.8528342  74.9214363  69.0286922  40.9142637
  75.0779915  68.0856419  40.9630299  74.9982262  69.3313313  41.8191099
  17.5655263  75.3540470   1.8913216  17.4829238  76.1180546   1.3206238
  16.8400615  74.7844197   1.6354746  11.5954631  77.9572369   6.1953444
  11.6034311  77.3271109   5.4748530  12.0705217  77.5194575   6.9016690
  65.1186466  67.1539927  68.1504488  65.9144878  66.9032860  68.6195040
  64.4056988  66.8003750  68.6823273  75.4250479  38.3597779  60.7661819
  74.9834299  38.0516434  59.9748135  75.8283758  37.5746560  61.1365128
  47.9136626  32.1429147   3.4871668  46.9840662  31.9285073   3.4089894
  48.3670262  31.3383331   3.2354922  81.1583368  65.7249882   2.6762576
  81.4899389  66.5887310   2.4308581  81.2450592  65.2001716   1.8804688
  66.0811758  65.0937796  17.9097688  66.3728571  65.3312683  17.0295691
  65.9049225  65.9315729  18.3378744  27.7610153  61.5493728   9.6673102
  28.5984844  61.3608314  10.0907797  27.1249336  61.0196926  10.1480193
  41.9552708  37.3894501  69.9781370  42.5481558  38.0206466  69.5703220
  41.3190079  37.1817541  69.2938375  83.0138874  43.8545942  46.8299341
  83.7106037  44.4206667  46.4976978  83.4700584  43.0771160  47.1519089
  72.7493230  69.9411465  22.8667826  72.2651903  70.7409574  23.0720801
  73.3629362  70.2021934  22.1800799  76.1683599  81.0400655   6.5726323
  75.6629936  81.6575028   6.0438532  75.5144540  80.4385807   6.9288058
  34.1703456  44.6957626  23.1333823  34.2117160  43.7489550  22.9989333
  33.3997959  44.9744909  22.6386065  56.4766264  17.0483077  42.7305651
  55.7830906  17.7045751  42.6630974  56.0819101  16.2465715  42.3875666
  76.3695049  46.1862373  58.0500984  76.5882921  45.2822685  57.8238106
  76.1073351  46.1461687  58.9698267  44.2328057   5.6162424   9.6551413
  43.8551650   5.2605552  10.4595656  43.6875329   5.2569217   8.9552826
  16.3218015  63.8120057   9.0211100  16.6447061  64.6755530   8.7637181
  15.8172458  63.5100557   8.2658095  63.8940477  35.7816696  66.3869143
  64.5463276  35.4519701  65.7687998  63.9723730  35.2059174  67.1475744
  33.4280572   5.7421178   1.5129895  32.5104890   5.6619520   1.7735142
  33.8497529   4.9646444   1.8789715  40.0027785  41.0196228   1.9080205
  40.3745160  41.6238041   1.2653632  40.6486259  40.9937591   2.6140256
  40.2606964  20.0850868  48.3042383  39.9065113  20.0227714  47.4171638
  40.0300884  19.2510140  48.7133503  32.6812213  64.3657328  26.5655036
  33.2761901  65.0933625  26.7466349  32.0315498  64.7313358  25.9650988
  43.2626820   9.1951346  64.5448017  43.5772371   8.9521742  63.6740208
  43.2047462   8.3654678  65.0186443   1.0913557  55.0190999   9.2753548
   2.0080512  55.1731362   9.5037741   0.7383197  55.8914115   9.1002268
  72.5509930  44.4620085  69.4175243  71.6095257  44.3806171  69.5699835
  72.6362276  45.2269793  68.8485003   9.8438122  51.2409782  70.8118296
  10.1070835  50.9720564  69.9317169  10.6113102  51.0643673  71.3558722
  74.1293327  45.6058951  14.7371192  73.2793275  45.7913254  15.1362891
  74.2893688  46.3507016  14.1575617  22.0534453  17.7787323   8.8100476
  21.9446788  17.9469080   7.8740353  21.4967713  17.0195598   8.9832635
  82.1296732  69.3586399  29.5025916  82.0635788  70.2157904  29.0816969
  81.8746225  68.7368275  28.8210291  71.1183786  48.6297989  56.1769867
  71.5382338  47.8974152  55.7258034  71.6585159  48.7737989  56.9540024
  54.0153918  17.8006954  25.1670451  53.9883933  17.3178167  24.3410105
  53.5529456  18.6180610  24.9818892   1.3981590   2.3527546  40.2712149
   0.5283175   2.7520485  40.2580542   2.0006857   3.0934019  40.3392787
  69.2140579  58.9503574  48.2697248  69.6474981  59.4133902  47.5528145
  69.6908092  59.2228365  49.0537500  83.7512493   5.1794559  69.2465067
  83.2240009   4.4221741  69.5009995  84.6563244   4.8940757  69.3715429
  30.5240035  21.7228532  67.0453310  30.3167295  22.6208806  67.3038197
  30.1802993  21.1832857  67.7573490  82.8932087  70.1472785   1.3047976
  83.2324974  71.0395767   1.3749499  81.9590418  70.2305033   1.4962143
  -0.0510079  77.5831558  10.9354968   0.8774322  77.7819969  11.0567088
  -0.0795991  77.0465543  10.1433558  86.1853695  64.5202589  42.3390770
  85.7238579  65.3581858  42.3056793  85.5400085  63.9050865  42.6873779
   5.2225735  46.7250061  53.5012531   5.1593067  47.6726961  53.6200476
   4.5752765  46.5246248  52.8251696  18.4119783   6.9572849  39.6727557
  17.5255570   6.7636413  39.3678183  18.9173732   6.1748333  39.4523425
  72.5583267  19.1462529  55.2640438  73.1212950  18.4260929  54.9800253
  72.9428530  19.4394028  56.0901356  38.6379004  14.2574239  58.6327267
  38.3675194  14.7207952  59.4254541  38.4418797  14.8663855  57.9207087
  47.3044109  36.7821240  55.1234484  47.0981646  37.6919127  55.3378725
  47.4596310  36.7879248  54.1789389  57.6523719   2.9271812  42.5533099
  56.9549880   2.6022691  43.1228060  58.3621535   3.1590433  43.1521983
  31.9485412  21.3937206  11.5738005  31.8527732  21.2649841  12.5174613
  31.3743339  22.1328849  11.3734240  39.5099006  18.4845895  30.7498259
  39.7479615  17.9333086  31.4952464  40.2447066  19.0907878  30.6559176
  70.4680816  59.2207100  23.9267249  71.0715477  59.2867722  23.1866641
  69.9972669  60.0541140  23.9269919  49.0247965  36.5020537  52.7642965
  49.2989206  35.8363271  53.3950853  49.2385578  36.1255646  51.9106007
  40.0984130  28.7794752  25.3789610  40.3811298  29.3647832  26.0816187
  40.6723819  28.9935131  24.6434493  54.2740951  15.9044571  35.8709044
  54.4353805  16.2168188  34.9805922  53.3672462  15.5984373  35.8567614
  37.4547086  35.4534168   9.0443654  37.7064977  35.3804941   8.1237597
  38.0881343  34.9072666   9.5099063  74.8510933  64.1393709  58.5602713
  75.3414392  63.5522366  57.9848909  74.0216303  64.2834759  58.1047964
  47.6872525  16.3162250  20.1465602  46.8520436  16.6759748  20.4452891
  48.3278022  16.6402931  20.7797331   3.9301063  32.0035291  30.3540635
   3.7845852  32.9490972  30.3231025   4.5635464  31.8357110  29.6563363
  76.4239017  20.7891124  47.2527933  76.9724599  21.0699122  47.9852295
  75.6995718  21.4147895  47.2423983  33.8195930  22.3175687  28.3246607
  32.9866395  22.7641410  28.1730456  34.2710385  22.8644962  28.9675517
  45.6977892  56.2960196  37.9067516  45.0312090  55.6220102  38.0394793
  45.9832907  56.1754656  37.0011115  59.9403381  63.5163260  53.0027533
  60.5142927  62.8851795  53.4368753  60.5383539  64.1267967  52.5715542
   0.7801773  59.2085981  65.0729418   0.2030708  59.6333075  65.7076120
   1.5404465  58.9349794  65.5861330  67.5454712  34.7002053  60.4142809
  68.4878588  34.8679209  60.4115486  67.1492243  35.5618215  60.5440521
  75.3552818  65.5382395  46.9452572  74.7136068  64.8702335  46.7038965
  74.8491430  66.3490438  46.9967079  28.3913789  33.6451120  32.3800845
  28.5981641  32.9892892  31.7142195  28.0865703  33.1359977  33.1311698
  83.8058090  62.0358801  55.8555889  84.3710232  62.4120903  56.5302944
  83.1786251  62.7303123  55.6539965  67.4310255  45.2988625  58.5336828
  67.9318190  46.0908842  58.3383894  66.7059851  45.6025219  59.0798855
   0.0920099  10.6550544  52.2153139  -0.5145031  10.4883521  51.4938021
   0.4692024  11.5123694  52.0179033  68.5135937  78.3620691  66.0780382
  67.7969742  77.8679514  66.4762068  69.2260218  77.7278852  65.9974623
  53.2679210   9.5592708   7.7086300  53.8596282   8.9109201   8.0904097
  53.7332091  10.3908557   7.7992100  42.7844000  79.0514326  35.0507116
  41.9951248  79.5252848  35.3128958  43.5038567  79.6410275  35.2765298
  73.9186049  55.3095484  28.6489749  74.3851042  56.1235762  28.4593344
  74.0623426  55.1633549  29.5839620  22.3580974   5.0144236  59.7969007
  21.7678541   4.7471278  59.0923500  21.8885892   4.7907489  60.6004953
  75.5061809  65.7165672  18.0724043  76.2379352  65.2528860  17.6652522
  75.2234022  65.1408555  18.7829108   1.1601784  52.0922756  55.2312517
   1.4629795  52.9217768  55.6006813   0.4004814  52.3299694  54.6996450
  65.0445271  56.9662523  49.9198723  65.6418657  57.7132463  49.8821211
  64.5312405  57.0290899  49.1143799  46.6158090   8.2945795  27.8215117
  46.5619788   8.7804098  26.9985289  45.8280740   8.5492868  28.3019633
  18.9254794  38.3846206   9.0658993  18.4491859  39.1121263   9.4660468
  18.4643350  38.2199592   8.2434268  19.4955589  44.8216009  59.0922880
  19.5017673  45.4041624  59.8517704  19.5734264  45.4081535  58.3398724
  48.8444934  10.3221626  37.0810980  48.7015853  10.8263273  37.8821177
  47.9942355  10.3249187  36.6414637  28.3522544  15.9759779  22.7164549
  28.6702285  16.8784875  22.6918788  29.0610538  15.4834957  23.1303305
  43.6734056  69.9355936  54.7246122  42.8024054  70.3298330  54.6779966
  43.5097885  69.0186977  54.9454212  47.0303569   3.8544817  13.2091517
  46.6091571   2.9949588  13.2024951  46.8635354   4.2097253  12.3361106
  25.4206508   1.2511771  53.2577372  25.1963657   0.7095568  54.0144205
  24.5952934   1.3544982  52.7840757  73.3320181  77.7024795  21.0950465
  73.1967203  77.8845002  20.1651091  74.0456192  78.2863976  21.3520522
  45.9540019   5.0075502  39.9529738  45.3686605   4.2675657  40.1143069
  46.4296374   5.1205511  40.7759184  43.8027701  41.2053699  17.4870104
  43.3167729  41.3450832  16.6742892  44.0083013  40.2704925  17.4854750
  37.8652940   1.0203952  19.4231791  37.1217570   0.5597419  19.0343566
  37.5441585   1.9094867  19.5735735  10.1744789  80.2586891  10.9666342
  10.5641931  80.6086923  10.1654810   9.6405500  80.9766604  11.3067336
  10.5704929  22.4770260  65.5844069  11.3298561  21.9909644  65.2629375
   9.8576786  22.2226691  64.9983788  42.9660416  62.2055292  40.0598574
  42.7330542  61.9776964  39.1598344  43.0665207  63.1573629  40.0476265
  60.4338360  32.8518510  60.0413322  59.8089314  32.6447558  60.7362032
  60.8403206  32.0122433  59.8267221  70.7348251  50.6975794  50.2863359
  70.1199865  51.1011839  49.6737146  70.7286549  49.7688055  50.0548649
  72.9020405  35.2572227  62.2123957  72.0959139  35.7663679  62.2970200
  73.4867048  35.6222343  62.8766012  69.9976110  79.1159201  38.2414985
  70.4585075  78.8940907  39.0505719  69.2024469  78.5835838  38.2651567
  45.3882537  14.4438572  10.8065219  45.4751573  14.5195503  11.7567534
  44.8595986  13.6565847  10.6763072  67.0937872  31.6498399  63.0394745
  67.3400116  31.4676404  62.1326065  66.1409140  31.5597701  63.0516624
  44.4389424   3.7196703   1.4961333  43.8115726   4.4381208   1.5765376
  44.6202073   3.6638469   0.5579133  71.9225168  48.9426899  62.0501661
  71.5663290  48.0622816  61.9308281  72.6510525  48.9922380  61.4312887
  54.0018702  79.2199469  26.1509204  54.2728662  79.4480228  25.2616644
  53.1974697  79.7193050  26.2916708  37.4831328  11.8357963  38.8548083
  36.8397555  12.5444574  38.8446803  36.9579492  11.0355491  38.8590712
  77.8645563  75.7662678  47.2636747  78.7058592  75.7211304  47.7179861
  77.8837776  76.6072893  46.8070078  34.4140134   3.1611890   2.9281134
  35.3150115   3.1209058   3.2487435  33.9748368   3.7685270   3.5235114
  28.3983177  76.8330623  28.3000941  29.0983242  77.0160033  28.9267916
  28.8414710  76.4168503  27.5607676   5.2771467  13.2547896  30.0509977
   5.3125757  12.5624793  29.3909287   5.7998937  13.9659255  29.6805215
  35.4429382   5.2712672  41.5511847  35.9871906   5.2372496  40.7645082
  34.7469753   5.8916133  41.3342953   2.5487703  60.9190418  25.3175253
   3.5049909  60.8864834  25.2889914   2.3358148  61.8397238  25.1651282
  12.9111427  76.4819671  16.6428275  12.5190776  76.6733243  17.4948306
  13.8096755  76.8039634  16.7149062  24.8759627  43.2241535  27.8165126
  24.6182752  43.5852766  28.6647010  25.2685595  42.3767471  28.0262828
  32.9616714  72.3919725  49.5924377  33.5456753  71.6941833  49.8895311
  33.2229948  73.1572723  50.1045465  69.7307348  10.4342127  47.2421741
  70.6729126  10.3224170  47.1155214  69.6476793  10.7767153  48.1321335
  73.6773825  72.5020933  63.4784174  73.0932617  71.7772150  63.7010908
  73.1766415  73.0311108  62.8574228  81.8629972  10.1231902  36.3903761
  81.5992252   9.5159667  35.6990433  82.8158847  10.0415843  36.4301085
  40.5598388  10.9213323   7.9348416  41.2279115  11.3061161   7.3675198
  39.7673974  10.9099454   7.3980565  58.5866308  24.3237829  62.1730852
  58.0539989  23.8843417  62.8359747  58.6579847  23.6867213  61.4622498
  69.7996418   1.5082495  58.4761286  70.2054445   2.0748370  57.8199768
  68.9888422   1.2083762  58.0651426  62.7456903  42.2171307  59.0538216
  62.7963829  41.2670565  59.1588354  63.5345793  42.4462223  58.5624981
  58.2586575  46.1111927  46.5841293  59.1332483  46.0781860  46.9717312
  58.3806229  45.7914019  45.6902122  72.8850317  52.0243120  51.4450741
  72.1953297  51.3639736  51.5121317  73.3300543  51.9926882  52.2919416
  44.1405201  43.8957500  68.9663410  44.6392345  43.4246683  68.2988071
  43.6011410  44.5125628  68.4715271  54.1329799  22.8001422   6.2962813
  53.9158473  23.0280752   5.3923268  53.3243213  22.4307079   6.6509957
  37.5291204  59.8291826  52.8476954  36.8510699  60.4627609  53.0823421
  38.3249092  60.1667213  53.2588148  32.4137912   9.1093368   6.8064923
  32.8158412   9.6720476   7.4682707  31.8183313   8.5460252   7.3008055
   9.3462572  19.4578523   7.5991101   9.2260132  18.5126848   7.5072760
   8.9036164  19.6770639   8.4190173  25.4863057  14.8230667   9.2680640
  25.9386716  14.1921444   9.8280043  25.6294093  15.6678218   9.6948523
  57.6776648  56.8411446  37.3675776  57.8622961  55.9572029  37.0500994
  58.1344080  56.8943834  38.2070923  82.0788328   2.7531569  51.1629963
  82.0330850   2.0400183  51.7998409  82.9568950   3.1176703  51.2742472
  53.1519461  49.3553782  65.1156044  52.5187302  48.7626791  65.5205441
  53.8385868  48.7791872  64.7798061  33.7271247  25.0470657   8.0558343
  34.0176997  25.9580726   8.0989594  33.0959067  25.0307960   7.3364348
  84.3898336  71.7255523  13.8764948  84.6113292  72.6516678  13.7791247
  83.4383670  71.7165162  13.9806933  83.6546175  11.3021796  61.7162323
  83.6143390  10.9566920  60.8244658  82.9649679  11.9652217  61.7475939
   5.6561138  49.4455481  53.6151171   5.8694412  49.9351597  52.8207588
   6.4780475  49.4133472  54.1046190  31.6698012   4.0782709  17.5510497
  32.1821723   3.4218282  17.0790381  32.1182618   4.1733617  18.3913321
  31.2136787  54.0587451  16.3188929  31.4666503  53.4530165  15.6222338
  31.8369430  54.7815468  16.2458319  25.6817565  18.9493246   7.1979422
  25.9508500  18.7918968   6.2929339  25.1141200  19.7184772   7.1486945
  42.2434793   3.4714050  18.7458987  43.0748592   3.0049152  18.8320632
  41.6014705   2.8953189  19.1608424  82.6521246   2.8328173  70.0577831
  82.8647987   2.1645205  70.7092333  81.9746725   2.4304621  69.5142746
   6.0463287  58.5365534  47.6767683   5.2034809  58.0853605  47.6291990
   5.9699966  59.2536211  47.0473099  23.4049068  24.8353166  19.2096514
  22.6508460  24.7267074  18.6301512  23.6306272  25.7627410  19.1377348
  63.3192682  46.1455345  52.2035503  62.4369717  46.4476109  51.9878340
  63.2171774  45.6819773  53.0347681  23.1667314  27.0369167  12.1883006
  22.3436914  27.5084228  12.3168368  22.9594741  26.1288042  12.4087805
  36.1665473  30.6589193  16.1100382  35.5580649  31.3469524  16.3794703
  36.2295661  30.7536192  15.1596255  51.4047098  57.8070211  49.2945910
  50.9069920  58.5927105  49.5208645  51.8880224  57.5916672  50.0922489
  79.1016531  30.7692838  53.6149931  78.9389896  30.6480742  52.6795387
  78.3132648  31.2033844  53.9409208  62.8191900  77.4088287  62.5104809
  63.1027985  76.7222071  61.9068718  63.0022907  77.0537043  63.3803034
  47.8427730  36.1046142  18.7623114  48.7247882  36.3002224  19.0785594
  47.8946958  35.2007217  18.4516425  25.1668781   9.8630564  66.4974737
  24.7486251   9.7255938  67.3474121  26.0274929   9.4532817  66.5849590
  10.0834705  20.2594304  67.3891068  10.1641037  19.4721305  66.8506956
  10.2925159  20.9791970  66.7937374   6.4176800  47.5233173  69.1800070
   6.9407989  48.2094955  69.5944309   6.7464496  47.4809074  68.2820415
  57.5968790  57.3066282  61.4188385  58.0332947  57.6894140  62.1799231
  57.2695398  56.4626074  61.7298126  59.8944793  16.3985033   2.2169156
  60.1559196  15.5950470   2.6667351  59.9562392  17.0791454   2.8870959
  20.5794288  68.5806036  66.2007666  21.3285114  69.1453695  66.3908768
  19.9227383  69.1703510  65.8303785  80.9132800  37.1160574   7.2904248
  81.2961516  37.9931659   7.3082537  80.2440581  37.1606798   6.6075034
  82.0094585  56.3472462  63.5445547  82.0531654  56.9164944  62.7762604
  82.9037285  56.0240507  63.6543608  53.1901393  13.6690063   5.1177496
  53.8282523  13.6998291   5.8305497  52.6976714  14.4855041   5.2016730
  20.9346622  76.6980364   3.4716267  20.6206697  75.8406140   3.1844515
  21.7975801  76.5235760   3.8473410  51.9181762  13.6825485  16.6351122
  52.5226340  13.2189006  17.2146887  51.0985646  13.1927270  16.7024989
  29.9118171   2.8329725  12.0918555  30.2471337   2.9924745  12.9740996
  30.6825862   2.5768299  11.5853591  70.3169284  26.9398660   6.2259430
  71.0375152  26.6659851   6.7933697  70.5525718  26.6046829   5.3608698
  82.5968838  39.7945714  67.8212833  83.1155205  39.0314198  67.5666475
  81.7729759  39.4279647  68.1422281   9.9414915  74.9822809  23.1922431
   9.6641868  74.0709760  23.0981249  10.4891485  74.9861314  23.9772791
  58.2001972  45.7117367  64.2428207  57.9155588  46.6102743  64.0759468
  57.4612045  45.3068209  64.6968746  62.9594264  38.9482326  18.3956618
  63.3308539  39.8225612  18.2781024  63.7091670  38.3576746  18.3224196
  15.6681245  17.6638263  67.3872662  15.1941532  17.8227847  66.5709877
  15.2008432  18.1841986  68.0407858  79.4265938  64.8430920  51.2406015
  80.3129673  65.1378822  51.4495897  78.9039087  65.0979757  52.0009089
  63.3532176   1.2695093  18.6405081  62.6974807   1.9662351  18.6119742
  62.9174552   0.5489654  19.0956587  74.4996262  76.4321995  57.5624371
  73.9051867  75.7118702  57.3526573  75.0107622  76.1121845  58.3057833
  10.6735716  22.4211139   0.5831236  11.0991798  21.7402906   1.1042447
  10.5710731  23.1563301   1.1874241  68.8901607  16.5630191  66.1800718
  68.4596888  17.1997969  65.6095934  68.1760399  16.0216944  66.5165663
  13.3021499  46.8181753  39.4436717  14.0257027  46.3494968  39.0276933
  13.6911442  47.6383495  39.7473526  52.2403369  26.8294496   3.7543292
  51.6029868  26.1569566   3.9946885  52.4199615  27.2925682   4.5725531
  70.3099386  79.7444059  33.8380713  71.2446205  79.9285461  33.7448687
  70.2757875  78.8787605  34.2451663  44.1643000  67.1457434   6.6581446
  44.3238974  66.2529802   6.9643015  43.6031771  67.0388317   5.8900648
  78.6086178  49.4657946  56.9640636  78.7206078  48.7451887  56.3440514
  78.4557629  49.0361023  57.8056288  17.2708600  65.9093906  11.9487185
  17.7100795  66.5646030  11.4064879  16.8913835  66.4109923  12.6702590
  15.1241670  17.2524614   3.9690823  14.1986499  17.3317403   3.7380690
  15.1515660  16.5393419   4.6070046  59.6104560   8.3746452  20.2436347
  59.7308288   7.6263780  20.8283038  58.9097819   8.8852710  20.6492896
  40.8905921  17.2070474  14.9356265  40.7801852  18.1568880  14.9785513
  41.3751874  17.0586986  14.1236014  55.1919889  67.3320961  63.2398367
  55.6662464  68.0505133  62.8212881  55.2630711  66.6054344  62.6208544
  31.4662824  52.1566886  10.3836913  30.9860358  51.3305683  10.4395384
  31.6483388  52.3899192  11.2940116  71.1776114  42.6546478  47.2926474
  71.0128689  42.0693874  48.0319452  71.0228634  43.5320282  47.6426315
  38.6662429  79.1288068   4.1570372  38.2044738  78.8960363   4.9625296
  39.5712894  78.8591816   4.3133349   0.4319751   5.3267402  20.5298514
  -0.1049722   5.4754991  21.3081736   1.2139975   5.8598537  20.6728930
  44.2239556  30.9866924  13.0855460  43.5991321  31.6837759  12.8857894
  44.0241704  30.7373018  13.9878363  47.1246386  71.1441517  43.6228895
  47.6146603  71.9643450  43.6811876  46.3107300  71.3172770  44.0959787
  76.5691368  71.5766241   0.7001252  76.1968128  70.6963112   0.7516236
  76.1030714  71.9917204  -0.0256210  57.6183462  76.5379238  70.0565386
  58.3758020  76.1488104  70.4936695  57.4133539  77.3139524  70.5780649
  36.8613849  30.8442277   8.3614821  36.8357215  30.3784008   7.5256724
  35.9566436  31.1189861   8.5104270  20.5825561  69.5641758  25.2443976
  20.3110593  70.4119064  24.8924441  20.4284233  68.9473106  24.5288939
  70.6740890   4.9894161   6.0860247  69.8985324   5.4204530   6.4451165
  71.4077888   5.3872032   6.5547223  68.7018728  61.9743919  70.8313227
  67.7823734  61.7085409  70.8402014  68.7676191  62.5848341  70.0969744
  11.2863725  77.5104214  24.0719218  11.1125558  77.0529248  24.8945422
  10.9867471  76.9053652  23.3934207  73.3152676  21.0575271  50.5132627
  72.7783537  20.4704976  49.9809599  72.8425694  21.1284184  51.3425732
  35.3295360  46.5958614  12.8848261  35.8449159  47.3817844  13.0663294
  34.7701249  46.4931888  13.6547274  73.4335987  52.4152126  62.6786322
  73.3647386  53.2083561  62.1472067  72.9720680  52.6293375  63.4894175
  42.7562127  41.2873573  15.1615519  43.2815585  40.6409664  14.6899314
  42.8140912  42.0791931  14.6268744  54.4487715  20.8683491  68.6412239
  54.2804098  20.5092072  67.7700710  53.9313507  21.6730356  68.6726475
  60.8605671  43.5076666  45.8412266  61.7685175  43.2535601  46.0064125
  60.4743719  43.5963726  46.7125559  86.3639728  77.2833993  15.6705374
  86.8539087  77.8325559  15.0584693  86.2897722  76.4382102  15.2273936
  52.2376571  10.4356451  13.4697146  52.7203307  10.4217214  12.6432318
  52.2048698  11.3610000  13.7123675  14.2532875  41.9670391  62.7898455
  13.7078049  42.5914574  63.2681561  13.7545921  41.1502171  62.8081322
   8.8115742  43.7883329  47.7386045   7.8552772  43.7500000  47.7546644
   9.0825703  42.9045248  47.4902487  55.3924117  37.9966373  15.0714869
  54.9462447  38.2945222  15.8642191  56.2411532  37.6787586  15.3794188
  79.6386099  57.0781946  58.1745958  79.0586996  56.6036987  57.5789547
  80.3892136  57.3232412  57.6335049  61.2233005  18.9518709   8.5379119
  60.4232726  19.4663877   8.6449856  61.0523925  18.1408805   9.0167803
  54.0935844  75.3281786   0.2097935  54.4907802  74.5174267  -0.1082378
  54.7733730  75.9912206   0.0894064  78.8418762  55.5175843   2.3450226
  78.6126463  54.6014573   2.5012202  79.7096244  55.4820897   1.9425482
  65.0424147  49.8736525  42.1370792  64.5420218  50.6051683  42.4986315
  65.8090639  50.2829599  41.7358875  51.8622104  68.8205268  32.9502291
  51.2648265  68.0915906  33.1176085  52.6878921  68.4023215  32.7061266
  33.6022744  50.0807876  11.2102980  32.6964269  50.0120945  10.9086985
  33.9093099  49.1752452  11.2545199  60.1520681  75.8073378  48.2371187
  60.3211546  75.0134993  47.7297115  60.9202003  75.8994627  48.8007879
  47.0473337  21.7753863  64.0524340  47.7627277  21.1548042  64.1914511
  46.3922310  21.2795925  63.5612535  47.0602212  15.0461931  13.5907168
  46.9098172  14.1147728  13.7521739  47.8052697  15.0679226  12.9901690
   4.5044662  70.2935505  61.5907001   4.0259601  70.9487915  61.0828352
   5.0835182  70.8047247  62.1560526  35.2969251  27.6516838   4.4472212
  34.7881637  27.4472065   3.6626334  34.7594962  27.3310108   5.1714940
  82.0059872  45.7547951  64.9379539  82.6580048  45.3636932  65.5194569
  81.7059994  46.5348005  65.4046774  41.3051224  66.4451694  70.5768442
  40.7684469  67.1678209  70.2512884  42.0755911  66.8699598  70.9538841
  19.9148228  59.8903322  55.2595329  18.9868690  59.9812984  55.0430679
  19.9645378  60.0977516  56.1926651  49.6475253   0.5250091  35.8872122
  50.4587684   0.2187509  36.2925906  48.9724717   0.3551120  36.5442271
  58.5539150  57.6151037  39.8218870  58.5055065  57.1991348  40.6826162
  57.8377581  58.2502031  39.8221827   3.2243778  40.4602098  59.2706728
   4.0005256  41.0101604  59.3773985   3.3832886  39.9763489  58.4602070
  11.5578925   0.8243532   0.0422520  11.3570392  -0.0957375   0.2134842
  10.7986056   1.3015575   0.3768868  84.4054508  68.9725590  63.3145237
  84.4925308  68.0720329  63.0019569  85.1189232  69.4450188  62.8855991
  59.9767017  49.8909330  49.4038010  60.7857704  50.3994131  49.3482685
  59.2842722  50.5195236  49.1997194  73.6985159  35.2005124  56.2099075
  72.8125954  34.8644495  56.0741425  74.1462708  34.5067501  56.6940975
  25.9427017   2.2597068  70.6292200  25.3382534   1.5264361  70.7440138
  25.4504817   2.8971236  70.1118755  79.5291138  69.2577839  48.4449053
  79.5515108  68.3068371  48.3379602  79.4357538  69.5967913  47.5546312
   7.0276024  66.9503927  66.2627602   6.3105537  66.7852640  65.6505442
   6.5965130  67.2656965  67.0570993  69.8645973  43.4236431  70.0988865
  69.7266626  43.4756231  71.0446692  69.1609430  43.9538336  69.7247171
  63.1210995  45.1138210  54.8365402  63.8947201  44.9902487  55.3865147
  62.3829746  44.9207258  55.4145718  33.1872497   6.8591852  24.9623770
  33.6796603   6.2428779  25.5045313  33.6906610   6.9191522  24.1504569
  45.0969014   4.8923797  15.4377551  44.8125348   4.0476055  15.0888629
  45.7490144   5.2035398  14.8099417  78.5198927  75.0421906  65.6421423
  78.2616043  75.4950094  64.8393488  77.7671099  75.1401758  66.2251902
   6.1665386  70.9481146  31.7837424   5.9244626  71.8042566  32.1368022
   5.3345960  70.4844167  31.6884036  58.0113697  25.4039669  65.9890509
  57.7011108  24.8437762  66.7005014  57.3391914  26.0803962  65.9062910
  81.6072464  51.5825558  31.8911600  81.0498905  51.5146685  32.6663852
  80.9945488  51.7000389  31.1651993  86.1743927  56.6570568  57.1172905
  86.4779091  56.7109537  58.0234957  86.1957169  57.5610781  56.8033934
  74.0604625  30.3029413   5.9543557  73.2438598  30.5466003   5.5184407
  74.0141139  29.3502397   6.0345883  41.0769409   5.6982367  40.4428768
  41.8830341   5.1928370  40.3378820  40.8692783   6.0040705  39.5599389
  16.5497448  68.4580564  67.9151344  16.4113952  67.8297949  67.2063494
  17.2994854  68.9801073  67.6295042  74.7591052   0.5369539   1.4906020
  75.0703940  -0.3451329   1.2875075  74.2208419   0.4264516   2.2743697
  74.6256828  54.0152884  38.3655548  74.0318871  54.1952753  37.6366901
  74.6921110  53.0607128  38.3902597  31.9610923   2.9714148  50.8537960
  32.0609802   3.4938185  51.6496277  32.7950424   3.0721896  50.3948879
  24.4537768  53.1351680  29.9204821  23.8956914  53.0024166  29.1542239
  24.5558915  54.0849990  29.9807543  80.7761860  65.2708960  35.0026202
  80.5586147  65.7186127  34.1850352  80.6677914  65.9401226  35.6783533
  29.5962089  31.6965430  55.1358795  30.0179141  32.2582953  54.4856167
  28.6619419  31.7602389  54.9375820  25.4172645  41.3614006   1.7094273
  25.7846341  40.5409450   1.3805861  26.1635099  41.8204612   2.0949215
  82.1512453   7.0104449  49.3897438  81.6707842   6.9583075  48.5635090
  81.5078012   7.3323577  50.0210762  32.0534978  15.5058355   2.8236193
  31.3781867  16.1531467   2.6207013  31.7376838  15.0703783   3.6153693
  65.1782227  70.2371883  59.6143246  65.9251976  69.6980715  59.8743534
  65.5698061  71.0461330  59.2849255  72.7941036  60.1749039  45.6062317
  72.9119730  60.3505898  46.5397596  72.6129484  61.0327196  45.2220869
  25.2667937  52.7363319   7.0228238  25.5519948  53.2422466   6.2619443
  25.7759128  51.9270629   6.9768710  26.5243278  10.7444686  15.6451792
  27.4323592  10.4467029  15.5899520  26.4547954  11.1413545  16.5134425
   5.8116287  81.1942126   3.3784909   5.5643791  80.6682660   2.6179118
   5.2449172  81.9641997   3.3316989  13.3992054  51.8990088  61.4846039
  14.2192795  51.6758060  61.9249439  13.3240940  51.2571430  60.7784891
  70.7486574   3.2521003  56.6645813  70.3759138   4.1051524  56.4418793
  70.9464256   2.8490584  55.8191967  56.4237928  81.0503197  65.9307575
  55.8244276  81.7239380  65.6094742  56.1973906  80.9494972  66.8553162
  76.1923265  60.5678892  60.0197983  76.8888855  59.9125147  59.9807596
  76.6527510  61.4011145  60.1196861  67.7476549  70.4530239  50.8490801
  68.0843878  69.5605278  50.7698059  67.1829414  70.4282284  51.6215563
  67.6061153  64.8567915  57.0382214  67.2013617  65.1842785  56.2350035
  66.9854927  65.0861740  57.7299166  22.3724732  38.1959838   7.1010489
  21.6761479  38.0971736   7.7503533  21.9508109  38.6355562   6.3626618
  48.7298379  21.1971492  10.3610987  48.2827077  21.6312236   9.6345419
  48.8347659  21.8821973  11.0213465  47.4740920  45.5413169   4.5192093
  47.8189311  46.4337844   4.4905562  47.6090512  45.2613468   5.4245467
  61.6616011  68.2674408  42.1830702  61.8616867  69.1937637  42.3177147
  61.3139057  67.9727030  43.0247784   1.6074516  73.9608669  60.5037594
   2.4132015  73.4560823  60.3933430   1.8929817  74.8743486  60.4875326
  53.4139204  76.9638062  59.9614286  53.5598421  76.8284130  60.8977032
  54.2894983  77.1015310  59.6000147  56.9897781   0.5821771   5.8906216
  57.1011481   1.4182300   5.4380221  56.0422740   0.4863376   5.9869666
  67.3738140  77.8695418  47.8468127  66.6085475  77.3348047  47.6354975
  67.8304141  77.9746916  47.0121283  37.1628556  52.1759719   8.5696311
  36.2436423  52.2725029   8.8185496  37.4963651  53.0724163   8.5325427
  75.7560253  60.1556683  68.8709545  75.6744480  60.9184647  69.4434261
  76.4463282  60.3934860  68.2519579   0.4690029  52.4903488  45.3478146
   0.0532295  53.2942295  45.6594801   1.4013435  52.6200771  45.5213976
  73.5088634  68.0658674  46.8360806  72.5896835  67.8041601  46.8894720
  73.6932564  68.4674835  47.6851559  48.0963087  72.4416971  39.8241496
  48.7488651  71.7438602  39.7656584  48.6070299  73.2337952  39.9913907
   6.2710652  10.3367300   9.7032923   6.7209468  11.0499115  10.1562876
   5.3612051  10.4054946   9.9925322  46.8851409   7.1415109   1.2688870
  46.9249711   7.3058099   0.3267331  47.0516572   6.2028999   1.3555808
  55.8676658  27.6220293  14.4290442  56.3849959  27.1457309  13.7796206
  55.6932101  28.4701652  14.0210528  85.0224972  71.9926405  69.4566584
  85.8846855  71.5768766  69.4598770  84.4139004  71.2804651  69.2600870
  48.7712329  76.0626294   3.9233918  48.1616538  76.3700558   3.2524676
  49.2641300  75.3620292   3.4962506  53.7165880  76.4736938  55.1982689
  52.8781176  76.5335369  54.7404289  54.1848660  75.7697868  54.7494173
  82.3337364  72.6681757  41.2061405  82.7988911  72.9813433  41.9818926
  81.8365192  73.4275293  40.9021997  35.4936260  72.7525737  22.4929709
  36.0718482  72.0051290  22.3405928  34.8442310  72.4295809  23.1176276
  84.9420530  81.5854016  57.1050930  85.5780298  82.1246369  57.5751877
  84.3696600  81.2386874  57.7894831  16.5957268  66.8608565  46.9495296
  17.2758063  66.2351067  47.1988535  16.6401585  67.5426347  47.6199293
  73.8377515   3.0262949  24.4396109  74.4663612   3.7365414  24.5685763
  73.1709806   3.3984472  23.8624186  45.4383183   7.6784027  42.9475641
  44.8085117   7.8253871  42.2418928  46.2389278   8.1088126  42.6475620
  14.4894457  21.4860845   8.6801010  13.6273146  21.0862541   8.5656637
  15.0946510  20.7452059   8.7126142  23.9319706   1.4511786  30.1544428
  24.6928310   0.9709109  29.8278451  24.3015623   2.1304454  30.7185626
  26.7630537  74.3023832  49.2169714  26.2966069  74.9095041  49.7914839
  27.6778611  74.3684621  49.4908190  43.8945532   4.4171911  51.2639856
  43.1506491   4.9170059  50.9277964  44.6478081   4.7526249  50.7778549
  14.7095211  76.4990217  34.5951653  15.4230507  76.4958317  35.2332091
  14.3450602  75.6150098  34.6390033  77.2859210  59.9502570  66.4516735
  77.2894293  60.8676822  66.7247200  78.0289156  59.5604164  66.9123411
  66.4046026  65.8820827  54.1433525  65.5253560  65.7167155  53.8030386
  66.2904686  66.6044886  54.7608757  59.3465892  13.6645700   4.9967188
  59.1152422  14.1732289   5.7738776  60.1766888  13.2452418   5.2232785
   9.4347819  66.3422019  26.4856315   8.7410625  66.3104470  25.8268619
   9.3898829  67.2310192  26.8380809  54.5959862  79.8904055  71.0232925
  53.7619122  80.0288854  70.5745316  55.2544983  80.2208076  70.4122066
  27.9577692  66.3239796  62.9309511  27.3379715  65.9912081  62.2818422
  27.7660998  67.2601027  62.9872465  20.2771004  73.8959367  61.3312817
  20.8066662  74.6887786  61.4160967  20.7476338  73.3608628  60.6921244
  23.0707844  69.4495756  64.7485399  23.4378489  69.9619753  65.4689169
  22.7888258  70.1034457  64.1088629  73.7684051  33.9161970  11.0201640
  73.5613100  33.6738350  10.1176161  74.2151395  34.7594334  10.9452433
  21.0923108  71.6547627  33.4804654  20.9424885  72.0368380  32.6157093
  22.0427760  71.5569193  33.5376811  70.8296434  24.6585573  33.2204909
  71.0869304  23.7727763  32.9647059  70.2690832  24.5334377  33.9862246
  26.2180179  11.7905309   0.8911080  25.9601921  12.6781227   0.6422371
  26.1753410  11.2911774   0.0755972  31.4222145  14.6794546  44.9313593
  31.6705990  13.7555742  44.8999882  30.4922867  14.6698976  45.1580143
   2.8639277  69.9640949  57.8428650   2.5964006  70.7577307  58.3063364
   2.7376493  70.1731391  56.9173479  68.9600555  32.8240331   7.3225302
  68.7418882  31.8924757   7.3514552  68.6076562  33.1780245   8.1390662
  11.1277723   9.8094893  20.3107905  10.9160686   8.8835180  20.4290724
  10.7584357  10.2400100  21.0818100  52.7331750  37.2247209  21.1750216
  52.9913346  36.3583155  20.8604998  53.2135669  37.3345731  21.9956297
   3.0136140  43.3579046  27.4456811   3.6763819  42.8130944  27.8701210
   3.0065568  43.0611713  26.5356636   8.3631166  48.6728651  12.1409702
   7.4868353  49.0188892  11.9717622   8.2529028  48.1036408  12.9025924
  53.8887119   7.1953559  38.0530095  53.7327051   6.2692189  38.2378483
  54.3604279   7.1972126  37.2201157   3.5274084  81.2198868  35.1806545
   4.4602044  81.3138575  35.3737712   3.3428892  81.9134402  34.5472765
  48.2705549  77.2888758  22.7806468  47.5950793  76.9596817  23.3736033
  49.0252701  77.4544145  23.3456606  85.6173092  52.1203286  20.7838225
  86.1728984  52.8918941  20.6731963  84.7586018  52.3954780  20.4626584
  16.4931401  52.6033790  40.8924723  16.3950880  53.1174381  41.6939449
  17.4370821  52.4688275  40.8082056  48.5978182  69.0710897  70.4335070
  49.2429837  69.7319777  70.1820660  48.6492833  69.0373702  71.3887262
  13.1766375  67.0464594  34.1039371  12.9614457  66.4329464  33.4014225
  12.8393372  67.8884883  33.7982464  38.7402248   2.7964500   1.1709607
  37.9092050   2.3678392   1.3757272  39.3657684   2.4118344   1.7849639
  26.3379582  72.2303689  32.1768665  26.3006743  71.4497823  31.6241217
  27.0499667  72.7521647  31.8067265  59.0091888  51.8314328   3.2544751
  59.2911545  52.7341677   3.1068463  59.5598404  51.3099660   2.6704497
  35.2918744  19.8225296  35.0876021  35.4137421  19.1254056  34.4430900
  36.1403084  20.2640033  35.1262307  67.0009381  81.5971754  23.7909722
  66.0675878  81.5379200  23.9948773  67.0470238  81.4765690  22.8425193
  15.0505217  71.0918016  33.6319256  15.2492388  72.0155592  33.7849522
  15.8589133  70.7298441  33.2689834  79.9187857  68.5150809  35.6869221
  80.3033454  69.3514962  35.9491348  79.0458924  68.5191793  36.0796976
  39.2957163  10.3953373  53.6892414  39.1927290   9.7201228  53.0186367
  38.4012485  10.6673181  53.8946295  29.8491724  67.7620775  58.3197355
  29.8114928  68.1934852  57.4660969  30.3714712  66.9745583  58.1672621
   4.9539051   9.3074722   7.6061339   4.1235337   9.7790784   7.6717324
   5.4701600   9.6274252   8.3459611  21.8326086  77.9736831  23.5649962
  20.9161895  78.0968453  23.3175463  22.2878593  78.7212779  23.1775851
  82.3675005  56.2777211   3.8343949  82.5657884  55.7733251   4.6233840
  81.7767803  55.7157006   3.3329815  67.4845219   3.8479492  55.3953218
  67.6397133   3.5446870  54.5007944  68.2573080   4.3710804  55.6083298
  71.2487022  62.1494724  20.2091975  70.3812353  62.0173456  19.8267264
  71.8153993  62.3329570  19.4599146  83.5490131  27.0190668  63.9192724
  84.2811966  27.3961568  63.4314728  83.4121704  27.6220345  64.6499777
  57.5072765  43.0459261  61.7883730  57.2467518  42.9803133  62.7070999
  58.4159422  42.7452850  61.7750359  76.7527336  77.8377167  27.3755431
  76.0255200  78.2365135  27.8534055  77.2677595  77.3942936  28.0496025
  13.3483165  52.2000112   9.1172690  13.7243217  52.8427901   9.7186751
  13.2592767  51.4044418   9.6420283  79.6545641  29.2569103   7.8979725
  80.0780193  28.4065642   8.0155558  78.7187854  29.0570761   7.8730626
  43.8211393  15.6755221  20.0241566  43.0708456  16.0818553  20.4579568
  44.5120573  16.3362765  20.0717521   3.3161863  67.7377457  22.7740479
   2.7855047  68.1510563  23.4550643   3.9074357  68.4298844  22.4780774
  66.0060453  12.2067618  62.8565264  65.4773188  12.9870021  62.6894712
  65.7898617  11.6125679  62.1378946  80.9675217   3.6182624  29.0885234
  81.5873337   4.0025651  29.7084999  81.4904308   2.9981098  28.5803771
  39.7071123   6.2527686  63.2295561  40.0341082   6.0958064  64.1153717
  38.8272691   5.8757961  63.2287359  85.8137361  44.5523517  13.9302630
  85.5074255  45.3449173  14.3710036  86.0141126  43.9446567  14.6421523
  41.3088417  14.5454466  21.9619060  41.6193628  14.1860950  21.1308384
  40.7664347  13.8508320  22.3354530  84.3685150  46.1480236  46.1711597
  83.5590744  46.4566374  45.7639885  85.0393677  46.7568254  45.8620453
  32.1855545  13.1169164  52.1246576  32.5153613  13.5458541  51.3350534
  32.9598331  13.0007875  52.6753283  36.0731173  22.9143667  30.0316691
  36.2979221  22.0034075  30.2209973  36.8044090  23.2370591  29.5050645
  82.3377228  50.2172947  55.0439215  82.0455265  49.3174744  55.1894236
  82.9559612  50.3862810  55.7548761  72.7909714  30.4859454  49.6333313
  73.5754031  30.9674985  49.3706322  73.0578965  29.5668418  49.6182919
  21.5195704  25.3752160  56.6530228  21.0668588  26.1800885  56.9049406
  22.4297047  25.6424594  56.5246868  20.2744096  24.5282997  52.0178027
  20.3784126  25.1811446  52.7100558  19.3713420  24.6370937  51.7197032
  75.3940964   7.5891721  57.5566101  75.6115675   6.7200661  57.2195768
  74.6903038   7.4326909  58.1862307  69.1708509  44.0470804  24.7563452
  68.2439891  44.0388052  24.9952883  69.5198671  43.2344941  25.1225752
  31.7613181  78.6162199  65.0140667  32.1798762  79.4752310  64.9580431
  31.5860899  78.4955786  65.9473276  21.6962767   2.3757574  38.3331513
  21.1668730   1.8170476  37.7641106  22.3680639   1.7915054  38.6846924
  68.3928458  55.6912972   9.9226565  68.5603158  56.4845802   9.4138426
  67.7311341  55.2183153   9.4180197  71.3449327  75.7849147   3.6983819
  72.0066826  76.2724902   4.1888804  70.5576173  75.8382537   4.2401595
  42.7589806  81.6576508  47.6000071  42.4372586  80.7860653  47.8303671
  43.5156735  81.4927007  47.0374727  81.8252117  68.0969984  43.0034828
  82.3095709  67.2756214  42.9200172  80.9163648  67.8268332  43.1347847
  60.4053783   5.8529133  54.6930742  60.3986597   6.6050601  55.2850723
  60.0680733   5.1293826  55.2212381  49.0290165  16.4126444  59.6520424
  49.8873377  16.5885019  59.2665625  48.4171534  16.9140983  59.1131544
  17.1777876  71.2532885  22.6770759  16.2478407  71.0302002  22.6363111
  17.6011046  70.4574902  22.9991651  42.6602896  61.7860014  43.1861353
  42.6821097  62.2584779  44.0183115  42.8713950  62.4489302  42.5287199
  17.7642101  54.5827557  30.9351534  17.5112527  54.2110278  31.7801756
  17.2487586  54.0931751  30.2941794  60.3386943  25.5041732  17.8299326
  60.5880133  24.7098555  18.3023066  59.5964328  25.8532335  18.3233256
  70.2812624   7.8163111  40.5027628  70.4517078   7.8452843  41.4442205
  69.9147034   8.6767763  40.2991295  86.2317235  76.5857888  25.1622081
  85.7653576  76.1162044  24.4706702  87.1460802  76.5829016  24.8790574
  41.8169689   1.0302745  47.6481724  41.4415455   1.9022885  47.7701569
  42.1888876   0.8080874  48.5017204  42.7245569   6.5951741  45.2525473
  42.1149969   6.0664994  45.7674980  42.1635723   7.1842951  44.7481060
  12.7593130  40.0118765  30.9549517  12.2724336  40.5712300  31.5601821
  13.5021871  40.5482467  30.6780428  33.8282299   2.9322630  48.9876032
  34.7671342   3.0986378  49.0713120  33.6670947   2.9383448  48.0440807
  10.7680466  18.2714260  54.3692493  10.7144214  17.7972472  53.5394859
  11.3307144  17.7272379  54.9201584  45.6105804   6.6314036  63.2547331
  46.5359020   6.7856544  63.0644369  45.1419258   7.1724498  62.6192284
   8.9295967  66.0919208  47.4347830   9.4652208  66.8793328  47.3382282
   9.0953549  65.7978434  48.3304787  65.6125641  42.8981590  58.4649515
  66.0949087  42.2561312  57.9440117  66.2921476  43.4080648  58.9058542
  12.3976811  37.2849900  21.9640946  13.3247383  37.1166856  22.1328139
  11.9793280  36.4282853  22.0493817  67.5829116  49.2691626   1.5579791
  66.9831483  48.6192157   1.1918015  67.7844469  49.8494901   0.8239216
   6.9050558  72.0256574  39.6178889   6.3410600  72.7639426  39.8482680
   7.7769812  72.2895117  39.9117589  22.2566708  65.9780879   6.2801951
  21.7104729  66.7416222   6.0933429  21.6424425  65.2443523   6.3043857
  50.9643745   1.8788289  39.5049882  51.3288832   2.4993110  40.1361513
  50.5410290   2.4286839  38.8456917  42.8254795  10.0245273  47.3303986
  43.7313080  10.2360630  47.5561237  42.6941299  10.4218233  46.4695072
  63.5965347  35.6891203  61.7918873  62.9712439  36.2723756  62.2220707
  64.4397831  36.1327815  61.8831158  16.1263323   9.8152906  46.3341284
  15.6207430  10.5710399  46.0350418  16.5567231  10.1165259  47.1342897
   8.2945341  50.1940640   2.2286362   7.4012702  49.8526742   2.2706265
   8.5248321  50.3751262   3.1399054  56.4772367  27.7884579  59.6490955
  56.2654400  28.3788085  60.3721857  56.1564636  28.2407212  58.8688421
  25.4082155  17.2347498  64.2843676  25.4230738  17.2252774  65.2414036
  26.2722635  17.5623012  64.0346384  70.5681332  51.6761930  56.0710096
  70.6191643  50.8566148  55.5791521  70.4149159  51.4034755  56.9756556
  70.1563651  62.2884197  33.0879736  70.6801147  62.5164098  32.3198986
  70.4751343  62.8715033  33.7769079  22.9543877  29.6660614  22.5892234
  22.8944087  29.9498057  23.5014296  23.6835647  29.0460420  22.5786996
  54.0580177  17.4726427  51.9137049  54.9698973  17.7636707  51.9108677
  53.9203119  17.1078289  51.0395336   3.0713457  22.4387683   7.1012969
   2.1277851  22.5576069   6.9926734   3.4613651  23.1737389   6.6280789
  51.0727739  17.4647832  18.4377515  50.8906126  16.7664790  17.8089285
  51.8971825  17.8478932  18.1380737  10.8348568  71.0818870  65.0256205
  10.6600579  70.1626808  64.8237896  11.3694485  71.3902933  64.2939615
   1.3096674  72.7242846  30.4978776   1.4112457  72.7303226  31.4496517
   0.7507714  73.4787805  30.3118610  21.5010603  71.4817817  29.0938544
  21.2199505  70.6428416  29.4590783  21.7748030  71.9944406  29.8544335
  60.9537323  64.6766431  65.8355522  60.3986081  65.3511555  66.2268305
  60.5272969  63.8515289  66.0670042  57.5675599  55.9162618  19.3232531
  57.1493665  56.0784318  20.1688571  58.4874241  55.7600846  19.5370001
  77.4078933  51.7237045   6.3666958  77.5407020  51.8316867   7.3084683
  78.1807176  52.1240999   5.9683699  43.1828737   4.7771236  68.1301785
  42.4445009   5.3370672  68.3699751  43.8915586   5.3883177  67.9290962
  39.4064069  35.6728864  66.5545034  40.3331947  35.4380822  66.6010571
  39.3736362  36.3956761  65.9278154  61.9260406  36.0310102  44.5574522
  61.2190342  36.6588664  44.7063398  61.5215874  35.3324008  44.0430641
   4.3111262  11.1105747  15.8068842   3.9402757  11.8723173  16.2523551
   5.0443850  11.4619560  15.3018183  57.2670929  59.7279908  10.5614943
  56.7055670  59.9136843   9.8088736  56.6646902  59.6805062  11.3038535
  24.6128726   9.1084915  18.4191716  24.3956351   8.4536141  19.0826297
  24.2370605   9.9226081  18.7541521  53.3898735   3.2039490  49.1675377
  52.8224611   3.2137963  49.9383688  52.8103828   2.9573333  48.4467030
  26.2663460  11.2735522  35.0024915  26.9675398  10.7486391  34.6164513
  26.6244817  11.5745735  35.8375692   7.8271564  75.9767045  60.8815956
   7.7770480  75.7541979  61.8112230   7.1977814  76.6894669  60.7716513
  61.8180466   9.1739058  38.2896256  61.5635014   8.7224668  37.4848652
  62.1166277   8.4753382  38.8719344  26.5405416  11.0374117  44.6561623
  27.4850988  10.9348202  44.7724438  26.3999867  11.9842196  44.6616316
   7.6883753  58.9123494  30.5207396   7.1799525  58.9720208  29.7119308
   7.0460876  58.6780102  31.1906528  76.5276712  56.7567188  68.0176210
  75.6230694  56.4859421  68.1744957  76.4617950  57.4327214  67.3431492
  75.9355680  68.0419280  25.5807108  75.9957353  67.9205419  26.5282721
  75.0907795  68.4718253  25.4474730   4.5186520   9.8165268  33.0236602
   5.3919232  10.1933873  32.9159307   4.0565243  10.4394007  33.5846400
  46.4064789  27.8325081  62.1462393  45.7718992  28.1039977  61.4830399
  46.1941004  26.9154310  62.3197269  16.7205628  68.2451887  56.1923552
  16.5416869  67.3401947  56.4477396  17.6725014  68.3267815  56.2505341
  79.1355038  79.5446539  66.6235828  78.6579752  79.6224403  67.4495077
  79.1448021  78.6052990  66.4398479  10.0995743  22.5178790  54.7665071
  10.6981122  23.0525136  54.2448282  10.5764747  22.3477983  55.5788326
  65.5782986  17.8818262  67.7448702  64.6242380  17.9360461  67.6895523
  65.7463837  17.4815667  68.5979652  13.1245511  65.8593203   5.6880707
  13.0703824  66.0309483   4.7479434  12.2149223  65.7458545   5.9636302
  21.6069007  39.9900055  59.1927814  22.0978022  40.0125742  58.3713579
  20.9917355  39.2647219  59.0843201  47.4874179  30.8430024   7.1579833
  47.2416500  31.7662992   7.2158856  48.1038717  30.7135870   7.8787274
   9.2920583  37.3201670   6.5793271   9.6687168  37.7832885   5.8310742
   9.8984140  37.4948685   7.2990794  62.5339236  61.1966210  70.2920864
  62.4162450  62.0221358  70.7620965  63.3361664  61.3218694  69.7851846
   2.8996891  23.3462300   2.5274891   2.7903503  22.4178387   2.7333254
   2.5630468  23.4351386   1.6358656  86.3179874  25.4154038  38.7998533
  87.0539761  26.0147142  38.9238620  86.4562035  25.0433588  37.9288125
  16.3880920  35.2730536  29.5001817  16.4192581  34.3656731  29.1969991
  15.4574037  35.4465580  29.6414161  45.1031208   5.4720193  44.3647909
  45.3123951   6.2430471  43.8375759  44.2273188   5.6476337  44.7088242
  32.2710752  11.1927986  67.0763874  32.2540903  12.0953238  67.3948050
  31.5974140  10.7454193  67.5885057  67.6450817  27.6244678   7.2678036
  67.2354833  27.5073900   6.4106268  68.4823481  27.1658625   7.1978182
   3.5526594  80.3250656  66.8845034   3.9678439  80.8187279  66.1772871
   2.6535233  80.6524367  66.9093370  39.5974549  79.9583333  58.2168961
  38.8651331  79.9143131  58.8317108  39.4461020  80.7631669  57.7213478
  56.3206903  27.6128568   9.8236746  55.6791512  27.1643771   9.2727418
  55.8002631  28.2144095  10.3561396  24.7579630  66.8769915  43.1773090
  25.5670603  66.9088037  42.6668358  24.3762310  66.0244615  42.9682541
  79.4730894  43.7623127  21.6766734  79.2202083  43.3392944  22.4972434
  78.9733783  44.5786213  21.6640944  44.3436050  22.2635460  57.5766611
  44.0421867  21.5191650  58.0975008  43.9993525  22.0969629  56.6991806
  12.1512612  55.9673221  32.6787996  11.6117819  55.2532441  32.3392630
  13.0491551  55.7088883  32.4708891  56.7917776   9.0688533  63.3461857
  57.2399426   8.4076923  63.8736773  57.2043943   9.8953533  63.5969353
  65.7597828  26.4779782  70.2884102  66.4363337  27.1498251  70.2039814
  65.6363440  26.3796806  71.2325144  72.4859381  17.0738673  58.0978870
  73.4064865  17.3231244  58.0160761  72.4821901  16.3866282  58.7641621
  83.6106483  41.1339937   2.3251195  84.5230953  41.2720178   2.0709033
  83.4990112  41.6642688   3.1141562  10.3588827  49.4759376  65.6492567
   9.6054204  49.0577466  65.2325487  10.6567629  50.1237852  65.0106716
  59.0578882  36.6420247   8.0777926  58.9048664  37.5798057   7.9621071
  60.0091020  36.5614285   8.1480021  71.7182485  45.2164404   8.2426686
  70.8704797  44.8349653   8.4706873  71.7824642  45.1075708   7.2938485
  54.2913643  17.9798033   8.3013529  55.0024287  17.5854852   7.7962441
  53.8795320  17.2421457   8.7513394  32.6721962  66.7069406  51.3719177
  32.3437794  66.0075814  50.8068800  32.4442013  66.4258737  52.2580624
  15.8651632  67.9202797  16.3744158  16.2424606  68.7994315  16.3432688
  15.0223726  68.0367352  16.8130202  17.4805268  73.8562335  48.1459522
  18.2158240  74.3523664  48.5057068  17.2436913  73.2415617  48.8404465
  76.4439861  60.1647057  11.4564795  76.8356935  60.0838162  10.5868525
  76.6636697  59.3429782  11.8954939  53.9912701  21.5052390  23.5392046
  53.7636328  20.8131814  24.1600657  53.7129259  22.3138452  23.9692235
  44.4880589  81.1501207  35.7866740  45.3885659  81.2838595  36.0823607
  43.9618595  81.2173778  36.5834332  59.0639202  27.0112981   3.4572167
  58.7807361  26.0977794   3.4181733  58.2994620  27.5114526   3.1714148
  40.9206963  12.5246036  62.3313475  40.8292389  12.8178465  61.4247704
  40.5338955  13.2291722  62.8511524  18.1372750  27.9262495  63.8153696
  18.1687653  27.5871062  64.7099209  18.9890635  27.6985312  63.4427691
  61.9533777  13.8251233  59.0692568  62.8113413  14.2494166  59.0796137
  61.9084501  13.3553064  59.9020100  69.6075249   5.5649698  55.3297472
  69.0848875   6.3432002  55.1362514  70.4531860   5.7351416  54.9148560
  12.9509648  64.3562467  25.3812528  13.3975561  63.5308451  25.5696726
  13.5676154  64.8427613  24.8341870  35.1883721   0.9643412  66.0548306
  34.6714497   0.4912424  65.4027557  34.5972204   1.0668699  66.8006563
  53.6835337  19.6242070  54.6083212  53.4336138  19.8189259  53.7050724
  53.8049698  20.4828143  55.0136328  85.5642414  10.0749123  49.6406698
  84.7920513   9.5306647  49.4865656  85.9601116  10.1794779  48.7754583
  63.8847844  70.8868672  35.5741973  62.9669277  70.6439449  35.6956858
  64.1431419  70.4488994  34.7632308   5.2839178  45.1162617   3.2165570
   5.0967639  44.2225476   2.9293627   5.4952663  45.5875065   2.4106450
   5.4542071  20.0633073  46.6451025   4.5688984  19.8417413  46.3563633
   5.8257091  19.2313457  46.9384575  54.9800110  19.8120594  58.9102697
  54.6487951  19.8597050  59.8070717  54.9619150  18.8789773  58.6975145
  39.0040350   4.2577222  42.0349312  39.5142889   4.9685332  41.6468334
  38.0924797   4.5238173  41.9145441  71.2314606  17.8001022  22.9577780
  70.6855488  17.0757520  23.2636046  72.1276903  17.4719739  23.0307698
  45.1698589  11.0983646  48.0824709  46.1031389  11.3039660  48.1367302
  44.7423315  11.7910564  48.5860872  57.9755656  43.8430976  -0.2890783
  58.8504116  44.0744217   0.0229592  57.3928801  44.0843936   0.4309792
  40.1940068  72.2916586  36.4489341  39.9585970  72.4364425  35.5325007
  39.3896588  72.4743939  36.9345903  27.1281632  81.1996506  39.6809745
  27.3352583  82.1195831  39.5164514  27.9701956  80.7491731  39.6155190
   3.8478549  46.2911684  18.9952242   3.6779865  45.5752380  19.6074486
   3.7417253  47.0849378  19.5195329  53.8599014  26.2533736  53.4751081
  54.0416431  27.1211743  53.1143808  52.9817438  26.3283253  53.8485384
  41.2726259  10.1732433  43.0520344  41.1320543   9.2504311  42.8401613
  41.2736368  10.6163275  42.2035599  23.3528956  52.1718724  69.0369034
  23.0452212  52.4771220  69.8903608  22.5550421  51.9266922  68.5683441
   5.9279626  40.8203842  12.8367896   5.9935564  39.9990690  13.3239932
   5.8792299  40.5514545  11.9194407  75.7379969  12.6381225   8.4116549
  76.4236518  12.8714246   9.0374989  75.2398225  13.4463377   8.2898326
  79.2409317  32.0112993  16.0332770  79.7911064  32.0857765  16.8130202
  78.3784382  31.7697324  16.3708968  45.4629898  19.8542333  55.4965687
  45.7937241  18.9685977  55.3465796  45.4105473  20.2414942  54.6227789
  25.4891158  47.9845824  24.2043585  25.3013347  48.5396214  24.9612612
  26.3896192  47.6901193  24.3408007  43.3693457  28.9648485  67.1886587
  42.6742887  28.8518071  66.5403128  43.9540243  29.6165752  66.8018341
  23.8994163  58.6879947  10.5124659  23.6985343  58.3192636  11.3726515
  24.8101753  58.9743497  10.5813880  76.3323021  37.4274826  50.1335621
  77.0613813  37.7950811  50.6331062  75.6097698  37.3855734  50.7599974
  65.6656496  59.8852958  12.8458590  65.9687773  59.1529705  13.3825583
  65.6828944  59.5488693  11.9498915  54.5792437   8.2768631  43.3978844
  54.0316010   8.3394843  44.1804409  54.1588593   8.8582164  42.7642107
  60.9052658   8.8344049  55.5073309  59.9592733   8.7921309  55.6471014
  61.2828255   8.5041136  56.3225508  46.6846800  23.0920696  59.9824286
  47.0493412  22.3187876  60.4128790  46.4758921  22.7967548  59.0961838
  58.5538673  36.5511394  60.4466248  59.2090511  36.5271664  59.7492075
  57.7405071  36.2807178  60.0205374  47.9296398  24.3035531  43.8637924
  47.9126549  24.7082806  42.9965353  47.4853468  24.9337673  44.4309473
   5.2844731  72.8560715  63.0033087   5.8557860  72.8709011  63.7711715
   5.8679120  73.0399447  62.2670894  58.9350367   0.9971538  44.8556948
  59.4441795   1.7271046  44.5033121  58.7788200   1.2334342  45.7700253
  48.6606026  13.8968825  63.9875412  47.7770615  13.8380694  64.3510437
  48.5375166  14.2822146  63.1200171  23.0308652   1.1168443  61.0427046
  23.3012033   1.0423468  61.9579077  23.7540793   1.5762985  60.6159735
  73.1016056  41.1748406   2.0540804  72.8593437  42.0430963   2.3760600
  72.3043720  40.8408327   1.6428799  16.1330455  40.5730225   6.9495291
  15.7180303  40.2788165   7.7603526  16.7855304  39.8998020   6.7564721
  38.2741650  80.9213718  19.4841039  38.7830265  80.6628861  18.7156785
  37.5213345  80.3302062  19.4827783   2.4673279  78.2798989  53.4026289
   2.7968701  78.7188859  54.1868019   1.7002066  78.7917177  53.1461239
  41.1003208   5.9901911  69.6098471  41.2671471   5.9785205  70.5523252
  40.4563189   5.2955776  69.4719839  46.3269238  63.6776687  16.2006182
  47.2078613  63.5170914  15.8623976  46.2525002  63.0989029  16.9593806
  60.7976055  22.9705667  53.7421751  60.7759190  22.6080012  54.6277857
  59.9953651  22.6479793  53.3315897  76.3222694   0.5120569  69.4538403
  76.9963980   0.4146728  70.1263714  75.7882690  -0.2783138  69.5337677
  66.9207048   4.2757523  68.0451059  66.2544966   3.6787289  67.7045822
  67.0250368   4.9347895  67.3587990  57.2772408  25.4991293  58.7748384
  57.0378304  26.3784409  59.0676260  56.5243864  25.2039599  58.2626772
  19.7185286  62.4439485  67.9140329  19.7949036  63.3735580  67.6990271
  19.6817644  62.4215097  68.8702631  81.6182891  17.3456694   1.0858578
  82.0802490  16.7879679   0.4599232  81.4128439  18.1399681   0.5927939
  25.1056242  37.4779892  58.0702257  25.1047659  36.5501618  57.8349209
  26.0170841  37.7508545  57.9652786  29.2315110  75.3367806  66.7840481
  28.6394509  74.9039204  67.3991299  28.6563214  75.6853230  66.1029434
  57.4087715  16.8187392  39.6193290  56.8069983  17.3646069  40.1254177
  57.0198154  16.7800438  38.7455726  61.4246988  11.4342678  50.6867027
  62.1531868  12.0515513  50.6196451  61.0305309  11.4332914  49.8144293
  67.4732351  33.3404183  65.3243160  67.1918440  32.7114677  64.6598816
  68.1532049  33.8572478  64.8921633  36.8808373  75.1140613  21.7148209
  36.6590222  74.3544210  22.2533131  36.7320546  74.8218293  20.8155441
  13.7370503  13.7640667  65.4792023  14.6225917  13.5222411  65.7504368
  13.8562226  14.5493495  64.9450111   8.5957440  58.7354381  59.1907167
   8.8372644  58.3499582  60.0329161   9.3739208  59.2214162  58.9177752
  41.9012690  24.8098183  44.2546082  42.0825243  23.8714004  44.2021608
  41.0417318  24.9109554  43.8457108   0.4406651  71.7203821  48.8958740
   0.7965954  71.0847802  49.5168066   0.9100779  72.5320525  49.0884256
  63.7414281  79.8559858   6.2353797  63.0532877  79.2497827   5.9611315
  63.4619514  80.7056476   5.8944983  38.5006974   6.2269928  10.2186865
  38.2973335   7.1575190  10.1238341  39.2329208   6.2034346  10.8347411
   5.9755653  42.8515774  18.5553736   6.0703271  42.7493146  19.5023722
   6.3748258  43.7004461  18.3650012  16.3737297   6.2504172  63.1996632
  15.8671927   6.7296082  63.8554287  16.6152537   6.9129962  62.5524473
  14.8067149  72.2315145  29.9557948  15.7632454  72.2264178  29.9203682
  14.5763071  71.3805623  30.3286576  39.7987231  81.0563377  67.0623589
  39.6197422  80.3274631  66.4682722  39.6755465  81.8389631  66.5251827
  39.2803416   6.3411827  15.7913680  39.9012933   6.7777938  16.3744826
  39.1969571   6.9331235  15.0437731  49.2965317  31.9070458  30.6927776
  49.3949080  32.7770305  30.3058958  50.0263882  31.8344998  31.3078189
  81.9592857  47.3009205  45.4578638  82.2744179  48.1676102  45.2014017
  81.3231468  47.0676279  44.7817516  67.0875072  42.2299480  43.7254381
  66.3549995  42.8090334  43.9359760  66.9193172  41.4364910  44.2337465
  21.8880343  17.4127960  60.4884863  22.7172685  17.3452520  60.0151587
  21.5053868  16.5375376  60.4273748  73.3650446  39.3084860  46.1054564
  73.1031752  39.2885518  47.0259237  74.3218040  39.2905974  46.1281919
  59.1129160  30.0845551  58.5952997  59.2748737  29.4703841  59.3113995
  59.2650127  29.5721221  57.8012562  27.8814054  30.5617452  57.2626114
  27.6533961  31.4765048  57.0969057  28.6067748  30.3834915  56.6640329
  39.7967076   2.7076557  51.3458061  39.2228341   1.9998357  51.6388798
  39.4704318   3.4842905  51.8003511  27.1398648  76.1494482  18.2566726
  27.9546364  76.1169113  18.7579894  26.7080887  75.3166504  18.4470594
  59.1008377  19.4449592  55.0924301  58.1528950  19.4300568  54.9604464
  59.2134476  19.7767711  55.9831905  50.0751972  21.9672418  57.3893976
  49.3225765  21.5794683  56.9428253  50.6018829  21.2174392  57.6662159
  39.5354915   9.0745729  11.8467033  39.7107506   8.1665856  12.0938361
  38.9464235   9.3987876  12.5279629  70.8059645   3.4427831  50.1267290
  70.2070332   4.1827410  50.0268459  70.9256887   3.1098095  49.2373323
  20.9108974   3.7567380  45.9386587  20.2104427   4.0013969  46.5434122
  21.7177822   3.9539307  46.4143610  65.1624727  18.4404016  44.2100382
  65.1520109  19.1717315  44.8275185  64.5048094  18.6713946  43.5540247
  76.0751009  24.1715240  58.8232946  75.1309776  24.2792273  58.7081385
  76.1923599  24.0819883  59.7690582   3.2357170   9.9702638  25.2820158
   4.1679718  10.1612020  25.1787066   3.0044700   9.4738495  24.4969487
  76.1651993  35.2441859  42.5839376  76.3382149  34.8257542  41.7406034
  75.2105331  35.2873802  42.6385021  66.2326145  33.7095523  58.0273867
  66.4241028  33.9445615  58.9353132  65.3727436  33.2906699  58.0646515
   0.7872059   7.3966324  51.7781258   0.1357605   8.0779380  51.9444704
   1.4143516   7.8054291  51.1816359  65.1570320  41.4597750  38.1904507
  65.4673910  41.6510820  37.3054028  65.9377146  41.1654234  38.6596251
  80.2653448  45.2688356  29.2894454  80.0022356  44.3521144  29.2080302
  80.5077926  45.5282815  28.4005446  77.5774908   8.0066788  52.1397877
  77.6491213   7.3009819  51.4970636  78.4664536   8.3536315  52.2146130
  41.6398096   1.1683082  62.3945904  41.7963696   1.4715284  63.2888937
  41.5953684   0.2150574  62.4692202  82.6355267   9.5193249  46.8469524
  83.4900188   9.1782808  47.1110725  82.0738029   8.7458551  46.7975044
  39.0112910  12.7831430   4.7936053  39.5099149  13.2143564   5.4876227
  38.5711274  12.0549173   5.2319760  22.4899157  76.4626695  54.2793989
  22.3570736  77.0461021  55.0265217  23.0579050  76.9564343  53.6879492
  26.6854866  75.9290791  59.1328239  26.6629465  76.5917308  58.4424543
  27.1107872  76.3661916  59.8705816  38.7944889  27.3996997  68.8164759
  39.5431042  27.9952335  68.8503170  38.3962798  27.5638795  67.9616594
  38.3141160  32.7296662  55.0202179  37.7513552  33.4739852  54.8068523
  38.9187121  32.6668143  54.2807961   5.0614923  49.7074135   0.3521962
   5.7961648  49.1620530   0.0710101   4.3716472  49.0828635   0.5764384
  69.7584009  32.4565697  70.5104208  69.4931984  33.1520891  69.9086285
  70.6386805  32.2140408  70.2231503  51.4146948  29.4287372  64.4770098
  50.6171465  29.9425721  64.6039820  51.1021614  28.5427356  64.2938232
  58.9153433  23.5426188  59.2290592  58.3227253  22.7983212  59.1239071
  58.4044361  24.2983842  58.9391947  81.4778797  76.3353326  13.8174147
  81.2613765  77.1994855  13.4672732  80.7185356  76.0948755  14.3482680
  53.3295918   8.0772680  46.1128426  52.4883175   8.4582907  46.3644505
  53.9019346   8.2448560  46.8615580  49.5086656  14.8390598  28.4886069
  49.4171748  15.7263727  28.8357920  49.5946727  14.9595708  27.5429339
   5.3304523  65.3681399  26.0328478   6.1538690  65.2912928  25.5508608
   5.0854963  66.2891127  25.9431929  12.7325624  69.8223688  33.7953562
  13.6447900  70.0737502  33.6508555  12.2281021  70.4301955  33.2547087
  50.3605843  34.4522953  57.4347687  51.2363243  34.8226237  57.5450897
  50.5121565  33.5187721  57.2871399  21.5711172  57.2394974  69.5391369
  21.5382965  58.1614287  69.7944736  20.6887349  56.9114358  69.7123528
  50.7396636  12.4880523   3.4980387  51.0984454  13.3142013   3.8220448
  51.4409671  11.8515462   3.6368317  67.8592626  63.3989717   1.6581387
  66.9340245  63.4595086   1.8958373  67.8652255  63.4549715   0.7025952
  10.6444305  65.2647974   6.4661355   9.7786087  64.8650457   6.5485091
  10.4798215  66.2061383   6.5210480  71.5018577  66.1935122  59.8479414
  71.0021824  66.3413543  59.0450096  71.6555316  65.2488632  59.8639011
   3.6221784  19.2428233  21.5338416   4.5384878  19.1230823  21.2843127
   3.3184045  19.9686863  20.9887976  70.9302044  45.3619909  48.0372429
  70.8139563  46.3015461  48.1785250  70.6777382  45.2240229  47.1243048
  28.6754346  29.6595645  59.9623156  28.6939335  29.9556589  59.0522480
  27.7468777  29.5244074  60.1513815  48.4008694  31.8590927  49.5204163
  48.3663416  32.7355003  49.1370773  48.1341600  31.9852853  50.4310083
  80.2496139  73.8442590  24.2315859  80.4020349  73.7276484  25.1693434
  80.2804224  72.9577591  23.8718600  75.8307791  17.0156586  66.0127974
  75.8810711  16.5063870  65.2038813  75.1373720  16.5927708  66.5193367
  83.8589708  62.8031661   1.4907069  83.5680000  63.7146856   1.5171856
  84.4989626  62.7353646   2.1992583  85.1522056  67.4499013   9.1823906
  84.5265190  66.8017937   8.8588090  85.6260387  66.9976975   9.8804087
  38.0689263   1.3403623  29.1888618  37.4156475   0.8785385  28.6633348
  38.8302994   0.7602412  29.1884518  62.1734428  36.2217689  39.3079448
  61.4054775  35.9970856  39.8332763  62.8427362  35.5946136  39.5817232
  43.5233029  62.8159101  49.0738249  43.2908209  62.1054382  48.4759855
  43.7930783  62.3732216  49.8784876  22.5876737  11.4485967  55.2209568
  21.8623281  11.5855050  54.6115637  23.3734226  11.5327919  54.6808290
  43.7372112   3.7987611  47.1209478  44.0610552   2.8989831  47.1628666
  44.4161129   4.3179828  47.5519085  67.5263357  27.7603507  50.1182842
  68.0149937  27.1123862  49.6107531  67.5137424  28.5397720  49.5627928
  39.4188261  21.3141704  60.3922796  39.5515203  20.5969405  59.7724390
  38.5908556  21.7125344  60.1239491  40.5093010  78.1968848  28.1526685
  41.2508305  77.7269972  28.5342050  40.0434311  77.5348509  27.6418757
  49.7072458   6.5388161  53.3488941  49.7196198   7.2907764  53.9410400
  48.9000463   6.6438031  52.8452682  85.1946479  67.0613737  51.9007683
  85.6818706  66.4602537  51.3372993  85.8476717  67.6964862  52.1947527
  46.7171431  29.4108772  32.6772976  47.2641754  29.5953059  33.4408259
  46.2011862  28.6457658  32.9315042  83.1973839  16.6037619  40.6107712
  83.7884045  15.9735382  40.1987696  83.5312653  16.6973948  41.5029526
  25.8782905  64.2329671  16.8475718  25.3069824  63.7152030  17.4148078
  25.3288024  64.9592258  16.5528864  59.2551994  62.6889324  42.3786592
  58.8617516  62.5569010  41.5161037  59.8216867  63.4526920  42.2691441
  48.5930920  29.2223692  30.4922414  47.8074360  29.1510391  31.0343575
  48.7884378  30.1592779  30.4757261  59.5992613   9.2427617  58.5832405
  58.9213848   8.7134796  59.0034485  59.1377640  10.0230432  58.2759809
  14.6080202  72.4084904   6.4179606  14.9828189  72.1177031   5.5865759
  13.7701028  71.9494726   6.4765210  40.7605505  33.6120963  45.0088072
  40.3255987  32.7678394  44.8893118  40.4777908  34.1354632  44.2588949
  57.5753657  57.1468999  14.9639220  57.3079363  56.5539791  15.6661696
  58.5276453  57.0580794  14.9250979  49.3326521  26.2074924  47.6396132
  49.4903421  26.6673994  46.8150806  48.5794210  26.6560960  48.0238295
  61.4441872  11.6523969  37.0953727  61.5399027  10.7693112  37.4520659
  60.5214357  11.8671501  37.2319293  61.3344955  29.9447656  54.3564463
  62.1283197  29.5006490  54.6545029  60.9213781  29.3215132  53.7588501
  68.9969913  59.4341828   4.8703427  68.8422839  60.3774645   4.8201556
  68.2712595  59.1001596   5.3975720  81.7395526  55.8901174  46.4482212
  82.1834475  55.3668649  47.1156025  82.4485117  56.2491472  45.9146452
  58.6464643  17.2219479  60.5105925  59.1950846  16.7762589  59.8651409
  58.5068369  18.0951393  60.1441622  17.3258394  70.6759526  25.7898898
  17.8003067  70.3543522  25.0232787  17.5282138  70.0436665  26.4794535
  67.9595629  43.1706576   1.5441079  67.8667156  43.3093509   2.4866480
  68.0546371  42.2228815   1.4497037  58.7866783  34.3831968  42.5207376
  58.6131287  33.8345432  41.7558241  59.5998955  34.0346193  42.8859758
  54.7552919  27.5520277  30.4908466  55.6768036  27.7638316  30.6398058
  54.7712231  26.6843724  30.0869226  65.4220152  60.3609180  57.9995060
  66.1858177  60.6628561  57.5079060  65.7806778  60.0439692  58.8284445
   9.4696148  64.9809105  50.5542517   8.9591750  65.7851739  50.6482840
   8.8171132  64.2806370  50.5636024  64.5575619  54.8761654  54.8760033
  64.1198111  54.0251446  54.8951960  64.1331959  55.3476763  54.1591835
  34.8635578   5.1274025  51.0872221  34.4756532   5.1113677  50.2122879
  34.4241405   4.4186044  51.5570593  77.7708387  44.1325474  62.0774126
  77.5182056  43.4139538  62.6570940  78.4453773  44.6066856  62.5636482
  75.2890197  53.4053709   2.2874541  75.4315178  52.5155248   1.9648070
  75.3084079  53.3204855   3.2406849  57.3535061  27.1929908  44.4201136
  57.3846149  26.3910246  44.9417591  56.4210320  27.3978519  44.3511724
  54.4856501  38.0303741  45.7322073  53.5977936  37.7237272  45.5480671
  54.6556520  38.6897612  45.0594950   6.6678955  15.4719055  66.2121677
   6.9976379  15.3973508  67.1076822   7.4055435  15.2073359  65.6625175
   3.0057853  40.3393758   2.9194016   2.6476091  40.4612876   2.0401568
   3.7440437  40.9470367   2.9636616  85.1500797  52.8231621  54.3019629
  84.4607925  53.4866858  54.2728662  84.6921825  52.0115566  54.5207310
  29.2751163  69.0224315   5.5649228  30.1119655  69.4707968   5.6869597
  29.5134300  68.1562068   5.2346320  33.7891620  61.6723706   0.4553217
  34.7161430  61.6824438   0.2169127  33.3363193  61.4348318  -0.3538423
   3.0807250  62.2720076   6.0805459   2.4084371  61.8060757   5.5833811
   2.6317304  63.0437638   6.4255566  39.4780183   8.6300761  55.8702803
  39.6957779   9.3802738  55.3170919  38.8486862   8.1264567  55.3540039
  85.7680217  12.2727205  22.1827788  85.6271831  12.3803117  23.1234355
  85.9992353  11.3496544  22.0792574  32.7966523  23.0150676  41.9940233
  33.6741376  22.6567650  41.8603325  32.9445720  23.9343500  42.2159958
  54.9273920   1.1624614  54.2280245  54.1610622   0.5909467  54.1795969
  55.1654196   1.3218360  53.3146954  76.3265640  74.1477025  63.0881453
  76.4068228  73.7461246  63.9533186  75.4128295  74.4284720  63.0382442
   5.2198165  47.4242445  29.2684264   4.9069160  47.7365579  28.4194369
   5.8329767  48.0987080  29.5605940   2.3938991  22.0702100  42.4981117
   2.8121521  22.8938007  42.2471237   1.4582588  22.2289276  42.3731709
   6.8214760   6.9422597   7.0737214   6.1331663   6.9309110   6.4086432
   6.7415652   7.8021974   7.4864621   5.3001072  10.3480089  62.8685379
   4.7232487  10.0612462  63.5765219   5.5191662  11.2531495  63.0898237
  69.2061567  19.3936765  61.9918776  69.8746490  19.9978435  62.3148918
  69.6654272  18.5599208  61.8911123  50.7462025  26.9521475  40.3724766
  51.4813519  27.1638441  39.7971773  50.0044107  27.4271846  39.9978876
  79.5827436  10.8925486  61.6394424  79.5114374  10.0546587  62.0967054
  80.4543781  10.8762884  61.2442017  20.2819246  29.6935059  22.9052920
  21.2342161  29.5976569  22.8915972  20.1359743  30.6391372  22.8786082
  62.8384066  33.9183021  40.5892944  63.4588718  34.4777751  41.0564661
  63.3655071  33.1809592  40.2815199  70.1022092  75.2182152   1.0393948
  70.6064026  75.4799701   1.8097872  69.7921840  74.3361260   1.2444110
  52.0709896   0.1535515  36.8389153  52.1752739   1.1019904  36.7626262
  52.9652882  -0.1874877  36.8266964  62.5450039  38.9749742  40.2013302
  62.2806215  38.1494331  39.7953558  62.3546219  39.6393371  39.5390534
  64.2325783  31.4397168  46.3492298  64.1756010  31.8886209  47.1927166
  63.3590412  31.5325260  45.9690285  66.4930964  54.7711325  13.9170384
  67.3630476  55.1557350  14.0242791  66.6589451  53.9011526  13.5539126
  53.0394492  17.0978994  13.1515402  53.1180987  17.6981849  12.4101252
  53.7334380  17.3678894  13.7529749  18.2289205  10.7429618   8.6307091
  17.5701175  11.0953779   8.0323643  18.9887462  11.3130922   8.5130639
   9.3653190  19.3433511  69.7467947   8.4451067  19.6066642  69.7571230
   9.6481347  19.4964123  68.8452291  68.3372307  18.9268458  24.2364502
  67.5474787  18.8128936  23.7077379  68.8748026  19.5398438  23.7349677
  16.8408952   0.6093092  16.6957182  17.5692163   0.8911628  16.1422438
  16.6697869  -0.2928334  16.4253707  61.0138845  39.7549772  47.9044342
  60.4674673  39.9080181  47.1335602  60.3903818  39.6523881  48.6234283
  16.5041169  66.5713961  44.3400383  16.0921057  67.4216778  44.1867399
  16.3734063  66.4067943  45.2738762  64.8081676  60.0716652   0.3812117
  63.9414136  60.4684903   0.2945942  64.8459140  59.4229616  -0.3216319
  75.2578211  33.2185817  69.2447138  74.3257284  33.1714630  69.0320635
  75.5887318  33.9418316  68.7121391  71.4366484  16.4999938  46.5402079
  72.2833967  16.1797655  46.2292337  70.8760834  15.7241702  46.5500021
  54.7446060  17.1526539  58.6370802  54.6340609  16.4423394  59.2691135
  53.8594866  17.3297811  58.3186007  67.9867792  18.8462508  34.6843719
  67.7534962  19.5016897  34.0269423  68.8850451  18.5975671  34.4664240
  79.3229675  19.1062438  69.2506313  79.7106695  18.8161886  68.4249306
  80.0544357  19.1170573  69.8679447  83.3194868  65.4804565   8.4614844
  83.6164037  64.9652507   7.7113957  82.6419107  64.9412014   8.8693089
  59.3887464  62.9550411   1.1292977  59.6758381  62.4385740   1.8823428
  60.1961295  63.1605412   0.6579871  62.7704525  35.2334332  47.1477556
  61.9093513  35.5404115  47.4314928  62.7623367  35.3427505  46.1968517
  33.5403484  47.0823927  25.9709639  33.8001674  47.8127612  26.5324683
  33.0110782  47.4857469  25.2829165  31.6220937  18.3683271   4.7247595
  32.4617944  18.7553567   4.9724383  31.6797004  17.4604387   5.0225205
  39.7456956  25.0468683  61.6630936  38.8943768  25.3653526  61.3630009
  39.5361829  24.4155002  62.3513603  12.6067871  27.6108505  20.4735846
  12.8325265  26.6992559  20.2884669  11.8962043  27.5566115  21.1126132
  50.1153708  27.6088738  45.3268242  49.2625475  27.4660873  44.9162865
  50.0869799  28.5168672  45.6284428  57.2671175  13.8727093  63.0414057
  58.1128025  14.2405581  63.2977867  57.2942829  12.9686403  63.3546972
  43.5665798   9.4664997  28.3802629  43.6025476  10.2645671  28.9075446
  42.8925753   9.6432173  27.7239704  79.6046209  24.4287419  11.2857616
  79.3293381  24.2916131  10.3793144  80.5506516  24.2834663  11.2733567
  75.1539516  41.5014887  35.4599595  74.1987848  41.5258789  35.5173302
  75.4342604  41.1211061  36.2924051  57.3849249  31.4783859  51.6075087
  56.6958570  31.4936876  52.2717285  58.0571842  32.0696807  51.9461346
  65.2776861  51.4745903  67.4635839  64.9126768  51.9821310  66.7387390
  65.0709248  50.5653477  67.2473335  65.7782364  16.4797711  42.7789402
  65.8952141  15.6636953  43.2653236  65.3656626  17.0747340  43.4050655
  59.0790033   2.1732922  49.6522713  58.9108849   2.2134990  50.5937338
  59.4157553   3.0417523  49.4318008  15.2905267  78.6327388  30.4034228
  16.1135763  78.5204078  29.9278063  14.7346061  79.1323354  29.8054308
  64.0558815  25.9934497  68.2935810  64.7028399  26.1440921  68.9827681
  63.8936234  25.0504541  68.3193636   1.1762955  52.2576189  66.7358780
   0.2297737  52.2028017  66.8674660   1.5488483  51.7691040  67.4699020
  38.5918736  21.8593001  43.4542084  38.0474544  21.8815088  44.2411947
  39.4903135  21.8778920  43.7838888  57.8647661  41.4988041  48.0248165
  57.7144861  41.2030172  47.1269560  57.6165533  40.7508373  48.5681105
  63.2134914  76.6012001  56.5767288  63.4174109  77.1085453  57.3623848
  63.6044741  77.1014404  55.8604050  60.4918337   8.8967717  46.2830877
  60.8660841   9.1071153  45.4275656  61.2045050   8.4687889  46.7575979
  70.0182009  40.0586367  56.6787672  69.7842646  40.6608963  55.9725142
  69.5732832  40.4097176  57.4501419  63.9161889  40.7276789   4.3206019
  63.0633656  40.2933014   4.3051285  64.0664903  40.9927052   3.4131856
  78.6282436  55.5451121   6.4476723  79.0480987  56.2859370   6.8848605
  78.1735269  55.9342064   5.7006306  12.6659149  61.4561798   0.5308814
  13.2198280  61.7743232  -0.1819950  12.6821178  60.5034520   0.4398865
   7.7470344  59.2870690  16.9228262   7.1987623  59.0391578  17.6672453
   8.4877675  58.6818864  16.9588656  76.9875042  65.2745892  10.7104964
  76.8923608  64.5797326  11.3619227  77.0330421  64.8132111   9.8730654
  10.8285459  72.1150614  70.4564476  11.6152962  71.7672170  70.8762741
  10.8546146  71.7604775  69.5677280  54.8636150  11.0944557  36.4649463
  54.8661089  10.9079397  37.4037957  53.9619637  10.9279966  36.1900783
  16.3246188   4.6788044   9.9382968  16.0097919   5.5598516  10.1404566
  15.8212171   4.4154758   9.1679186  70.6853533  11.0280132  42.7287531
  70.6939936  11.9201171  43.0756092  69.7699881  10.7553399  42.7918959
  13.4026950  58.7225224   0.8715052  14.2928785  58.9319147   0.5887360
  13.5077661  57.9739429   1.4587206  21.2124000   4.0589971   5.6777615
  21.2204490   3.1718463   6.0371108  21.6366134   3.9753551   4.8237795
  16.5028437  54.6975357  64.7474194  15.7501419  54.7623045  65.3351927
  16.1481007  54.8971708  63.8810873  85.4373837   3.4824547  41.0975695
  85.0540066   3.3378431  40.2325010  85.2542973   4.4020632  41.2900019
  69.1533701  23.6209907  13.0717558  69.5370523  24.4037141  13.4671778
  69.9017898  23.0518522  12.8923602  26.5822969   1.7918510   9.9849886
  26.3419614   1.4398641  10.8420653  26.3964448   1.0797519   9.3729395
  19.0479811  64.0547569  29.4062686  19.4523915  64.8722214  29.6968532
  18.5699232  63.7383265  30.1727962  65.8125973  33.8226390  39.2772412
  65.9884310  33.7738204  40.2168846  65.9400320  32.9275513  38.9629030
  66.3045311  47.8030920  35.9000111  67.1670485  48.0131340  35.5419922
  66.1887503  46.8711662  35.7147026  50.8347130   1.9961457  56.1645794
  50.9914637   2.2618642  55.2584600  50.0087357   2.4193707  56.3988161
  29.5606017  17.7466345  42.6906252  28.9975953  18.0766296  41.9903660
  29.4155359  16.8004918  42.6887846  34.6943998  16.3855207  37.5817561
  35.1031995  17.1709037  37.2180390  33.9839292  16.1817443  36.9735312
  63.2591105  28.3513951  55.0920582  63.9243603  28.7528992  55.6510496
  63.7140465  27.6287580  54.6595573  72.0373678   6.0342097  53.5744858
  72.2853947   5.2551097  53.0767727  71.5178013   6.5545458  52.9616785
  60.3757429  61.5111732  67.7483225  60.4195738  62.1587420  68.4518576
  61.2625122  61.4878273  67.3886967  14.4383043  63.6198117   7.2122616
  14.5137590  63.2609608   6.3280863  14.4862693  64.5680596   7.0907921
  61.1212865  68.9895870  20.2409834  61.3398186  69.4236042  21.0656733
  60.6040708  68.2273461  20.5012030  31.0393914  70.7927091  61.9784927
  31.1983260  70.5583389  62.8928471  31.9036253  71.0208173  61.6360044
   0.4621299  64.3962664  39.7350121   0.2739485  65.2414138  39.3269086
   0.3385266  64.5497853  40.6717014  69.5487833  10.4376841  34.9425340
  68.8117218  10.0325572  35.3995228  70.3224468  10.0095773  35.3091502
  62.4255371  34.7196245  59.3283796  61.6689062  34.2142606  59.6256113
  62.7902603  35.0978088  60.1284981  77.6751804  33.0804157  25.7172418
  78.0692816  33.7079287  26.3231683  77.3335552  33.6188984  25.0034070
  36.8150377  21.8429804  70.9404659  37.0437503  22.1210527  70.0535583
  37.0820880  20.9246325  70.9798956   3.9640182  14.1706278   3.9014144
   3.2707351  13.5127165   3.8490624   4.7317594  13.6859562   4.2045588
   2.7741291   9.7912538  39.8081899   2.8249981   9.5525277  40.7337475
   1.9343235  10.2425873  39.7230577  23.3688873  40.8576403   7.6857228
  23.8549083  40.1302903   7.2971530  23.2394260  41.4722193   6.9633908
  55.3651055  77.4785669  63.2676268  54.8598011  76.8207032  62.7900171
  54.8391064  78.2759071  63.2058764  50.0735950   5.7768089  67.2901726
  50.2627468   5.6635624  66.3587093  49.1260910   5.6591481  67.3581982
  22.5156069   5.1078993  49.4558716  21.8758440   5.1271260  50.1676035
  23.1550074   5.7805294  49.6903276  58.1118488  21.8009257  32.4170327
  58.4519196  22.6396394  32.1053553  57.3079634  22.0273280  32.8847265
  61.1288691  31.4285731  40.2647543  61.7259264  32.1558499  40.4403305
  61.7037296  30.6885839  40.0693560  83.1609193  77.9502036  19.0035815
  83.9764444  78.4255292  18.8447852  82.6897947  77.9983069  18.1717391
  45.6700802  29.4307137  55.9406996  45.3934431  30.3343344  56.0929394
  45.2655697  29.1937661  55.1061583  64.6207563  60.2611305   7.5668091
  64.8206560  60.6204416   6.7024226  63.8150374  59.7607507   7.4377102
  72.0189857  -0.0846250  60.0521755  72.7307606   0.4867806  59.7638988
  71.2861872   0.1371280  59.4776678   0.6342079   9.8596650  64.6532154
   0.4643967   9.9112743  63.7126112   0.9207966   8.9575624  64.7957182
  53.1468487   6.5711612  63.0616522  52.8582096   5.6587899  63.0393267
  52.8274059   6.9029689  63.9007521  73.3615303  61.4441013  59.6185923
  74.2985773  61.6186237  59.5307493  73.2487965  60.5600166  59.2694283
  79.8211098  36.0225987  37.3780537  78.8677025  35.9682631  37.4435854
  79.9833775  36.8515038  36.9277000  14.5327411   8.9368457   3.8659520
  15.3356776   8.4285707   3.9807601  13.8805423   8.4770031   4.3945450
  54.1345278  64.1611292  14.2376895  54.1677014  64.9841120  14.7253699
  53.8662783  63.5094954  14.8854918  26.0235842  77.4197898  40.1477814
  25.3289851  76.7727650  40.0248003  25.6945237  78.2091109  39.7177553
  40.9312582  16.4566958  59.1390657  40.5167961  15.6281674  59.3798828
  41.5369368  16.2257123  58.4347677  65.7524776  41.9579840  48.3888388
  65.9407949  42.3419189  49.2452049  65.8995628  42.6720810  47.7686310
  69.6129227   9.2717195  26.4824033  69.4509411  10.2072752  26.6037631
  69.0359402   9.0203202  25.7612109  40.0705051  16.3179803  66.7173100
  40.8135319  16.7320359  66.2783384  40.3851461  15.4437947  66.9475937
  33.7676702   3.6178846  12.8733916  33.9746318   2.9663343  13.5433764
  33.9117274   3.1625099  12.0438571  32.7617224  78.1791038  50.5419540
  32.5329741  77.3336137  50.9280300  31.9230803  78.6275707  50.4333687
  45.0279856  43.9337730  48.5368729  44.5180082  43.7514973  49.3261337
  44.5089006  43.5601377  47.8247070  42.6848984  38.9411712  63.9304638
  41.8728018  38.8819528  63.4272528  42.4523067  38.6150074  64.7998047
  79.6635675  16.0263979  24.7046256  79.1230965  15.8053339  25.4630804
  79.0833282  16.5332544  24.1366053  35.4351951  77.2567034  49.5150948
  35.0920059  76.5946770  48.9149523  34.6801235  77.5155020  50.0434113
  49.4734812  39.1368699  53.8077593  49.7843361  39.7819734  53.1725883
  49.5404816  38.2987499  53.3502674  12.3782144   9.5490617   8.5934014
  12.5044475   8.8883991   9.2744488  11.8762145  10.2421588   9.0221686
   6.2733795  35.4732060  68.1127405   5.6903793  35.4672837  67.3535967
   6.4767505  36.3982272  68.2513428  16.7902702  22.8310909   1.7446990
  16.2181037  23.0522897   1.0099024  17.0507806  23.6772372   2.1085734
  55.8395052  62.5460386  66.5794134  56.7359495  62.3550081  66.3035107
  55.9293842  62.8775215  67.4728727  11.0134746  39.2994452  40.6234932
  10.8126880  39.6751380  39.7663069  11.1602356  40.0577259  41.1889172
  44.8242650   7.6386995  15.8311362  44.5659003   6.7339868  15.6551261
  45.6433473   7.7520055  15.3489489  76.6071129  16.0332584  42.3708200
  75.7795286  15.7468855  42.7572489  76.9569397  15.2499425  41.9462347
  77.5487852  27.8639698  42.9770565  76.7660952  27.3703289  43.2219124
  78.1121683  27.2213125  42.5459814  46.0441241  12.8515167   8.0191226
  46.3364396  11.9962473   7.7040190  45.3699193  12.6500673   8.6680407
  16.1549904  46.8019915  41.5183163  16.3681557  46.9312239  42.4424839
  15.5676128  47.5268650  41.3043594  72.0973253  36.0986805  33.3772779
  72.1193075  35.2457809  33.8112283  72.3463488  36.7213941  34.0602469
  18.3629888  78.9094044  16.6683955  18.8896602  78.1234695  16.5229411
  18.0668634  79.1643812  15.7945914  72.9701710  18.3838272  64.6150208
  73.1755066  19.1511667  65.1491165  73.4947634  17.6795757  64.9958897
  81.0939884  55.8016253  36.1602712  81.4177513  56.1590099  36.9871235
  81.8850994  55.5911684  35.6642008  74.4474832  60.4346051  30.2455802
  74.9341241  60.6592657  29.4525237  74.3588201  61.2639572  30.7152075
  81.3362026   7.2643828  42.4198818  82.1322250   7.3119181  42.9493332
  81.2396526   8.1432426  42.0531130  29.0133891  24.1728181  24.2061896
  29.4833312  24.9551887  23.9176077  29.2861734  23.4899158  23.5934348
  76.3195848  16.2242198   7.1205282  76.4461088  17.0065331   6.5836763
  77.0050335  16.2773502   7.7865416  67.4184799  70.7013512  62.8139305
  66.8944645  71.4016771  63.2027531  68.0136395  70.4310799  63.5131931
  70.0051022  54.0993881  47.2581959  70.0107288  54.8635721  47.8345823
  69.5960093  54.4112444  46.4509630  45.6692076  62.8196573  52.0366192
  46.1141872  63.3245516  52.7172804  45.5932617  63.4258842  51.2997627
  10.8376839  54.1060352  28.2281351  10.7755520  54.9858332  28.6000633
   9.9644996  53.7328529  28.3486223  11.9563049  33.4145697   2.4973006
  12.7212995  33.6655201   3.0150218  12.2290987  32.6216062   2.0357556
  61.0337019  56.5747023  53.4398508  61.6066027  56.2776184  52.7329159
  61.0588360  55.8657312  54.0824652  52.6013803  10.1090550  41.4274788
  52.6200056   9.6303797  40.5987692  51.8060207   9.8027694  41.8631649
  52.6165152  31.7719078  44.8804426  53.0262423  31.1515570  44.2775154
  53.3511829  32.2306108  45.2879858  76.9829941  68.7177849  47.1475935
  76.9897699  68.7024784  48.1046438  76.4462185  69.4781208  46.9239998
  53.5623202  22.3697156  15.4944033  53.9121280  22.8921194  16.2161822
  54.1710124  22.5220079  14.7715468  68.6960793  77.5735903  13.3464229
  67.8180027  77.7159548  12.9929411  68.7034893  76.6521406  13.6054826
  57.6617370   5.0844211  20.2999301  57.7742133   5.0759906  19.3493933
  58.2969127   5.7296342  20.6105513  20.7470450   4.4011659   2.6834626
  20.2547488   4.8628206   3.3622546  20.1377473   4.3360490   1.9481082
  64.3420076  40.9198523  69.5281458  64.7617483  41.0448360  68.6770105
  64.5267677  40.0084066  69.7547770  19.1602224  75.1961829   6.2274642
  18.7736600  76.0624840   6.0997052  19.8585218  75.1468612   5.5746407
  64.9119329  52.3964977  59.2596292  64.3727064  52.9507303  58.6954594
  65.1562071  51.6557312  58.7048101  78.3955288  73.1988239  39.3440127
  78.1275558  72.2799969  39.3573642  77.6414967  73.6733389  39.6940112
  73.9493036  15.3930688  42.6625729  73.1613064  15.8890879  42.8845263
  73.6205339  14.5828187  42.2731686  45.5365501  11.7728586  12.5900454
  46.1073957  11.6501112  11.8315596  45.9583364  11.2749261  13.2903285
  43.5595554  81.2338807   6.1331553  44.0707153  80.7739045   5.4672951
  42.7651161  81.5105368   5.6764836   9.4515468  49.7528362  44.3211555
   9.1812469  49.0757895  44.9414587   8.9481689  49.5663452  43.5286522
  51.7906666  70.7303667  53.4747696  52.5920677  71.2073660  53.6903238
  51.0877848  71.2615204  53.8490200  68.7756824  49.8994255  60.6184244
  68.6729717  49.3415689  61.3894463  67.9862261  50.4405975  60.6074572
  80.5461025  20.0600648  40.3288746  79.6081257  20.2501965  40.3123188
  80.8822727  20.4420733  39.5181394  54.5414829  76.6197395  31.1806250
  54.1630268  77.3183632  31.7144156  54.5688391  76.9827890  30.2953672
  51.2853561   7.4588174  24.6847910  51.5697513   7.0736904  25.5136675
  51.7795024   6.9827051  24.0174288  46.3156652  56.8636227  69.1390085
  46.7692757  57.6924229  69.2925167  46.5445566  56.3218594  69.8942137
  29.6861458  27.0231557  69.9120855  29.8267126  26.1958933  70.3726387
  30.5431509  27.2423100  69.5463753  49.6007729  33.9350867  60.1653528
  49.6983862  34.0930152  59.2263317  49.7750044  32.9997468  60.2703047
  52.3159885  21.8662786  48.8607407  52.0422554  22.1690607  49.7265530
  52.7584267  22.6208186  48.4719610  65.3884745  38.4657383  50.5605745
  65.7069111  38.8470435  51.3787651  66.0948896  38.6202765  49.9334145
  70.5624614  18.9028949  10.3142256  70.6727634  19.0237207  11.2573332
  71.4456878  18.7258119   9.9905200  28.0368274  74.3037702   8.2372565
  28.5143608  73.6183860   8.7046332  28.4748977  74.3646051   7.3883576
  59.5193434  26.2570906  63.7520218  59.0718317  25.9379148  64.5356607
  59.3387604  25.5936313  63.0861092  51.6740425  70.9920056  66.1089087
  52.5657280  70.8900137  65.7761574  51.6291626  71.9033063  66.3983011
  86.0986233  40.0166559  71.0179520  86.7618084  39.3409848  70.8769417
  85.7343102  40.1799488  70.1479864  60.5471992  23.9075637  34.4689584
  60.0100374  23.7276077  35.2405214  60.4456902  24.8477054  34.3204236
   8.0441143  61.5218973  44.3147421   7.8782226  62.2303104  43.6927557
   8.6421158  60.9335709  43.8537693  59.8345137  25.2540302  39.5130229
  59.9880171  24.3137670  39.4204378  59.8738289  25.5923581  38.6184716
  -0.0025612   4.5045512  45.4901505   0.5689376   5.2543967  45.3247452
   0.5877012   3.8169043  45.7982922  51.3362312  29.6569610  46.7355680
  52.1523666  29.1574287  46.7605257  51.5863228  30.5063462  46.3719320
  49.0894780  26.4217348   2.7104039  49.6764073  26.2989206   1.9643063
  48.3289228  25.8765096   2.5091357  41.9184971  52.0446205  34.6557331
  41.1274719  51.9267893  35.1816845  42.2835827  51.1637926  34.5715857
  54.9251747  59.6560240  42.5391960  55.2015162  60.5608892  42.6844263
  54.1317225  59.7300863  42.0089293  44.2185736  51.0142469  61.0645914
  44.3390942  51.8981457  60.7175541  44.7936630  50.9765196  61.8288422
  11.1557152  33.7592793  48.6468124  10.2485229  33.9718699  48.4276295
  11.4485313  33.1936932  47.9322481  24.8718780  58.1587138   7.6974577
  23.9715713  58.3596827   7.9529662  25.3936904  58.3720745   8.4710307
  38.9217353  72.6503658  62.2132397  39.2665911  71.9259834  61.6911554
  38.2086229  72.2620487  62.7201080   0.3589107  15.5708683  60.5394506
  -0.0940273  15.9167457  59.7703934   1.2753631  15.8132660  60.4068327
  13.8877529  56.9497098   7.8014845  14.6823066  56.4408197   7.9625601
  13.1854957  56.4257492   8.1868834  64.4665384  29.3720007  57.4849844
  63.9732122  30.1445460  57.7607346  64.3385124  28.7407517  58.1930542
  43.4645204  78.4607436  -0.0055366  43.3578650  78.7580253   0.8980555
  44.2134337  78.9579226  -0.3344350   5.3506996  61.7761421  70.4704046
   5.8873226  61.8794680  71.2562656   5.1916935  62.6708364  70.1696157
  78.9264154  36.6065073  54.7368574  79.3655777  36.5384626  55.5846453
  78.3429098  37.3596573  54.8291492  71.7637920  23.3782220  63.0343390
  71.8190336  23.4856486  63.9838886  72.3834801  24.0183663  62.6844263
  84.9481773  12.4657750  55.8767843  84.9056053  11.5208590  55.7299709
  84.5832062  12.8487825  55.0790787  80.5234051   0.6541664  15.8779061
  80.4164886   1.6053170  15.8885038  81.3609600   0.5121955  15.4367852
  69.4394445  71.7065334  41.0321283  69.8129463  71.2605524  40.2719831
  69.9273396  71.3576984  41.7781210  38.1534672  21.0667729  65.1185322
  37.6042199  20.6409717  64.4603157  37.5320625  21.4459944  65.7400465
   1.8272735  71.6699839  45.3643179   1.5299942  72.4875498  44.9650145
   2.1986725  71.9355059  46.2056208  73.1132793  25.3756070  56.0065413
  72.8985453  24.4567943  55.8455896  72.2857809  25.8403325  55.8820057
   5.9645416  34.6476245  55.7598400   6.8370869  34.2582297  55.7027435
   5.4218151  33.9629364  56.1508512  52.8901204  75.4786957  57.6912165
  53.1729325  75.8491690  56.8551540  53.4170826  75.9361745  58.3464003
  81.5234566  51.3562298  50.4978752  82.1187401  50.8718681  51.0699463
  81.0946083  51.9863558  51.0768938  67.2032062  38.0324130   0.2905936
  67.2261898  37.5097342   1.0921616  67.8611843  37.6302929  -0.2764993
  37.1445785  42.0684547  20.8663935  36.5170560  42.1550674  20.1487917
  37.2917924  42.9657478  21.1654467  15.2216953  72.5968315  11.6633410
  15.3547281  72.7312328  10.7250018  14.2847055  72.7411367  11.7954917
  49.3732963  14.7471304   4.4597859  49.0603290  15.6158943   4.2077250
  48.9845214  14.1561002   3.8149876   8.9122385  54.1559936   3.4174103
   9.4469017  53.6374642   2.8161711   8.0285018  53.8018538   3.3182664
  73.8399307  70.3460647   4.8573775  73.1681720  70.7895233   4.3393893
  74.5416395  70.9915020   4.9425263  65.5988359  71.4112949  55.3019476
  65.0316191  71.0892725  56.0025215  65.0060320  71.8666077  54.7040319
  54.7106838  24.6709132  58.3035612  54.8361397  25.1512456  57.4851656
  53.7638521  24.5441484  58.3641529  32.0621142  10.6334943  17.3060031
  32.3976932  10.1179285  18.0393595  32.8224740  10.7687015  16.7404933
  83.5202885  11.8314242  25.4675865  83.0584240  12.0623648  26.2735534
  84.3652821  12.2752070  25.5401969  74.1205025  50.0518179  53.2068682
  74.0813875  49.2242336  52.7274895  75.0109911  50.0842524  53.5564613
  73.7350512  36.4570498  48.6203671  73.8613224  35.9606671  49.4290018
  74.0304422  37.3421097  48.8340187  51.9764177  40.1054885   9.5882887
  51.2257115  40.6992355   9.5999331  52.6361720  40.5429718  10.1263995
  43.0970001  69.4129562  41.2254190  43.6840773  68.9157677  41.7949581
  42.2193146  69.1243887  41.4756918  61.4177656  35.1549435  65.6734991
  62.2973156  35.4670787  65.8861017  61.5633249  34.3755698  65.1372004
  61.1092410   7.3868484   8.4382815  61.6372237   7.7507085   7.7275986
  61.6619907   7.4719638   9.2151064  49.3994665  37.1775293  62.4249744
  50.1559019  36.6118670  62.2698593  49.2499971  37.6130652  61.5858078
  66.6686106  53.8241100  56.1421442  66.1922455  54.5144939  55.6809759
  66.0221052  53.4427023  56.7361069  71.0647726  34.4641018  55.5809402
  71.3349295  33.9558887  54.8161077  70.1107454  34.5064187  55.5155897
  33.7653392  65.1092006  19.7588534  33.6186641  65.6522085  18.9843459
  34.5476955  64.5991446  19.5491023  51.2881947   6.4151591  50.1978445
  50.7324123   6.5290052  49.4268847  51.0460234   7.1381229  50.7765532
  76.2783575  53.4218884  60.0751019  76.6038752  54.2902994  59.8381805
  76.7631388  52.8216219  59.5086193  68.7911558  31.5028977  39.8674178
  68.0559540  31.4057279  39.2622113  69.5646286  31.5204406  39.3038034
  77.0429325  46.2582636  37.2279763  76.5584946  46.3574648  38.0475569
  77.5618744  47.0595360  37.1579981  70.6198740  50.7465076  58.5944939
  71.5147018  50.7639360  58.9339161  70.0954676  50.4055595  59.3190527
  69.5087910  27.1282911  63.6663771  68.6160183  27.2853541  63.3589315
  69.5244122  26.1980700  63.8914919  79.0861273  50.3530788  53.3263159
  79.7818708  49.6969080  53.2861805  79.5476818  51.1916399  53.3299351
  61.1206532   1.3331339  39.2005920  61.7407751   1.8419811  39.7228551
  61.2997818   0.4227651  39.4359064  11.5898945  19.2009604  61.5841341
  11.7770817  18.2944548  61.8279362  11.0971691  19.5516634  62.3260689
  47.3294387  13.5793371  21.3087172  47.7002177  13.0796070  20.5813689
  47.4694667  14.4947023  21.0663886  48.6781440  47.7344245   5.5782885
  47.8442082  47.7808971   6.0458607  49.3326745  47.6178760   6.2669415
  23.2545161  63.2819366  64.5603418  24.0047646  63.2350922  63.9677525
  23.4739780  62.6812506  65.2725554  44.1272497  30.6801724  60.0128651
  45.0400162  30.9295106  60.1575089  43.7143564  31.4720535  59.6683693
  54.3994236  34.3027544  45.7147646  54.8190022  33.8506770  46.4467573
  55.0901508  34.8529553  45.3454351   7.8819364  66.2979986  17.9402918
   7.4135679  66.8792035  18.5395140   8.0041307  65.4892995  18.4375853
  66.0909986  48.9130640  38.3816051  67.0153570  49.0565920  38.5845494
  66.0757113  48.7469339  37.4390554  72.9049015  39.2200947  48.6767340
  72.7382278  40.0234461  49.1697645  72.4660873  38.5345507  49.1804218
  47.5901589   6.1373396  20.7304568  47.9019771   5.8089323  19.8871607
  48.3721528   6.4922447  21.1532588  17.2662890  76.9780254  35.9512806
  17.8367698  76.7428780  36.6830516  17.3178422  77.9326916  35.9045649
  57.7416849  20.2487588  30.2589226  58.3892059  20.4337859  29.5786953
  57.7854204  21.0055065  30.8434319  83.7910175  47.7766800  42.6826715
  84.2593288  48.4509134  42.1904087  84.0814400  47.8951931  43.5870171
  63.6260939  16.9138300  25.0592518  63.7244415  16.0095191  25.3572130
  63.4721756  17.4145722  25.8603740  50.0546455  52.4314165  45.4190111
  49.7049999  52.7294922  46.2587309  50.0944185  53.2225943  44.8817110
  73.6637878  31.8777084  55.8098745  73.9453459  32.7734017  55.9961224
  72.8237724  31.9788837  55.3622437  33.7852120  23.3560991  67.3008585
  34.3334961  24.0947485  67.5654602  33.4989405  23.5758018  66.4142847
   4.3091728  31.9365120  66.9510508   4.1232635  31.0195971  66.7487192
   4.3258240  31.9721317  67.9074430  32.5929364  76.0170252  62.4065161
  32.0693215  75.2159787  62.4260569  33.4931000  75.7120473  62.2928143
  41.2891851  23.5659904  24.1972346  41.7996059  23.4383792  24.9968714
  40.6935535  22.8171415  24.1712184  59.9653061  76.1572970  34.2163062
  60.4366024  75.5596806  33.6358118  59.1218670  76.2946589  33.7850642
  64.1117511  16.3578004   8.1118388  64.4230876  17.1932907   8.4600634
  64.8614249  15.7687110   8.1966157   6.8798496   9.2406821  39.6295381
   7.1438743   9.5775592  40.4857159   7.6606895   8.8000429  39.2943478
  78.5359478  64.8118210  37.1986389  79.2683315  64.2205811  37.0246196
  77.7596092  64.3124914  36.9452620  82.3051778  79.8307015   4.5626731
  82.5183765  80.0959112   3.6679978  83.1276552  79.9255730   5.0430436
  76.7546701  18.8663054  60.8413076  76.3406754  18.4548604  60.0826550
  76.2320232  19.6518183  61.0026932  64.6591759  59.4652605  68.2178164
  65.3095531  58.9117956  67.7854824  65.1197338  59.8306036  68.9732265
  45.4562426  56.2712908  47.2189379  45.6086874  56.5605497  48.1185579
  46.0148621  56.8382025  46.6871548  15.5068733  58.4393787  45.0950193
  15.5232288  58.4301853  46.0520363  16.3412811  58.0473852  44.8374414
  26.7208107  66.5234847  53.2494402  26.9038256  65.6345923  53.5537577
  25.7781275  66.6307254  53.3762407  73.2504988  51.7275429  60.0769329
  73.5625744  51.5594435  60.9660816  74.0458155  51.7539549  59.5449448
   3.3263733  18.6112225  24.2313075   3.7195446  17.7498591  24.3716788
   3.5696937  18.8423586  23.3348680  48.0014133  73.9125872  44.3130875
  48.4872055  74.7117186  44.1090488  47.4265623  74.1600657  45.0373316
  54.2865944  38.0057740  48.5622311  54.2733622  38.1901932  47.6230574
  54.3218422  37.0508695  48.6183357  68.4435987  35.4352379  47.1944475
  67.8367996  34.7167110  47.0162773  68.2851362  35.6608295  48.1110907
  50.9360139  59.8467614  32.9181284  50.7909314  59.9282624  33.8607497
  50.8302347  60.7366230  32.5816912   3.9474719  72.2762420  16.3393683
   3.6899894  72.6114632  17.1981806   4.8036951  71.8742396  16.4860339
  47.2280154  36.6027851   7.3519415  46.6151128  37.2765464   7.6462597
  48.0931935  36.9741220   7.5245947  85.0709192  65.0773980  19.0275569
  84.5284216  65.1916506  18.2472510  84.5541278  65.4599144  19.7366614
  66.7268753  32.8531885  22.0742321  66.8828344  32.9744267  21.1376357
  66.8834829  31.9209075  22.2244120  49.9124322   1.6359539   7.0367617
  49.1250215   2.0879383   6.7335696  50.5628619   1.8045444   6.3550419
  46.0718045   9.6506376  25.2714724  46.1359630  10.5867071  25.4609198
  45.5693421   9.6047849  24.4580454  18.1769516  14.6553636  68.0427074
  17.6794388  13.8427699  68.1343508  18.7628033  14.6641695  68.7996292
  79.4684172  44.9384165  37.6746511  78.6431217  45.4101849  37.5625849
  79.9998903  45.5130672  38.2255983   3.1423427  13.6212337  45.4001999
   3.0578186  13.2474029  46.2773180   3.8398125  14.2715240  45.4831839
   2.3032715  26.3369489  32.0815611   1.9434883  26.9309020  32.7403498
   2.8742077  26.8892145  31.5474486  72.6361036  32.6878262  68.7116861
  72.1853924  31.9682980  69.1536951  72.6932812  32.4091864  67.7977276
  18.5821583  47.5974798  51.3967848  18.0304481  47.6996803  52.1722841
  19.0822269  46.7982340  51.5622425  78.8478279  34.2898440  50.0893927
  79.6946621  34.3470716  49.6468735  78.9760828  34.7593355  50.9136248
  59.0006018  13.1640589  38.2515192  58.5454559  12.9891264  37.4278235
  59.3077469  14.0668249  38.1684089  80.3144264  37.4378824  50.6375647
  80.9966087  37.2936654  51.2933588  80.7470798  37.2685719  49.8006773
  69.1354084   6.4372361  63.8984108  69.0263367   5.9022164  63.1122255
  68.3685446   6.2346852  64.4342518   4.3594982  26.1126351  50.7346439
   5.0893070  25.6172633  50.3628635   4.6807434  27.0130610  50.7821655
  74.2496014  64.9452400  25.5813694  74.6042633  65.5765724  24.9553752
  74.9459171  64.2972612  25.6886053  72.0289890  76.5256883   9.5642085
  71.8749372  77.4479224   9.3593020  71.4908687  76.0471083   8.9336342
  60.2583742  14.3179655  27.8530359  59.9910688  13.6065638  28.4350061
  60.4069567  15.0619054  28.4367394  15.6953567  76.7793419  16.6038985
  16.1354297  77.3489882  15.9729762  15.8621829  75.8929707  16.2833590
  39.6849856   7.4163694   5.9357781  39.8871455   8.0405397   5.2388043
  38.9034734   7.7733440   6.3577265  55.7464743  43.6697674  55.7509327
  55.0509977  44.2968988  55.5528355  56.3274908  44.1379213  56.3505030
  81.9665718  42.6779985  55.1678181  81.2402344  42.3273611  54.6523380
  82.6065540  41.9667101  55.1946211   7.5736469  66.0580732  24.2663188
   7.1191019  66.8230154  23.9134879   7.8244966  65.5512144  23.4940524
  60.6966066  21.6816354  26.2219262  59.8713923  22.0368814  25.8916926
  60.8269215  20.8752036  25.7230091  24.2874195   6.9954538  49.9671984
  24.7212078   7.7602506  49.5888519  24.4468929   7.0706618  50.9080219
  39.2504447  79.5413663  10.2371306  39.6668666  79.5803930   9.3761439
  39.2242950  78.6081530  10.4484553  47.5177479  32.9534030  53.8424730
  46.7491579  32.8839016  53.2761908  47.1577787  33.0782628  54.7205734
  69.7941113  29.8537493  41.6924238  69.2976713  30.3937292  41.0774422
  70.3713131  30.4713106  42.1415234  28.8881159   3.7098181  60.8704996
  29.1178727   3.7573195  61.7985058  29.7295833   3.7230802  60.4144430
  81.4253521  29.6150422  63.4386253  81.7322159  28.8752985  62.9143667
  80.8935452  29.2162395  64.1273689  71.8724966  22.4235940  56.0007191
  71.0203075  21.9882822  55.9782171  71.9740534  22.7967024  55.1251030
  56.2974548  13.1095719  32.4629092  56.5468550  12.5521255  31.7258310
  56.5868044  13.9859641  32.2090459   1.0844367  54.4878079   3.8790221
   0.4339736  55.1896490   3.8556571   1.4018434  54.4253327   2.9781432
  52.4555969   7.8256321  59.1135120  52.9365587   8.3263129  59.7724724
  51.6974974   8.3712971  58.9043236  57.2998253  74.9990465  12.6673789
  57.9623167  75.6890466  12.7025504  57.4464003  74.4855573  13.4617800
  36.8018859  77.6074340  21.7961974  36.7450469  76.6524913  21.8291373
  36.0438388  77.8746964  21.2764163  69.7032112  15.4772903   1.1880011
  69.0528053  16.0863735   0.8383984  69.6420043  14.7093989   0.6198210
  48.6106968  22.4573374  66.3217402  48.2484722  21.6764665  66.7403936
  47.9845476  22.6704192  65.6298113  41.2881742   2.2919244   2.1067710
  41.9937692   2.9308815   2.0062489  41.5753875   1.7290611   2.8257412
  68.9083610  23.7198944   8.1776089  69.2399154  23.1432600   8.8659377
  69.3629775  23.4333248   7.3855013  81.4344589  60.0728454  14.4462676
  82.1130411  60.1317074  13.7737460  81.0452692  59.2076852  14.3187518
  60.1537418  19.1455173  66.6019106  59.6509457  18.8670170  67.3673344
  59.8513412  20.0369024  66.4280796  46.1459774  61.1212613   0.0710578
  45.6819576  60.6320621   0.7504696  47.0724243  60.9632780   0.2525992
  60.5733333   6.0990495  12.0822043  61.3920150   5.9991664  11.5964026
  59.9053226   5.7304353  11.5041728  80.6628418  53.3504963  44.9327421
  79.8513174  53.8508797  45.0180435  80.4329205  52.4692297  45.2272415
   8.4856178  22.8439569  68.1223392   9.1511490  22.5787759  68.7571478
   8.9439155  22.8470063  67.2819901  33.6551627  80.2533738  35.8790565
  33.1823405  80.8391188  35.2878070  34.2512234  79.7676612  35.3089476
  -0.1611374  17.9986858  62.2897768   0.0637104  17.5561666  61.4713335
   0.5077030  17.7090526  62.9102516   4.1662075  14.8311400  52.7049065
   3.7390568  14.1678071  53.2469082   4.9112179  15.1252627  53.2290173
  18.8438552  74.6627857  11.0539431  18.7826627  73.7644483  10.7291693
  19.0169042  75.1885368  10.2729983  85.5503941  39.4263005  65.3935051
  85.0810432  38.9497280  66.0782099  85.9587574  38.7424588  64.8626280
  84.7759056  45.8975267  68.7301111  84.6687222  45.3283024  67.9680586
  83.9960098  46.4524841  68.7261152  27.6502595  21.3513441  16.0805888
  26.8890700  21.1993475  16.6406912  28.1490455  20.5357332  16.1277957
  26.7716258  55.8794345  13.5723586  27.0313018  55.4818250  12.7412695
  27.5947231  56.0085978  14.0435977  40.9982491   6.5816700  56.6236353
  40.7790899   5.9327877  55.9549427  40.4897738   7.3557949  56.3819456
  12.5330688  50.5251837  40.3838968  11.9149067  49.8784399  40.0435591
  12.1835186  51.3672161  40.0922918  74.5084476  66.3960886  38.0255175
  74.6366835  65.4482126  38.0618548  75.3778601  66.7618275  38.1885910
  61.7718029  28.6999130  44.1590261  62.7140284  28.7227345  44.3261337
  61.4071989  28.2274151  44.9073839  25.9059661  80.0277736   9.2574019
  26.2666076  79.3443658   8.6924929  25.0864547  80.2816417   8.8329215
  73.0572414  39.4065619  38.2418275  73.1721354  38.4704900  38.4055376
  72.3958731  39.4495153  37.5511885  83.2147217  42.4660206  68.9197493
  83.4652615  42.8131485  69.7758770  82.3695087  42.0429134  69.0708685
  72.3779440  79.2204952  27.5723076  71.6129637  79.7942543  27.5294232
  72.7898788  79.3058777  26.7125106  44.2241988   6.8837184  18.5873980
  44.4518218   7.0741052  17.6773638  44.5442996   7.6408691  19.0777964
  51.9317660  31.7066783  20.3519148  51.3018642  31.5811128  19.6422000
  52.5667510  30.9997911  20.2364344   2.8130867  78.5022449  37.4628544
   1.8632175  78.5383606  37.3502421   3.1541302  78.3672523  36.5787172
  76.8599701  76.1118221  19.8268104  77.4236917  76.8759966  19.7064626
  76.7134428  76.0687160  20.7717466  31.4564548  11.2413806  29.2062659
  30.8240352  10.5315084  29.0950579  32.2635350  10.9065408  28.8154406
  54.4304180  69.6626043  69.7848892  54.4991779  69.2849255  68.9080429
  54.3675900  70.6059265  69.6351099  72.1218395  62.0914078  67.1083832
  71.8916321  61.1945915  67.3511839  73.0630493  62.0590878  66.9371653
  83.8403026   3.8891547  66.4014053  84.3724052   4.0869563  65.6307077
  82.9383556   4.0245669  66.1109114  36.2426124  31.1059064   0.6620450
  36.1501775  30.1667280   0.5019612  35.7625995  31.5195484  -0.0553899
  62.1910524  65.0089264  29.9973893  61.9966984  65.5879879  30.7343721
  61.9047689  64.1438532  30.2905202  85.3975964   7.1252185  54.1533995
  85.0173473   6.3403308  54.5478487  84.9482346   7.2125566  53.3127642
  85.7254696  48.9833784  51.9190121  85.7230854  48.8796854  52.8705788
  84.9328423  49.4859409  51.7308664   1.5970280  42.7801752  34.5995975
   2.1991112  42.8177691  33.8564205   0.7970669  43.1983709  34.2811537
  25.7205726  31.2854075  62.0426559  25.7945873  32.0159793  61.4286423
  26.2927582  31.5260315  62.7713108  17.8602459  46.7460346  39.3608761
  17.2080471  46.5043259  40.0184822  18.6011078  46.1650324  39.5334649
   1.8673660  10.2481496  54.2026377   1.1738445  10.2032983  53.5444164
   1.4391281  10.6124246  54.9773264   6.6867878  57.4686241  26.9103408
   6.3321068  56.5796185  26.9203568   6.6954662  57.7126169  25.9847999
  75.4497433  71.5575266  51.0750103  75.9331799  72.2272778  50.5913162
  75.0858212  70.9882402  50.3969955  58.9562130  55.7067251  11.8997443
  59.0810347  56.5210772  11.4124238  58.6926937  55.0687504  11.2365890
  32.3341498  12.9076023  10.1342387  32.2905097  13.8638038  10.1367278
  31.6861234  12.6399583   9.4825835  86.4596939  62.1864939  30.0606680
  85.5730534  61.8524075  30.1966286  86.8102551  62.3017740  30.9438705
  66.0710001  39.8347020  59.9528122  66.3468409  39.8900557  59.0378952
  66.7357159  40.3278494  60.4336357  74.0455715  20.5641215  57.1226263
  73.5373727  21.3584941  56.9584751  74.9565498  20.8345740  57.0077324
   1.9837612  40.4070403   0.4935879   1.1624473  40.7979197   0.7917399
   1.7855781  40.0707582  -0.3804069  13.8801147  42.5565195  38.6359239
  14.3994858  42.5709152  39.4398403  14.2785312  41.8663263  38.1057048
   6.0293471  34.7554988   6.7949576   5.7859599  35.3937931   7.4654574
   5.8354365  33.9060564   7.1912903  62.4146495   3.9887399  29.2645163
  63.2556281   3.5354776  29.3240637  62.4832568   4.5173807  28.4694953
  48.9176402  16.4392919   9.4951720  48.8315234  15.8186740   8.7715382
  49.6464715  17.0049591   9.2401166  67.0085430  27.8934002  52.7251434
  67.0329380  28.0005193  51.7742682  66.4638090  28.6174226  53.0338383
  39.9823230  79.8301198  17.3695750  40.8752483  80.1687671  17.3044772
  40.0855297  78.8785841  17.3570532  54.6321297  58.3671379  54.4026423
  55.4850197  58.3547068  53.9683008  54.4597387  59.2945099  54.5654249
  84.4116211  58.0898476  62.2816658  85.2567387  58.0585384  62.7300262
  84.6163082  57.8820133  61.3699961  68.9286518  49.6486568  40.4448271
  68.9696741  50.1599455  41.2529945  68.9600563  48.7373829  40.7360744
  34.0399410  33.7452865  62.0272636  33.4062149  33.6072421  61.3232994
  33.8511516  34.6263981  62.3501110  58.5008907  33.6827230  48.6920118
  57.8924799  33.7385631  49.4288588  58.7604761  34.5890665  48.5265255
  78.5377932  69.1224146  60.3518343  78.7970686  68.4814119  61.0137463
  78.8439083  68.7499809  59.5248985  79.8841000  53.7000322  56.4768505
  79.2475033  52.9883528  56.5438843  79.3542576  54.4971371  56.4876175
   3.5321667  45.2181864  55.0383329   4.4021656  44.9486351  55.3327370
   3.6762573  46.0584593  54.6031237  12.0222038  58.6355593   4.2477746
  11.5010684  57.9021718   3.9209742  11.4363807  59.3903257   4.1896767
  79.0078735  68.7572956  57.7294493  79.1818810  67.8166199  57.6965570
  79.5710325  69.1289234  57.0504951  72.6224804  48.5268784  23.8921785
  72.4303579  49.4610071  23.8101578  72.3545837  48.1526566  23.0528808
  58.4920249  18.2165165  12.1789641  58.0263553  18.4685916  11.3815684
  57.8574786  17.6972885  12.6729006  28.0933525  41.1516619  64.0379953
  28.1160976  41.0750675  63.0841351  27.7229454  42.0193195  64.1998434
  82.3125076  16.5409827  64.6568775  81.3903522  16.4913726  64.4050837
  82.7840900  16.6097081  63.8267517  73.3133636  17.1554775  18.1369490
  74.1073642  16.7211313  17.8252787  73.2181487  16.8596048  19.0422816
  85.3406048  70.5029678  58.1673765  85.6701756  70.9039736  58.9716148
  85.2873325  69.5689487  58.3698559  48.6262164  27.2312278  18.1750197
  48.0314384  26.6584272  18.6591334  49.4236503  26.7127485  18.0677123
  58.0030387  68.5186388  43.0814833  58.3938640  68.9969160  42.3502249
  57.8866809  67.6281049  42.7503581  58.1075988   4.1235132   7.9125781
  58.5005317   4.8416729   7.4165148  57.4287734   3.7760658   7.3340411
   3.1812622  48.6307335  47.4940872   2.5253918  47.9889917  47.7665520
   4.0177585  48.2409763  47.7482319  80.4740715  54.7558832  60.9998417
  80.9915447  54.1373539  61.5154600  80.7637024  55.6179094  61.2985992
  10.5753757  12.4343085  28.7045765  10.6233074  13.3897114  28.6708117
  11.4260151  12.1401608  28.3787966  63.3214140  19.4877207  60.9615517
  63.6920643  20.0902700  60.3167391  63.6888552  19.7755206  61.7972469
  61.1037111  56.5573263  32.0162749  60.2824020  56.1420631  31.7531466
  61.5923643  55.8629465  32.4581861  84.5956898  54.0751982  32.6130939
  85.3975964  54.5294666  32.3546267  84.8672867  53.1671286  32.7467895
  42.1113811  28.6888809   3.1638665  41.6613565  27.8518076   3.2779307
  42.4171147  28.6748142   2.2569174  57.9037619  38.1079459  69.5423889
  58.1035757  38.9751768  69.8948383  56.9814301  38.1581140  69.2913628
  70.1906633  15.8384585  26.7776537  70.7603168  15.4483354  27.4406242
  70.1379061  16.7626941  27.0210385   5.5810692  68.5996437  43.9021158
   4.6409656  68.7241697  44.0322065   5.7766201  69.0771055  43.0958748
  15.0401928  41.1375332  56.6644526  14.8286869  41.7853260  57.3366594
  15.9930183  41.0546875  56.7030430  72.2384963  59.2867107   2.3399634
  71.8513427  58.8138599   3.0766816  72.6250205  58.6028690   1.7929835
  26.2579967  41.9365263  61.3842726  26.5798714  42.8361130  61.4423609
  26.9240524  41.4763403  60.8735466  28.6006103  10.9976739   6.6952033
  28.9945874  10.1315517   6.5910525  27.7627072  10.9363908   6.2365193
   7.5034286  80.5437469  60.5381250   7.2319939  79.6368885  60.6801081
   7.5630619  80.9164333  61.4177752  76.1845160  35.5267239  32.2961140
  75.9836292  35.7229233  33.2112002  76.0790873  36.3633013  31.8430662
  37.8004050  65.1787090  53.2736397  38.3566523  65.2281904  52.4962234
  37.1943545  64.4611263  53.0892277  71.4997101  62.1280336  11.5897131
  72.1856356  62.7583551  11.8097961  71.9091082  61.5405989  10.9544611
  58.1615742   9.1527007  67.2570714  58.5698231   8.8162111  66.4593636
  58.8790043   9.5662282  67.7372032  56.5633235   8.6611337  14.9094100
  57.1694312   8.4565706  15.6214614  57.1271072   8.8101692  14.1503520
   5.6306125  44.1199446  50.3451824   5.0035431  44.8133373  50.5506754
   6.0836746  44.4312620  49.5615768  55.8561516  29.5527482  61.7801237
  56.4853334  29.1199780  62.3572445  55.0197172  29.1321206  61.9793415
  64.2279243  79.4156170  55.8642340  63.7404060  80.2024841  56.1079502
  63.7058449  79.0163279  55.1683664  56.4522552  22.5105715  55.7539558
  55.6726599  21.9562149  55.7879448  56.5424871  22.7405405  54.8291826
  49.1645527  57.0931244  57.8796673  49.9708033  57.3374987  58.3340645
  49.2642689  57.4596739  57.0010710  51.8197203  61.2563324  37.4262643
  52.5431633  61.5185833  37.9955482  52.2426748  60.9807634  36.6129994
  42.0431757  52.3514938  26.0484672  41.6934586  52.9914474  25.4284739
  42.4912453  51.7071772  25.5004501  43.0797658  36.5533037   8.7129063
  42.1720491  36.8006200   8.8893027  43.0143867  35.8359785   8.0825085
  10.2329876  20.1315475  48.3991766   9.7501423  20.2505875  47.5813007
  10.8215954  19.3970597  48.2250929  85.4627419  23.5264015   9.3489206
  85.6364632  24.1936207  10.0129008  84.8296165  22.9381418   9.7604173
  42.2587476  12.5923557  11.0878748  42.2617612  12.3233289  12.0064826
  41.3337598  12.5934286  10.8416457  40.1510320   3.2889003  11.5581030
  39.4115195   3.5721988  12.0957751  39.7476850   2.8908033  10.7866950
  21.8033840  65.9139776  62.0256853  21.6741707  65.0170851  62.3340988
  21.1778309  66.4334011  62.5307703  83.7556171  69.1609144  46.3209391
  83.5153580  68.2409573  46.2105322  84.6274567  69.2291403  45.9317493
  58.6668968  41.6150522  55.4223919  58.9680243  40.7445860  55.6828642
  58.3272743  42.0023537  56.2291670  46.3912528  80.2964451  23.5905356
  47.2368949  80.6035687  23.9173312  45.7456439  80.7604005  24.1236014
  74.0777254  59.1409349  15.3158760  73.8877058  58.3726597  14.7774768
  73.2185221  59.5147133  15.5115676   7.4967911  13.2886493  31.7603040
   7.1865894  14.1534424  31.4917135   8.0104973  13.4533882  32.5509953
  55.7177386   3.4619255   6.3785405  55.6559978   2.9962415   5.5445380
  55.1317725   2.9827089   6.9643921  70.6102037  38.4847903  23.5165024
  69.6775579  38.3631444  23.3387160  71.0097885  37.6468658  23.2831764
  12.4425365  67.8250933  54.1198492  12.0125820  68.6441851  53.8739634
  12.5081112  67.3338032  53.3009672  10.7560970  37.7598119  52.2943449
   9.8968365  37.9111743  52.6880407  10.6919052  36.8865514  51.9076586
  23.7573951   0.9791987  63.6836290  23.7342399   0.0633567  63.9609814
  24.6753162   1.2343257  63.7761021  76.4174018  11.9529361  20.1071543
  75.6000743  12.3039360  19.7535891  76.5199981  12.3901672  20.9524626
  76.7404175  57.6311779  51.1749220  75.9371853  57.8065634  51.6651154
  76.7244482  56.6869164  51.0189104  84.8954105  69.8993254  48.6774588
  85.7543087  70.3190947  48.7256718  84.6420574  69.9772072  47.7576876
  81.5237045  64.1625404  63.0045128  81.2010384  63.7613297  63.8114500
  80.7732487  64.6477365  62.6615524   5.3902866  80.4939175  58.4664392
   5.8230354  81.1089802  59.0586090   5.4689743  80.8978653  57.6022243
  58.6738586  55.2476645  31.4922547  58.1226778  55.5423069  32.2172475
  58.0662203  54.8232174  30.8865690  19.3679470  10.1587432  60.9839678
  19.8448318   9.9714511  60.1754284  20.0348609  10.1211970  61.6695690
  77.0451593  52.5549555  46.5299129  76.2449503  52.4333334  46.0189247
  76.8609381  52.1308184  47.3680115  13.5473778  75.8154106  51.0078144
  13.4783985  76.0448027  51.9345617  14.4877579  75.8201981  50.8292437
  63.7521029  70.8588791  57.1333122  63.7506294  70.4304886  57.9893017
  62.8257275  70.9654903  56.9172382  17.8200962  26.5528560  48.9767790
  18.2984211  25.9342384  48.4247351  17.3838093  26.0043406  49.6287155
  61.2460551  10.5843515   4.1700215  60.9865985  10.5705614   3.2487578
  61.7574821   9.7837085   4.2868228  40.7083750  72.6092625  65.1730156
  40.5284119  73.1887436  64.4327116  41.2256813  71.8961430  64.7987413
  48.4179068  59.4654751  47.8649807  49.3129396  59.8044538  47.8802681
  48.0137110  59.8904896  47.1085262   1.2618877  26.6852975  45.4750109
   1.9062664  26.6805077  44.7672081   1.7280437  27.0631957  46.2207508
  78.9678717  59.5898533  69.2571306  78.4803915  58.8643026  69.6472216
  79.7714233  59.6440744  69.7744322  55.9460578  42.4692840   7.9283518
  55.0790916  42.0789356   8.0389876  56.4587054  42.1253414   8.6598773
  76.7647314  22.9051852  70.3928804  77.0049238  23.1858301  69.5098305
  75.8158827  22.7845192  70.3560638   6.5447666  67.2815657  28.4999466
   7.0665504  66.4844990  28.4068823   6.8053581  67.6407671  29.3480587
  37.2099632  18.1128447  52.0815706  37.2161048  17.3884719  51.4558887
  36.6833156  18.7907069  51.6580391  60.3410912  21.8525004  65.9130812
  60.4997587  22.5924778  66.4991617  61.0680723  21.8795085  65.2909899
  14.4134476  48.5073757  60.3779411  14.3900825  48.9344978  59.5216370
  15.3434707  48.3522034  60.5428934  61.9934368  24.9997067  41.5106726
  61.6428709  24.9271393  40.6229401  62.9218197  24.7850323  41.4198589
  57.2608218   5.6943197  11.7912192  57.6423202   4.8165674  11.8069548
  56.3156447   5.5451555  11.8160624  36.1740766  30.7822055  13.2664580
  35.8053002  30.4498357  12.4480624  36.4743981  31.6655368  13.0525202
  48.0334568  44.4047117  61.3962030  48.5656738  43.6331081  61.2022924
  48.0580473  44.9212265  60.5906963  12.9005187  75.3702046  27.5175376
  12.8785222  74.5195057  27.9557795  12.4794954  75.9685518  28.1347460
   8.0124428  26.1718512  18.7316966   7.9379131  25.2622819  19.0204215
   7.2596313  26.3025713  18.1551361  25.3083565  46.5193653  36.7790294
  25.3261425  47.4338245  36.4967442  26.2200596  46.2333727  36.7221522
  69.8023462  59.1444778  62.7222729  70.5113268  59.7632647  62.5471258
  70.1417398  58.3006620  62.4239111  69.4411039  47.1800423  41.1631632
  70.1701117  47.2010565  41.7831135  69.6838331  46.5036488  40.5308628
  14.6828129  69.1647339  54.9820948  15.3999187  68.8504648  55.5327511
  13.9629032  68.5587454  55.1574278  36.8581891  64.0110922  38.2240415
  36.6746211  64.4379473  39.0608954  37.0490718  64.7321606  37.6241589
  74.2369113  27.6087780   6.3424582  74.2980609  26.9700927   5.6321234
  74.7611747  27.2319717   7.0491356  34.7720005   0.0518960  55.6028938
  35.5040600   0.0813767  54.9869013  33.9950420   0.1753631  55.0576162
  18.1871257  10.1841039   3.5038895  18.2997785   9.8646564   4.3991513
  17.2691093  10.4513759   3.4586949  50.3254938  45.6467438  57.2673082
  49.4605160  45.5957079  57.6740551  50.6058645  44.7351885  57.1855116
  72.2626495  38.3365345  65.6999636  71.8998528  38.0201221  66.5273046
  72.1718645  39.2882562  65.7470274  12.5091594  65.6952931  10.4485983
  12.3524087  65.0739242   9.7375769  13.2026857  65.2919151  10.9706587
  79.7204391   5.2632849  53.3575392  80.4509870   5.3939383  53.9620781
  79.0308372   4.8745673  53.8956642  49.6820784  35.0229526  66.1908245
  49.5027685  35.2285814  65.2733278  49.2360926  35.7126236  66.6824341
  18.7691873  71.2243535   6.7986292  18.5350984  71.4692666   5.9033961
  18.3398193  70.3799559   6.9359870  69.1345596  47.7369452  57.9381466
  69.5939302  48.2702637  57.2894669  69.1756535  48.2518482  58.7440109
   0.9509883   4.2233247   7.3552079   0.7948051   4.4896097   6.4491553
   0.1524839   4.4742126   7.8196187  74.4739676  77.9278135  47.7876472
  75.1178360  78.4403372  47.2987843  73.9484215  77.4974489  47.1132421
  47.3306030  14.8926013  48.3876610  48.1702369  14.5157950  48.6508322
  47.5589412  15.7342761  47.9930925  46.4570794  13.6148233  16.0510535
  45.6797061  14.0496130  16.4015860  47.0752320  14.3265600  15.8850665
  55.6205402  10.6948824   3.2700390  56.1533961  11.4867181   3.1972642
  55.6707797  10.4566211   4.1957469  64.8438358  64.3960571  60.6418419
  64.5290947  65.2992487  60.6042290  65.7595778  64.4724941  60.9098005
  52.1852120  33.8646625  66.5848758  52.1367558  33.8658784  67.5408479
  51.3585671  34.2561410  66.3026642  68.1134462  34.9030042  68.7997437
  67.4743509  34.1925502  68.8549423  67.6712704  35.5840826  68.2929468
  71.6008902  57.0130777  31.7325974  71.5597773  57.9685688  31.7723870
  72.1242857  56.7639399  32.4943185  30.7442317  10.4301185  23.7560649
  30.7868943  10.1349945  22.8464980  31.2209544  11.2601394  23.7611670
  85.0999737  41.8721771  62.5057125  85.4308796  42.3484945  63.2671928
  84.7827721  42.5554037  61.9151068  49.8689216  65.0456716  36.0185523
  48.9159435  64.9565079  36.0292048  50.0331062  65.9077622  36.4007468
  14.7131206  40.8174801  50.8941603  14.1963531  40.6471586  50.1066494
  14.1803791  40.4707909  51.6098547  11.3948339  15.2589267  28.8167310
  11.9381422  15.5861609  28.0998182  11.4108938  15.9597056  29.4685626
  67.2458506  66.1490202  69.7633600  68.1057739  66.5318108  69.5894957
  67.3109722  65.2533388  69.4320726  38.4443801  64.2151667   4.4823260
  39.0757793  63.5701277   4.8009057  38.3066314  63.9822819   3.5641617
  57.4321890  55.6390095  54.8027039  58.1446075  55.0246048  54.6260929
  56.8390942  55.5384684  54.0581512   4.1277935  79.4013309  39.9649930
   3.4961368  79.2090034  39.2719889   4.1187908  80.3556156  40.0391674
  82.7187824  40.7918024  42.8461599  83.0702591  41.4835405  43.4066916
  82.7470398  41.1612082  41.9635630  63.5805511  42.6748848  53.2606030
  63.5014582  42.8235483  52.3183346  63.3777189  43.5232449  53.6547852
  42.5525842   5.6853218  13.7448687  42.4923740   4.8299808  13.3194346
  43.3442817   5.6313819  14.2801566  31.2944652  33.4584689  28.4441662
  31.1590435  32.5121999  28.4938669  30.4120113  33.8283849  28.4698343
  45.7833896  10.3646345  30.0911898  45.7446656  10.9297390  30.8628077
  45.8540044  10.9707470  29.3537135  41.2639222  14.2161722   6.0359091
  41.6835389  14.3437881   5.1851029  41.8927178  13.6974592   6.5376896
  31.1347518  21.0836620   4.4110293  31.4175878  20.1864881   4.5879788
  31.9383082  21.5452308   4.1712517  37.9352841  30.7824487  23.3465380
  38.5328279  30.5182857  24.0461058  38.3698592  30.5011386  22.5413985
  72.7461815  44.3320799  32.8920054  72.7945137  43.3761072  32.8889012
  73.6595964  44.6181107  32.8821468  20.2069237  28.8909030  50.4616928
  20.2241470  29.1827655  49.5502377  21.0640861  28.4880996  50.6004429
  53.9424467   7.2175485  67.5857306  54.6408081   6.5722328  67.4757481
  53.8687420   7.3315674  68.5332537  11.0435058  56.0904646  24.6441531
  11.4575817  55.6640387  25.3944397  11.7487099  56.1867428  24.0041137
  65.3290224  25.1067972  61.7644882  65.5136871  25.9865594  62.0933533
  64.4333315  24.9273229  62.0504284  27.8876259  32.4055934  34.8192811
  27.6738693  33.1844950  35.3329444  28.5720493  31.9662261  35.3240108
  13.3216240  50.4121065  35.6056714  13.1162025  49.4772291  35.6000948
  14.2568161  50.4506493  35.8061075  56.1197314  22.2685403  34.8833556
  55.2319179  22.5591392  35.0921340  56.6339145  22.4934120  35.6587786
  72.2128677  51.3638878  35.8052301  72.0288658  52.2263288  36.1774778
  71.6115046  50.7737207  36.2594223  79.4026566  65.4773331  29.0433002
  79.8055077  64.6446323  28.7972307  78.4778070  65.3710318  28.8206220
  81.6644096  79.3490314  69.1493511  81.4005756  78.5046959  68.7836647
  82.3731232  79.6462440  68.5787153  53.0467544  10.8935041   4.1689391
  53.2571445  11.7366380   4.5702977  53.0042777  10.2821559   4.9042506
  45.3861904  12.2777307  43.8585281  45.9417868  11.4986229  43.8815737
  45.9019470  12.9528356  44.2995024  50.9610462  60.4210281  46.8324757
  51.4183044  60.8111191  47.5774431  51.1963463  60.9766102  46.0893822
  66.8474054  40.3227568  57.3710537  67.5211906  40.6368160  56.7680502
  66.4792871  39.5522285  56.9386148  35.5375276  23.8981075  13.2107920
  35.4224763  23.8320894  14.1587538  34.7191463  24.2823333  12.8963751
  14.5246466  78.9721868  53.0980873  14.4169577  78.8224182  54.0373468
  13.6794575  78.7314380  52.7187109   8.4300178   5.6798499  62.9765320
   9.2528575   5.2016299  62.8742266   8.6615842   6.4450972  63.5028410
  79.0779161   2.2945517  69.8112917  78.3408737   2.9005784  69.7356081
  79.1872215   2.1668731  70.7536221  66.3333831  13.7402267   3.4994931
  66.2119994  14.6097107   3.8809247  65.4445014  13.4163780   3.3537860
   4.0743297  -0.1872499  17.2693288   3.6692184   0.5719512  17.6885450
   4.0394824   0.0091307  16.3331378  53.5480833  35.8529568  69.9568558
  54.1618252  35.9329820  70.6870317  54.0040827  35.3029108  69.3198776
  62.2711277  49.9589491  47.1326208  62.8248501  50.6853771  47.4188471
  61.7759085  50.3120613  46.3934994  24.4667198  16.1525941  48.0631828
  24.4155647  15.3925967  48.6428547  25.3992798  16.3656914  48.0293608
  38.9654861  24.2702169  12.4886889  38.3445058  24.7428197  11.9343752
  39.3832479  23.6424799  11.8990702  39.4881004  28.4701770  43.1955338
  39.0973800  28.7656920  44.0178728  39.6715587  27.5415366  43.3376217
  15.0405210  81.4388873  31.0777564  15.9964221  81.3909938  31.0917563
  14.8440307  82.1144082  30.4286856   9.5944263  40.1753235  34.9979663
   9.4918491  39.2268085  34.9203086   8.8969185  40.4434824  35.5961347
  24.0768800   4.3429441  11.6128344  24.9681792   4.0334863  11.7742438
  23.7572227   3.7908859  10.8991904   1.8294575  54.2939186  49.9181414
   1.6410686  53.7732315  50.6989241   1.6936733  55.1998234  50.1958752
  54.7279105  28.5601158   1.0531420  54.6304736  27.6134939   1.1563201
  54.6983943  28.9027090   1.9464440  54.9849639  37.4618120   3.6349148
  54.7219882  38.0758924   4.3204636  54.9763522  36.6060752   4.0637202
  38.2829366  24.9176712  18.0048651  38.9502273  24.2482109  17.8539271
  37.8194842  24.6215553  18.7882895  31.8877643  25.6145804  46.4216328
  31.3866371  25.9083884  47.1824074  32.2245258  26.4208262  46.0307407
  21.2999966  79.7923517  42.6439047  21.9266750  79.1655207  42.2825336
  20.4558517  79.5228195  42.2819662  78.4013891  57.2614956  53.6727810
  77.8372669  56.8940592  52.9923534  78.5942936  58.1489992  53.3705282
  12.0894291  80.7999706  50.8271074  12.2843792  79.9328756  50.4716206
  12.8426411  81.3357067  50.5783463  61.0339103   8.5274047  33.0719180
  60.5443034   8.6171121  32.2543139  60.5703387   9.0906019  33.6917204
  18.1919616  63.8014652  16.2554068  18.4068960  63.4456898  15.3931708
  18.7676090  63.3314826  16.8587203  11.6971351  53.8118982  14.4242764
  10.9544517  54.1757250  13.9423156  11.5627815  54.1024876  15.3263521
  15.1763489  56.3470745  49.7924471  15.4794552  56.9490242  50.4721642
  15.9530117  56.1770105  49.2594290  75.0054584   0.5271406  16.5523619
  75.7408748   0.1889009  17.0632357  75.0901065   0.1008529  15.6995196
   2.9544824  36.8638747  59.7651482   3.7274593  37.4195521  59.8649454
   2.4781745  37.2462218  59.0281391  56.6154814  18.8516581  55.0400496
  56.6067457  18.0381846  54.5356560  55.7209635  18.9388883  55.3693819
  48.8045073  41.9716120  57.9932499  49.3546152  42.6540661  58.3777952
  49.2765379  41.6984367  57.2066116  17.3251050  59.7595586   3.2090945
  16.8927473  59.2522527   2.5221152  18.2351821  59.4636347   3.1885762
  39.3456149  72.5751019  21.6165471  39.8914289  72.8504896  20.8800173
  39.8051167  71.8212843  21.9864821  18.4260322  65.2257252  64.5785713
  19.1147186  65.7538462  64.1747904  18.6864235  64.3207741  64.4068480
   6.2829544  39.1767001  19.8389924   6.0247566  39.1687822  18.9173079
   7.1485664  39.5852947  19.8417342  76.3034821  48.7817907  23.4958506
  75.5603361  49.3041039  23.7977648  76.5937424  49.2186689  22.6951528
  70.7561207  62.7563238  15.7800567  70.8565712  63.6654043  16.0623980
  71.5747499  62.5544071  15.3269422  77.6918173  51.8388128  57.9528332
  77.8410196  51.0580349  57.4195862  78.3075809  51.7530394  58.6806440
  79.9514151  71.6141367  32.4415302  79.3850183  72.2055006  32.9372311
  79.5111418  71.5120554  31.5977478  34.3004554  18.1632941   1.5218487
  33.8538497  18.6989348   0.8662046  34.2831558  18.6949389   2.3176423
  48.4584937  15.8134861  16.0261149  48.1507287  15.7091636  15.1257605
  49.2077146  16.4050884  15.9560961  67.3633544   3.0610125  60.3425932
  66.7236058   2.4628680  59.9563646  68.1009928   2.5002711  60.5827761
  63.2619905  61.1722803  56.4063501  63.7931919  61.3981628  55.6427813
  63.8784170  60.7650518  57.0149660  19.4085647  37.9710197  22.5370812
  19.2034199  38.0312228  23.4700990  18.7496902  38.5193586  22.1111155
  85.9361593   1.9380515  67.9415607  86.6633836   2.1091883  67.3431587
  85.1907770   2.3922866  67.5487375  63.3164787  62.1970749  38.7470627
  64.1659975  62.2577763  38.3101797  63.4332228  61.5101719  39.4033933
  49.2624815  32.3416160  66.8754791  49.9947890  32.1090720  67.4463426
  49.2369326  33.2982467  66.8963381  16.2920176   1.6015119  37.8427310
  16.0635077   1.1283416  37.0426554  15.4919040   2.0698661  38.0808158
  54.4012634   7.2522776  57.0260906  54.3477289   6.3015502  56.9287109
  53.5457198   7.5061362  57.3722649  70.6351852  65.1586628  48.9447689
  70.5056381  66.1068773  48.9265060  70.4894066  64.8795557  48.0408430
  20.5939096  30.4642909  58.8855839  21.0701793  30.6952803  59.6831083
  20.8624261  31.1244338  58.2465649  82.1721943  79.7350022  38.3415580
  82.7057942  79.7072315  39.1357398  81.4653595  80.3461578  38.5491705
  25.6130069  64.8418476   5.4858441  25.2591556  65.6619193   5.1415963
  26.5592330  64.9832274   5.5159945  36.3330364  19.3752253  39.2666125
  35.5261493  19.7014618  38.8681984  36.0568905  18.6154604  39.7791862
  62.0852002  52.9786594  34.3940020  61.1488827  52.9274804  34.2018652
  62.4556740  53.4593279  33.6537743  73.7396461  81.2759276  61.1304379
  72.9091877  81.5608622  60.7491493  73.5940761  80.3590413  61.3635921
  23.2233103  77.5698019  44.8005867  23.8688668  77.9888947  45.3696585
  23.4069832  77.9222546  43.9297962  57.0802307  11.1445391  53.6265373
  57.7488518  10.6330788  54.0821505  56.5475416  10.4917550  53.1722784
  45.9340382   8.7964243  34.2727208  45.8113909   8.0524516  34.8623776
  45.3942442   8.5890073  33.5099411   1.4869541  34.5436056  14.9789137
   0.7421201  33.9947011  15.2241892   2.2337860  34.1491117  15.4292960
  28.5536720  25.2202797  39.7991180  27.7156021  25.2873278  40.2566957
  28.5959770  26.0099888  39.2598557  32.1541508  80.7167677  22.8858185
  32.6189621  79.8815776  22.9371810  32.3761710  81.1650194  23.7019110
  14.3512591  75.8328838  63.4311581  13.4383782  75.8301611  63.7190294
  14.4783743  74.9732752  63.0297279  69.9589891  79.4769160  60.3065109
  69.7082180  78.5885818  60.0531197  70.6663877  79.7071184  59.7041607
   5.5625645  37.8208264  70.0938366   6.4698283  38.1132271  70.0065994
   5.2113835  38.3418452  70.8159472  18.5817345  75.2680684  55.4116392
  18.5258730  75.8006383  54.6182442  19.5147618  75.0763608  55.5062199
  34.5060929  65.0107128  58.3642960  34.3714054  64.1354580  58.0009508
  34.6826275  65.5619616  57.6019382  45.5161103  68.7089224  48.8590765
  44.9394949  68.6121602  49.6169615  46.1786135  69.3396039  49.1411448
  43.1408262  11.0353506  21.4005899  43.6277676  11.8593144  21.3863134
  42.7455473  10.9756386  20.5308652  77.0861006   0.5664658  48.8996649
  77.0500088   1.3463992  48.3459234  77.0779753  -0.1656367  48.2830667
  66.8051138  17.6313286  58.9561372  67.4123540  18.3153706  59.2382281
  66.2354054  17.4901014  59.7122567  63.6584369  50.1170375   1.8349928
  63.3900229  49.4457872   1.2076134  64.1850630  50.7288058   1.3205666
  47.2803124  78.3807365  49.5352077  47.2630366  78.1906737  48.5972261
  46.8503769  77.6274846  49.9401760  53.1433344   2.0884259   0.8283317
  53.2671118   2.9728615   1.1728390  53.7879801   1.5570116   1.2955181
  84.5760590  65.7783992  69.6015453  85.0668222  65.7193858  70.4212427
  83.6623127  65.6586332  69.8603058   5.4471000  76.1926682  36.0036945
   5.1857098  75.6365837  36.7376423   4.6667608  76.2431211  35.4516435
  77.7751064  35.1823354  44.8394060  77.0203066  35.0501680  44.2657900
  77.4115419  35.5964613  45.6220627  38.6692715  20.1643252  56.3620186
  39.3810821  20.7396054  56.6423941  38.5534096  19.5541751  57.0903921
  39.8692942  19.0353131  58.8810968  40.4749823  18.3455539  59.1524029
  39.0003490  18.6537874  59.0060139   7.5508453   4.9858940  22.0628643
   8.0556633   5.0486815  21.2520337   7.9296448   4.2371696  22.5234699
  82.2761345  13.6894548  51.5414715  81.4544964  13.4364510  51.1205912
  82.8133202  14.0361392  50.8291006  40.0277901  32.7886271  50.2895355
  40.5275154  33.2181025  49.5952272  39.8633647  31.9066715  49.9558401
  62.3500299  30.7784677  58.7258863  61.4372969  30.4958892  58.6684561
  62.7188492  30.2540350  59.4366407  24.5976170  74.5055331  68.3556557
  24.0562113  74.7297550  67.5987959  24.0056809  74.0351177  68.9426374
  49.1279554  12.5473416  41.8340731  50.0753307  12.6625621  41.9077492
  48.8538408  13.2141054  41.2043715  50.7397461  12.0777333  36.3672113
  50.4518366  12.8517950  36.8511200  50.0920010  11.4064670  36.5818119
  43.3299502  60.6637413  15.2374673  43.3793696  61.6196329  15.2452040
  43.0070980  60.4335410  16.1086774  59.6157885  16.1679113  40.9851551
  60.3437948  15.7534063  40.5220938  58.9913797  16.3943398  40.2958965
  37.5637054  15.8232880  60.6821489  38.1656909  16.0856318  61.3785839
  36.7730951  16.3385916  60.8422375  58.8625240   6.8596333  28.7331152
  58.2312775   6.8974078  29.4516802  58.8498449   5.9450376  28.4510040
  62.1693850  11.7803633  54.2979383  61.7156601  12.1449840  55.0578165
  61.6401911  12.0542479  53.5488224  63.0171824  23.2078528  26.2325764
  62.2089815  22.7287340  26.0495830  62.7937937  24.1246152  26.0717225
  28.7036943   0.7195092  54.5892048  28.1674886   1.4866567  54.3887043
  28.2574439   0.3011756  55.3254700  29.0386699  80.7618320  64.9041545
  29.0789221  79.8054779  64.9031829  28.2814287  80.9691274  65.4517358
  71.1950684   9.6908164  66.2000322  71.2572002  10.6459141  66.1873484
  70.5409861   9.5022625  66.8729782  56.6830969   3.4718117  22.1648836
  57.1408844   3.8820571  21.4311528  55.7570601   3.5227561  21.9280529
  23.3665522  79.4073608  63.6834288  22.6898392  79.4979673  63.0125475
  23.3290108  78.4855450  63.9385319   0.6384327   3.8586167  64.6699858
   1.1601211   3.1456530  65.0384426   1.1721470   4.1998422  63.9523792
  69.6618605  14.8423159  13.2437491  69.0332985  14.5940506  12.5658846
  69.6236563  15.7984650  13.2672000  69.1094208  13.1889141  29.6295094
  68.4087372  13.4348941  29.0255499  68.6775064  13.1163418  30.4806352
  31.8703564  79.2231257  67.9088593  31.3862284  78.4341151  68.1524038
  32.6749810  79.1794516  68.4254885  16.8239548  31.4007306  42.4301481
  17.7764084  31.3061452  42.4191713  16.5422012  30.8986712  43.1948614
  38.3723601  81.2779822  42.1012878  39.1974028  81.3703994  42.5777292
  38.0969151  82.1771237  41.9226694  52.8142309  21.3128996  45.1789236
  52.5451994  21.1960530  46.0900784  52.2063065  20.7690239  44.6780682
  84.9855709   3.8257223  38.1729269  84.0475750   3.7016928  38.3178639
  85.1581573   3.3922803  37.3371172  26.1590481  19.5794535  38.5367393
  26.3424420  18.7770402  38.0481362  26.5938687  20.2695608  38.0358243
  65.1024914  19.2464232  26.1329508  64.7754145  19.5612216  25.2902436
  64.4107056  19.4680393  26.7562890  26.3954457  75.7753445  25.5064130
  26.3051327  75.3203059  26.3436794  25.5692395  76.2467534  25.3996730
   8.2729198  38.0438018  62.3115873   8.5540344  38.2803035  61.4276886
   8.0193474  37.1232748  62.2440147  11.8996479  22.2688103   5.3531617
  11.6138222  21.3770962   5.5516195  12.6888801  22.1550846   4.8236200
  72.6327085   1.5581848  30.8909106  71.8820572   2.1520796  30.8842587
  72.7254152   1.2996005  31.8078470  68.8872536  74.9065662  57.6463175
  68.8095578  73.9793117  57.8708076  69.3698414  74.9132527  56.8197060
  60.0180054  14.2478895  32.0447922  60.0094271  15.0531006  31.5273046
  59.4714165  14.4460332  32.8051949  78.0223846   8.4519476  42.8481150
  77.3095036   8.4319198  43.4865808  78.8147545   8.5465705  43.3767223
   4.8883106  12.3868215  60.5137205   5.4269745  11.7708445  61.0103512
   4.9821903  12.1069789  59.6031713  52.9602480   4.7487688  24.3595862
  52.9608965   3.8224745  24.1183186  53.3805132   4.7726503  25.2192616
  80.5734825  -0.0625015   3.6689791  81.3499737   0.0904526   3.1305516
  79.8374176   0.0833764   3.0747071  51.8098021  16.3598597  26.7041683
  51.5509272  15.4826295  26.4218831  52.4516344  16.6415620  26.0523081
  64.4417961  79.5973427  49.1118908  64.8884209  80.1923455  48.5096169
  63.9258965  80.1718708  49.6775675   8.5279640  81.4489205  67.5016260
   7.9103478  81.4887328  66.7714262   8.0321630  81.0432093  68.2128334
  70.6991720  16.2331319  19.5903516  70.7936382  15.6639910  20.3541493
  69.7636890  16.4326966  19.5545983  41.2783488  59.8000438  44.3616247
  41.0474594  60.3969915  45.0733662  41.9604357  60.2615173  43.8737392
  23.0165060  74.1560818  34.5281720  22.3448618  74.7718603  34.2350125
  22.6166209  73.2937909  34.4151258  53.6835527  48.1766272  55.5077648
  53.1900501  48.6219311  56.1965275  53.2549572  48.4442425  54.6947956
  67.9417324  30.2918243  58.1843662  67.0490742  30.4093218  58.5093212
  67.8718805  29.5852065  57.5424623  18.2798435  18.3926320  41.0647583
  19.0908672  18.7628901  40.7163429  18.4536983  17.4535835  41.1295271
   9.6288913  40.2739183  10.3005309   8.7326807  39.9653013  10.1671500
   9.8018878  40.1134931  11.2281985  78.5404587   2.7501583  58.8420773
  78.0505133   3.5376528  58.6053514  78.9662695   2.9728094  59.6699333
  18.6330559  27.9016590  32.5218725  18.0117466  27.2377896  32.2227216
  18.3085872  28.1622314  33.3838773  73.2745552  13.4227264  13.3276296
  73.7492466  12.6012051  13.4541392  72.9672194  13.6589837  14.2028213
  54.6014984  80.1985241  30.6719398  54.2303952  81.0448297  30.4223847
  54.9897488  79.8599815  29.8651671  44.1266354  76.7996953  30.9705400
  43.4822710  77.0019300  31.6488647  43.7720974  76.0301454  30.5252004
  28.1330260  55.4111655  67.9882526  28.7274893  55.5551202  68.7245417
  28.0520066  54.4592793  67.9284000  74.6397495   9.7148663  20.1682472
  73.6875629   9.7443211  20.2615643  74.9579763  10.4156244  20.7373714
  51.7688664  62.2169060  28.6894178  51.4874371  62.8317983  28.0119658
  52.7231797  62.2009630  28.6169243  45.5892992  31.5393949  51.8816042
  45.8651257  30.6403685  51.7029858  44.9330759  31.7264414  51.2103224
  60.3976345  28.2059383  23.3405304  61.1362219  28.3469534  23.9328408
  60.2611160  27.2585630  23.3492470   6.1083945  80.4056343  29.6873832
   5.2871259  80.8839573  29.5735502   6.6520174  80.9864118  30.2197409
  63.2638979  16.8150091  60.3055286  63.5340643  17.0598555  59.4204903
  63.0515909  17.6463830  60.7297659  72.5111246   9.7073400  46.8310118
  73.0986547   9.8967820  46.0994720  73.0840635   9.3599457  47.5145960
  54.3107796  12.9271317  61.5472651  55.2171183  13.0471623  61.8307686
  54.3382978  12.1600509  60.9753752  68.3747625  28.3426499  16.9025636
  67.9168797  27.5094819  16.7911625  68.4655190  28.4412169  17.8503394
  72.2445337  65.1262500  19.9696726  71.3975231  64.8211290  19.6445460
  72.0702497  65.4028346  20.8693118  67.3764753  35.4187322  49.9481440
  66.5494633  35.7698965  49.6180391  67.1638060  34.5285559  50.2284861
  50.3347492  19.6008217  54.4922543  50.7270050  20.4701591  54.4109011
  51.0036469  19.0764904  54.9325705  53.9613152  14.6066284  52.6287270
  53.7475586  15.4960763  52.3469067  54.8997593  14.5211542  52.4606705
  64.8592615  20.1842427  58.7579107  64.5935678  19.3344069  58.4066010
  65.8117723  20.1255488  58.8321066  54.6045528  14.1416950   7.8351922
  55.3276286  14.7040672   8.1129164  53.8211379  14.5724124   8.1772132
  47.0634597  76.7808797   1.9023652  46.2233108  76.5308930   1.5177912
  47.7160591  76.3335563   1.3636202  72.3424768  36.0978627  23.8286114
  73.2611084  36.0745907  24.0965891  71.8521881  36.0242462  24.6474075
  78.0598593  16.5023351  56.9261503  78.3830786  16.9077587  57.7307558
  77.6114082  17.2107852  56.4643860  61.7336702  37.4604297   8.4229040
  61.7733192  38.2756376   7.9228091  62.2426367  37.6394725   9.2135537
  37.6495894  75.0066609  30.8650613  37.1259936  75.5190671  31.4811134
  38.5102661  74.9412669  31.2788129  59.9967488  65.5981083  28.3863807
  60.8949192  65.9167416  28.4758520  59.4814976  66.1717458  28.9535522
   6.0901977  19.6455383  28.3050609   5.4076530  19.5722294  27.6379800
   6.5060474  20.4898214  28.1304669  25.7620152  57.8848083  30.6114507
  25.1084050  58.5510571  30.3989935  26.5871390  58.3670838  30.6644702
  29.0539750  74.4886018   5.6990200  28.4903010  74.8157788   4.9979818
  29.2218169  73.5757364   5.4650587   6.0798408  46.9198561  57.6051521
   6.8075134  47.1815109  58.1693077   6.3877537  46.1245680  57.1704817
  86.2870026   7.7555805  19.1738677  85.4807377   7.8317165  18.6636066
  86.4373398   6.8129379  19.2449796  81.3493061  26.8200779  43.6985064
  80.9308338  25.9938717  43.4566498  82.2588539  26.7190218  43.4178925
  31.9837912  63.7492175  21.3949370  32.2068985  63.9981706  20.4980087
  32.6683005  64.1486854  21.9316888  69.6578646  14.2240834  46.2236023
  70.4498291  13.6864853  46.2267399  68.9393568  13.5919487  46.2040472
  75.2817202   4.7255632  56.0131073  75.2407265   4.3198770  55.1470995
  75.1742935   3.9967909  56.6243219  78.6520290  15.9002447  44.8621655
  78.4512234  16.8337929  44.7958612  79.2429209  15.7296729  44.1286945
  67.6287468  73.8813425  10.4793859  67.4932583  74.2375166  11.3574600
  66.7940148  74.0218748  10.0324857  40.2078350  68.9549143  41.6760349
  39.6765955  69.4954200  41.0913420  39.8917206  69.1694565  42.5536871
   4.6788742   3.3768305  54.5892763   4.9229576   3.6525515  55.4728127
   4.7999431   4.1597378  54.0520334  59.8573208  26.4394760  36.9613576
  59.9837780  27.3254538  37.3008895  60.0013161  26.5214467  36.0186076
  46.2283564  14.9997914  50.6668043  46.2557745  15.9251428  50.9101248
  46.8272734  14.9297631  49.9234152  64.7559595  26.2535906  53.9635801
  65.0073147  25.4705501  54.4533730  65.5575275  26.5232372  53.5152340
  10.2965881   1.0190243  42.8706026  10.3917553   1.4034475  43.7420368
  10.0871898   0.0997534  43.0359125  27.4398136  15.6951988  66.2753296
  28.2666659  15.2243543  66.3795042  27.5938320  16.5442467  66.6896105
   1.5217068  20.9634876  55.8343267   1.5786316  20.3093266  55.1378632
   2.4221279  21.0632634  56.1433935  82.3024845  37.6100159  56.2677193
  81.5080643  37.2284794  56.6413021  82.5899792  38.2499313  56.9189358
  77.7686930  11.2017703  25.5392790  77.9369545  11.7021656  26.3377309
  78.4288692  10.5087101  25.5473685   8.5764553   2.5980294  28.5493135
   8.4542896   3.5469639  28.5781336   9.4263317   2.4532121  28.9652157
  40.4515934   9.4296932  64.6579170  40.3689194   9.4591707  63.7047482
  41.3901234   9.3243223  64.8137808  56.8390465  17.9530132  50.5645466
  57.4688196  17.2487211  50.7181501  56.6099262  17.8717375  49.6387339
  24.1076233  12.3468792  33.4960985  24.8781635  11.8978584  33.8437748
  23.3672954  11.9237530  33.9309716  75.1216364  17.6500905  58.2121611
  75.4089594  18.1511366  57.4488592  75.5659962  16.8066597  58.1261349
  29.5765471  14.1103327  66.3330364  29.4448042  13.3942163  66.9543695
  30.4444575  13.9495385  65.9627581  75.9184456  18.1981659  40.6008053
  75.9919786  17.9407763  39.6817946  76.2464619  17.4424481  41.0881710
  60.7964993  20.5134964  60.6962776  61.4686394  19.8345172  60.7550001
  60.3777313  20.5110455  61.5570116  70.0040436   0.8763288   7.9717213
  70.1651859   1.2542506   7.1071756  69.6999550  -0.0131874   7.7913851
   7.5939609  19.8247623  23.6268258   7.7771332  19.1740191  24.3044806
   7.1851589  19.3256533  22.9197192  39.3474221  24.9398685  55.4871559
  40.0571394  24.9048305  54.8458242  38.7137008  24.2921829  55.1787186
   8.0025436  16.6684747  20.1264620   7.9462387  16.0307491  19.4148660
   8.4678127  17.4128222  19.7447491  73.2580662  14.9000502  36.7318273
  72.4520254  14.4022298  36.5950394  73.3143950  15.0085175  37.6811934
  74.4067717  32.7528477  37.8751016  73.5513115  32.8310800  38.2973552
  74.6733809  31.8484139  38.0398679  68.3598042  22.3839068  26.2032557
  67.7304125  21.6634631  26.2357783  67.9069233  23.0760264  25.7214880
  83.8698618  51.7474224   6.2600417  84.5513336  51.0847987   6.3729901
  84.2222110  52.5285031   6.6866488  61.5500633  35.4649307  18.8648791
  61.5536086  36.3946258  19.0926642  62.4466578  35.2840539  18.5826869
  25.0470878  -0.0819420  41.2302589  25.1329471   0.3847753  42.0615435
  25.8283378   0.1647825  40.7352638  77.7184677  20.0761366  36.8191195
  77.1608305  20.8420825  36.6827273  77.6160526  19.5598888  36.0195994
  19.3721344   7.7251261  20.7186937  18.6912205   8.1725043  20.2162576
  20.1606323   8.2474732  20.5715108  55.7340097  15.8299339  30.9679484
  55.4275656  16.7001677  30.7129645  56.2360239  15.5221510  30.2133083
  70.0695992  14.8255563  52.0202351  69.2583466  15.1759315  51.6523552
  70.3180170  14.1196990  51.4233398  21.2948712  59.4523365  49.0039730
  21.9890221  59.9529559  49.4326544  21.5675028  58.5392172  49.0940571
  23.9387554  56.1732163   2.5144238  24.7061866  55.8135404   2.0695395
  24.2947715  56.6209139   3.2819218   1.8730213   1.2923588  53.2534456
   2.0116855   0.3951703  52.9500389   2.6688625   1.7578787  52.9962301
  85.7351190  67.0630140  33.5825849  86.3973171  67.7448232  33.4691811
  85.0831896  67.2474761  32.9064250  26.8865975  81.8735521  22.6725769
  27.5344380  81.2413952  22.3612666  26.1727246  81.8174392  22.0373869
   2.0463898  13.9417410  58.1603813   1.3090755  14.0537560  57.5603390
   1.8737461  13.1086922  58.5990810  51.4090546  80.7832344  52.6561546
  52.0854290  81.3381890  53.0444479  51.3056858  81.1190811  51.7657852
  60.3857088  28.0565429  52.7533531  60.7275772  27.2206879  53.0706930
  59.7171259  27.8141356  52.1126795   1.7722370   9.7060782  27.9093432
   2.3525287   9.1313595  28.4085417   1.9843246   9.5239514  26.9938755
  78.4538412  43.4382343  35.3901601  78.0568123  42.6664639  35.7938528
  78.9167690  43.8720560  36.1069083  12.4019283  22.2380294  35.3503890
  13.2083505  22.2174360  35.8656497  12.5046867  22.9959811  34.7749133
  68.8145924  11.9883907  50.0385618  67.8674841  11.9466579  49.9063635
  68.9255905  11.9532061  50.9886503  16.7424496  76.5653003  41.4801884
  17.0596512  76.2173648  42.3135900  15.7922705  76.4572860  41.5216494
  71.8273783  44.6237373  42.7002096  72.7271891  44.5116568  43.0068254
  71.8602514  44.3932390  41.7717600  85.1291466  28.4278727  45.2845097
  85.7694530  27.7163982  45.2916241  85.6480503  29.2154694  45.1212215
  52.8144081  73.4863389  34.9847007  51.9005402  73.7677402  34.9413323
  53.2422360  73.9500875  34.2648864   6.6327335   9.9662685  13.0634761
   5.7100632  10.1814783  12.9270935   6.6195442   9.2379707  13.6844754
  72.8893757  35.0196505  18.1183863  72.3641396  34.5104861  18.7357235
  73.5923100  35.3910923  18.6514401  84.2834282  16.1852694  43.2085371
  84.8974800  16.9081926  43.3371925  84.0018368  15.9499776  44.0926075
  42.3072918  75.0193376  65.9000158  42.0093878  74.2363782  65.4369211
  42.0428618  74.8753507  66.8086243  59.9788237  26.6132998  30.9785342
  60.1753473  26.8047047  31.8955827  60.7566118  26.1573315  30.6570244
  54.1647816   4.3535894  37.5666237  54.8220921   4.0561435  36.9375777
  53.3277321   4.1083145  37.1723938  51.4840221  14.8631907  35.5227304
  51.3635778  14.5686412  34.6199751  51.0166597  14.2155612  36.0503483
  40.9229477  69.3134660  52.9990625  40.6708964  70.0971849  52.5107098
  40.6288632  68.5853178  52.4517536  41.8570145  58.2269461  47.9870176
  42.0600613  57.9677088  48.8857937  42.0881995  57.4625904  47.4592400
  25.8496811  17.8941786  12.9927850  25.9357883  18.7836695  13.3357489
  24.9873974  17.8800535  12.5774503  26.5364941  78.2452256  27.5724387
  27.3063572  77.7544952  27.8600669  25.7955655  77.7717031  27.9506350
  12.2569768  48.8449978  53.0998700  12.4530331  47.9972445  52.7009886
  11.3033406  48.9152502  53.0565887  79.4757223  21.3651705  57.1194172
  79.8525858  22.1543193  56.7302561  80.1930428  20.9804797  57.6231003
  24.2458208  72.9194159  62.1903276  25.1424607  72.5924982  62.2637653
  24.0610369  72.9029525  61.2512779   0.4239704  12.4690080  64.8211336
   0.3858234  12.7549636  63.9084387   0.4882290  11.5152931  64.7708273
   8.4364112  58.3050377  45.3073597   9.2357453  58.8083083  45.4623365
   7.9359492  58.3946283  46.1183691  32.8479141  28.2404377   3.1781716
  32.6625865  27.3069538   3.0757327  32.7589458  28.6005308   2.2957606
  49.3490934  30.5435228  54.1714716  49.0087414  31.2530422  54.7164249
  49.4859934  30.9450936  53.3134365  21.4259966  77.2763515  48.8489962
  21.2787541  77.5408787  47.9409313  21.6728648  76.3532586  48.7925291
  55.5787134  14.0957582  17.4835145  55.7674885  13.3920681  16.8626940
  56.3605738  14.1461599  18.0334115  84.7235012  34.3211651  30.8890605
  85.6799221  34.3514776  30.8652806  84.4949436  33.5556507  30.3618193
  30.1699646  74.7208453  18.5109282  30.0394257  74.0927113  17.8005481
  29.9668749  74.2285259  19.3062961  43.6950922  28.1687570  45.0577927
  43.8092279  29.0023208  44.6013069  43.1613302  28.3854389  45.8222389
  37.7830410  26.8433666  59.8856640  37.4793077  26.7505383  58.9826918
  37.1343565  26.3698339  60.4064369  26.0028799  76.1357112  70.2277374
  25.8368357  75.3253544  69.7460890  25.1945551  76.2945230  70.7151985
   2.6990177   3.2963857  57.7301216   2.2175075   2.7921304  57.0742941
   2.0751240   3.4154257  58.4462309  17.8541233   3.5167691  50.0235176
  16.9456722   3.4254396  50.3109169  18.1283714   2.6250604  49.8093367
  52.0790776  62.1554370  48.9621592  51.9746216  63.0221708  48.5696125
  53.0195816  61.9834561  48.9161825  82.2022049  33.3909185  14.0192790
  82.4492351  33.8167061  14.8401923  82.3936311  34.0423151  13.3445353
  36.1349400  79.8659163  65.0882912  35.8394965  80.6770503  65.5018234
  35.3852232  79.5748253  64.5692348  57.1871670  80.1057140  56.2498379
  57.6373299  79.3560011  55.8605957  56.4195164  79.7277910  56.6789389
  58.8546133  29.6037769  44.8847532  58.7116671  28.6735106  45.0591183
  59.2973614  29.6231627  44.0363216  77.5027561  22.2760487  49.2726612
  77.0808649  21.8613219  50.0251532  78.3463573  21.8304110  49.1953611
  52.4396563  29.7127199  34.0647769  52.8008890  29.0921450  33.4318233
  53.0834007  29.7346854  34.7728348  53.5080624   7.2657716  26.8515372
  54.1516972   7.9697502  26.7716789  53.9967489   6.4696276  26.6428018
  69.1710138   5.4527664  49.2397499  69.5050430   5.5155832  48.3449221
  69.2133570   6.3484716  49.5746374  66.5717220  10.1800120  17.6001024
  67.0005846   9.7313178  16.8714190  67.2920084  10.4723859  18.1586146
  70.9156561  36.1487222  45.9392309  71.2993050  35.3576660  46.3177490
  69.9881458  36.0994124  46.1705875  75.2372789  48.4273386  56.5269327
  75.7049227  49.0052176  55.9239388  75.9052849  47.8181314  56.8413639
  32.3978861  78.7737859  25.5927730  32.5948962  79.5249088  26.1524463
  31.6672524  79.0661974  25.0478864  19.4529732  81.5506848  44.0842485
  19.1202553  82.2193261  44.6829557  19.0026720  80.7480706  44.3474436
  63.0329180  12.7134418  47.1762848  62.3318815  12.8038061  46.5308237
  62.8714657  13.4166706  47.8052759  34.3911212  59.8320379  19.3891615
  34.1659492  60.7532777  19.2593855  35.0263542  59.6412195  18.6990161
  29.7475441  81.4205591  32.1468067  29.3006476  82.2217839  31.8737555
  30.2754410  81.1704462  31.3885188   8.5615365  60.4722660  61.9724225
   8.5122506  60.7507532  61.0579573   8.9181296  61.2306934  62.4348765
  68.3440177  29.0805437  19.8701377  68.4485070  28.2119109  20.2584548
  68.3093969  29.6752526  20.6193728  69.6860075  66.5944242  57.6762772
  69.0781116  65.8551836  57.6911402  69.5822144  66.9723415  56.8029833
  48.9574766  11.5725183  60.4747343  49.3261528  11.5424252  61.3575745
  48.3696318  10.8181477  60.4348230  64.0589237  14.9179053  15.3877521
  63.3306074  14.4516063  15.7980514  64.8413801  14.4685006  15.7071781
  45.6230354  42.4289799  67.1024609  46.0394287  41.5679932  67.1418428
  46.3378668  43.0315828  66.8972445   4.0616752  17.9620457  56.2010860
   4.6775200  18.6930847  56.1506414   4.2382767  17.5582993  57.0508099
  54.1583872  18.6066401  45.2508497  54.0212870  19.1465688  46.0292530
  53.5855246  18.9922082  44.5879793   6.1229175  25.7515182   0.0593419
   6.1195653  24.8067333   0.2129693   7.0376342  25.9600629  -0.1304822
  52.9768085   3.5317650  63.5535288  52.3334742   3.0707169  64.0918493
  52.9008770   3.1264120  62.6897287  49.8304558  11.6175687  53.0098915
  50.7552910  11.8599141  52.9631662  49.5000553  12.0808232  53.7796021
  27.6425036  73.5703237  58.0336809  27.3605355  72.7673245  58.4717655
  27.3914488  74.2718221  58.6346006  55.2702626  50.7482822  39.4865727
  54.5428666  50.1767571  39.2406297  54.8511418  51.5130098  39.8812413
  68.2373055  72.0606358  28.7849593  69.0377720  71.7466409  29.2055392
  68.5162266  72.3293711  27.9096222  71.2238503  46.9334507  67.6527882
  70.8513927  46.1571169  67.2346830  70.5797291  47.6234198  67.4937820
  56.3961697  20.8076525  39.5682168  55.5288076  20.5820966  39.9044275
  56.9655657  20.7806921  40.3371716  65.7002258  51.0247612  20.1206613
  65.2269411  50.8212948  19.3139184  65.2673197  50.4972076  20.7918644
  48.8237246  64.5793111  31.0059142  48.6937436  64.7748799  30.0779653
  49.0348919  63.6459262  31.0266829  12.2595264  33.1944346  32.3490906
  13.2017185  33.2449555  32.5101757  11.9101097  32.7361321  33.1133509
  33.9769610  71.4217455  64.8604774  33.8357075  71.9224704  65.6639385
  33.4778698  71.8932683  64.1935396  85.5874634   6.2907362  41.2701845
  85.7265377   7.0650792  41.8154192  85.4472828   6.6396511  40.3899336
  52.8772839  80.5529498  20.9419370  51.9220074  80.6075476  20.9155822
  53.1726750  81.2266123  20.3294396  42.8630741  68.4382064  67.2635508
  42.2755774  68.3944339  68.0179787  43.1045302  69.3623574  67.2013140
  63.5082531  26.8529224  39.1250372  64.1426420  26.4432883  39.7132397
  63.1622553  26.1284113  38.6038828   4.1404575  79.3471791  13.7761111
   3.5677713  80.0713660  13.5234923   4.3532079  79.5188381  14.6934409
  85.4737473  37.9064536  39.7529912  86.1821651  37.9576159  40.3946686
  85.5990410  37.0595264  39.3249130  42.9497705   9.7656030  16.2945075
  43.1551585  10.5740232  15.8249278  43.8023410   9.4155950  16.5530676
   3.0894520  55.0282192  18.7800455   3.6085369  55.2774239  19.5446885
   3.5163643  55.4704475  18.0462790  83.4841061  37.9828501  42.3671913
  83.1692123  38.8866568  42.3528576  83.4163666  37.6911664  41.4580393
  38.2971606   5.4236431  19.5788951  37.5615010   4.9256010  19.9352450
  39.0592275   5.1038570  20.0618262  81.1264229  37.0529485  29.5803261
  80.7119560  36.2920833  29.9871802  82.0104694  37.0687532  29.9469829
  45.2953196  54.6712780  43.0386591  45.2652836  55.6235695  42.9465914
  44.9364090  54.3396378  42.2156000  70.0483131  59.7036982  45.7911253
  70.9022141  60.1244688  45.8912849  69.9777222  59.5253229  44.8533487
   9.5450355  23.6937571  59.7988510  10.1050331  22.9337025  59.6408939
   8.9748813  23.7348723  59.0310860  61.9130945  42.4427652  36.3133430
  61.4033651  43.2404232  36.4552855  62.7867317  42.7554464  36.0783505
  84.7083378  46.6900730  62.8218699  84.6450138  46.8129539  63.7690353
  85.6434536  46.7667150  62.6323891  77.4941730  30.1804233  35.7780933
  77.7748108  29.4324636  36.3053799  77.6560974  30.9410882  36.3361287
  74.8975658  28.7408042  51.2917280  75.7596684  29.0167689  50.9805107
  74.6504307  29.4062495  51.9338655  56.3914251  30.1393723  49.3876839
  56.9901514  29.7784519  48.7338495  56.9415951  30.7042813  49.9302912
  63.2974815  45.0077391  48.3175278  62.8341389  44.1726923  48.2524252
  63.2375145  45.2433777  49.2433310  56.0469866  15.7319689  61.5413380
  56.3006878  15.0027227  62.1070862  56.7325974  15.7674038  60.8743238
  57.7284098   4.3709242  28.0966330  57.2273254   4.7953394  27.4001980
  57.8102493   3.4606320  27.8121996  58.1210566   5.5654633  41.6345596
  57.7858305   4.7602683  42.0289135  57.5435209   5.7250434  40.8880901
   5.3650524  10.3376913  22.3278475   4.9365570  10.5810165  21.5072274
   5.5659153  11.1729562  22.7500033  79.2810726   6.5564376  20.4764915
  79.2990971   6.5848422  19.5198822  78.5268068   6.0054404  20.6855798
  28.5633987  59.0572526  28.1666560  29.4249576  58.6416771  28.1311793
  28.6501354  59.7311701  28.8408560  19.2235901  56.1648846  57.9946327
  19.7029449  56.0360050  57.1761990  19.7617390  55.7329082  58.6579752
  75.4229784  14.7077918  50.1642513  74.6641445  14.6901965  49.5810747
  75.0537014  14.8656726  51.0331249  48.0533361   2.5087470  64.6129465
  47.2295284   2.0548528  64.4353008  48.2611227   2.9574850  63.7933826
   0.9837677  38.8342881  41.9207954   0.4879238  38.6020041  42.7059174
   1.3465931  39.6987987  42.1137047  11.1148017  63.0540039  11.5366072
  11.3914627  63.6971571  12.1893305  11.8367809  63.0240680  10.9088511
  49.9190126   3.6956758  13.6525817  50.2207265   4.2232294  12.9130549
  48.9660678   3.6813373  13.5635657  19.8396023  72.2272778  57.7714682
  20.6209334  72.6039142  58.1763077  19.3854769  71.7878474  58.4904289
   3.7792160  72.3037338  19.0356255   3.3097412  71.5662575  19.4254434
   3.5436298  73.0534506  19.5821202  74.7789478   6.8493295  54.3726683
  73.9297867   6.5592051  54.0395308  75.0212622   6.1870927  55.0199413
  62.9954100  17.2146380  54.2804432  63.6119080  17.9444623  54.3397760
  63.1788921  16.8146253  53.4304094  52.5228262  32.5244141  47.7863884
  53.2342339  33.1621218  47.7275610  52.6202917  32.1364021  48.6559772
  50.4131746   8.7022936  34.1226482  50.0629711   9.5884985  34.0319276
  51.1323977   8.6632752  33.4922314  44.1196300  20.1455569  50.5376863
  43.6421921  20.9703732  50.4484749  44.9270298  20.2813268  50.0417948
  68.3339310  27.1278358   0.8960209  67.8308678  26.3137197   0.8766613
  68.5022783  27.3273158  -0.0249018   5.6201126  21.6270208  16.6288841
   6.5190555  21.6087127  16.9571924   5.6627704  21.1710691  15.7883358
   6.6350033  44.7205877  54.7307301   6.7454674  44.1077995  54.0037346
   6.1758377  45.4675341  54.3467140   6.2352516  32.3058176  64.4275999
   6.2237217  31.7443013  65.2027082   5.3911068  32.1478915  64.0048599
  20.7264608  51.9712474  11.8997569  21.5210575  51.7229308  12.3721785
  21.0268920  52.5907518  11.2347788  76.7164946  44.8421955  45.1062441
  77.3656321  44.3874502  44.5695400  76.5203285  44.2296600  45.8151531
  54.2853355  32.3459291  49.9636650  54.4768620  31.5096092  50.3880692
  54.3654823  32.9937100  50.6638002   1.7336895  40.8826828  67.0548868
   2.3323109  40.9658337  67.7971601   1.4467289  39.9698448  67.0797014
  18.0949547  29.6368909  57.5367165  18.8492634  29.5043802  58.1108999
  18.3475639  30.3693128  56.9746017  83.6783218  68.5978174  22.8861713
  82.9629898  68.3212662  22.3134089  83.6189079  68.0141163  23.6424756
  71.6314316  32.8456950  19.3547630  72.3957920  32.4665761  18.9208770
  70.8937502  32.6041460  18.7946665   0.3207065  50.2909803  36.1756754
   0.0597336  49.9322844  35.3274632  -0.2722309  51.0291576  36.3162303
  59.6941608  75.2014305   9.7360224  60.3666824  74.7467734   9.2288489
  58.8725608  74.7906162   9.4668765  85.4895973  13.4301639  43.1461239
  86.4467812  13.4312391  43.1410408  85.2475357  14.3084693  42.8524971
  70.5459738  30.3907299  62.2153330  70.3354216  29.5226431  61.8713474
  71.1646461  30.7555127  61.5825510  73.1436968  47.7886343  13.0046618
  73.7607527  48.0364656  12.3161495  72.3987818  47.4134684  12.5349927
  63.8625336  53.8652945  61.5504503  63.2347298  54.5878506  61.5497828
  64.6000242  54.1883039  61.0327578  44.0234097  66.7004807  42.3714304
  44.9346979  66.9843216  42.4436808  43.5653695  67.1893151  43.0551529
  16.5688985  66.1180784   5.5550093  16.3232702  67.0397689   5.6349034
  15.8693546  65.7283689   5.0306029  80.3536034  50.6419897  36.5780640
  81.1175346  50.4390764  37.1179438  80.0697231  51.5050030  36.8794727
  84.6778393  42.1466017  58.3339024  85.4400444  42.0888186  58.9100504
  83.9304161  42.1966076  58.9297867  10.7265236  43.6805058   6.5808779
  10.4213287  43.2022858   7.3518491  10.6481125  43.0523825   5.8628625
  10.6796314  33.1757021  27.9391623  10.0364925  32.8255749  28.5556149
  11.5083362  33.1505632  28.4175563  -0.2074097  20.0174332  19.1362071
   0.3528454  19.4803166  19.6964276  -0.0834416  19.6575439  18.2579470
  18.5095422  78.4132939  57.5242477  19.0715329  78.3656340  56.7508631
  18.8920037  77.7855020  58.1372970  63.3478355  21.4269018  37.2222972
  64.2742109  21.6677833  37.2283340  63.0829620  21.5167403  36.3068748
  57.5787878  42.8113461  43.6102581  57.0680094  43.1734657  42.8862381
  58.3744574  42.4754429  43.1975794  85.6623936  13.2162201  25.6686759
  86.5471935  12.9010665  25.8531857  85.7669258  14.1580582  25.5335951
  73.6759615  26.0643101  65.1726532  73.2239056  26.7524552  64.6844578
  74.6013594  26.1902308  64.9628687  52.3079723  65.3763224  24.4978423
  52.7796787  66.0352017  25.0073618  52.9332965  64.6586658  24.3970007
  17.1829464  34.9371171  66.2856388  16.7996265  34.1918945  65.8231020
  17.6345970  34.5477200  67.0343781  69.8506832  29.8393965  27.3008776
  70.7014513  30.1047397  26.9515634  69.2457056  30.5165839  26.9981432
   1.8842373  73.7232311  38.3993673   1.7936096  73.6874236  39.3515944
   2.7275238  73.3060397  38.2231736  80.0367260  26.3822293  54.2137051
  80.1581669  25.7534766  53.5022593  79.1297722  26.2561488  54.4925690
  73.0543947  45.0792074  24.0119624  73.6621571  45.8138895  24.0961790
  72.2182035  45.4228354  24.3265057  26.6769355  49.9069174  21.2194819
  25.8369297  49.4978275  21.4274783  27.2649616  49.1717853  21.0461421
  85.8163834  12.4451399  35.3149533  85.4481125  11.5758932  35.4731226
  85.9863758  12.7959406  36.1891818   8.8515617  15.4208803  29.5686674
   8.3230163  14.6361482  29.4235373   9.6230366  15.2956128  29.0160680
  75.6817484  47.0165443  27.1591139  74.8162031  46.8381453  26.7913699
  75.7349539  46.4527369  27.9308152  84.8725406   3.7462085  61.6073465
  84.3808166   3.9315551  60.8072901  85.7902948   3.8360255  61.3506460
  21.4980652  12.1048605  66.6635609  22.0331814  11.6475594  66.0149002
  21.0079052  12.7519941  66.1564207  11.2254899  54.4537713   1.7094798
  12.0609849  54.0836133   1.9943709  10.9862178  55.0675453   2.4039311
  54.8038816  49.8210096  61.3152122  55.5764484  49.2598772  61.3823175
  54.0765142  49.2125607  61.1849785  46.4723349  60.3099585  50.8190632
  45.9690666  60.8875418  51.3929510  47.2540188  60.8154964  50.5962753
  64.1724110  11.2464607  13.0176520  64.3033266  12.1878481  12.9041386
  64.0927505  11.1281347  13.9641631  31.3787502  60.8999063   2.2724623
  31.7398780  60.1916613   2.8055710  32.1462959  61.3724424   1.9502539
  60.7836533  16.9813132  62.7898598  60.4229975  17.0857978  61.9093800
  60.8354521  17.8726959  63.1348038  84.2142296  53.4829044  38.4422159
  84.9307728  54.0453577  38.1482124  84.2065239  52.7582407  37.8168869
  34.8168319  49.1254552  20.5202193  34.1143745  49.0943612  21.1696906
  35.6219142  49.1250368  21.0379786  18.2276195  55.1809086  18.4135146
  17.4055761  54.7001972  18.5104079  18.8618892  54.6757271  18.9221663
  22.1679928  24.2644763  12.0157957  21.2333061  24.3474555  11.8268383
  22.2211887  24.2769980  12.9714346  67.7953100  50.8545303   3.9579114
  68.4950352  51.4401293   3.6686161  67.7965641  50.1444387   3.3160383
  21.8219234  24.8191428  21.7504883  22.2838928  24.7371054  20.9161758
  22.4191429  24.4370031  22.3935485  67.0754719  37.4568796  45.6722021
  66.2866974  37.0236659  45.3460264  67.7000856  36.7448306  45.8103132
   5.0904323  42.1644258  59.5555210   5.0861313  42.7443504  58.7940073
   4.7336819  42.6984644  60.2652836  69.7047615  21.4632893  39.2202044
  69.3455935  22.3381805  39.3678331  69.1988707  21.1176538  38.4847832
  22.7232029  50.5649662  25.9663916  23.4308388  49.9523067  25.7660890
  21.9234993  50.0490665  25.8636832  77.3596573  25.8270574  54.6813154
  77.0450735  24.9296117  54.5724154  76.5738726  26.3327956  54.8886967
  64.7084475  68.2583380  27.5016975  64.0584230  68.4877682  28.1658220
  64.3713188  67.4556780  27.1038103  76.0801736  59.1559841   2.5793833
  75.8839218  60.0009527   2.1747250  76.8645565  58.8490679   2.1246571
  74.9089670  27.0300770  26.9720149  75.1799679  27.1770144  27.8782153
  73.9938545  27.3096967  26.9473529  55.0103316  22.1680994   2.3567242
  55.7371364  21.9258041   2.9305548  55.4313312  22.5251598   1.5747399
   2.9976990  12.8489506  17.7237844   2.0968391  13.1723952  17.7329040
   3.5351707  13.6341906  17.8274596  43.6093984  20.1350469  11.2855334
  43.8358674  19.6783323  12.0956893  42.9546437  20.7812995  11.5498824
  19.4851058  71.3001372  14.3412108  19.6578783  70.5998756  14.9705119
  19.9848789  72.0470192  14.6708006  48.9610767  24.3922138  58.5685444
  48.7858629  24.1429758  59.4759655  49.3813848  23.6222196  58.1855536
  32.0184558   8.5721820  38.4059119  31.1792034   9.0320437  38.3857298
  32.5900119   9.0919345  37.8407478  57.4385929  19.7987390  25.9528255
  57.2393179  19.4859457  25.0703955  57.7742434  20.6856298  25.8224607
  24.1279658  74.9002148  42.4716616  23.9067658  74.5272095  43.3249903
  25.0831707  74.9617131  42.4774885  82.7229214  19.1764438  41.6541386
  83.0577087  18.3906162  41.2221336  81.8722343  19.3314576  41.2436152
   6.4102508  26.7418504  37.7338696   6.3912536  25.8127975  37.9635072
   7.0275738  27.1293545  38.3543420  41.8611568  68.4215977  11.1190886
  42.4817317  68.5030081  10.3948779  42.4015373  68.4889414  11.9062895
  31.1453017  79.6712793  18.2313311  30.3151949  79.5439749  18.6906195
  30.8918818  79.8848791  17.3333418  72.2653961  54.2077446  36.5903711
  71.7578220  54.5971107  35.8783340  71.9374561  54.6367455  37.3807144
  33.3095115  67.8817131   0.4679675  33.8956016  67.8156974   1.2218756
  33.2673591  66.9915106   0.1186890  69.9484968   9.8252350  30.8435917
  70.3812218   9.9566811  29.9999666  70.1904774   8.9355767  31.1008525
   7.8168442  20.9500003  17.8656936   7.6997520  20.9282303  18.8154542
   8.6893608  20.5829549  17.7234650   6.5410473  47.4892807  14.5928466
   5.9554626  46.7800665  14.8580480   6.0299446  47.9996872  13.9647651
  43.7353706  26.2246227  43.0421162  43.7972689  26.8887424  43.7286615
  42.9635620  25.7091880  43.2763624  73.6588049  52.7968121  65.6776619
  74.3676949  52.8249502  66.3202429  73.5766554  53.7001514  65.3719473
  69.7015905  18.4799278  27.6876020  70.1835060  18.8308704  26.9387150
  69.3422031  19.2521501  28.1243467  58.0810595  28.7002683  63.6876106
  57.7711678  29.0777588  64.5108366  58.5489655  27.9071689  63.9489317
  71.5963125  26.8533015  52.2081089  71.7643452  27.6542807  52.7045250
  72.3316956  26.7905569  51.5985918  63.3123827  33.0016804  67.6844454
  63.3758783  32.3994493  66.9431496  62.3825455  33.0046391  67.9116631
   1.8746521  37.4961972  33.5128784   2.1439411  36.5900040  33.6629844
   2.3638012  38.0020356  34.1618013  12.1066238  26.7963147  33.8374901
  11.1664535  26.7711186  33.6595130  12.3298027  27.7268600  33.8149190
   2.0003845  38.6169386  54.8921776   2.3090984  37.8511643  55.3764486
   1.0872413  38.4175754  54.6856213  72.9912130  22.0559730  10.9817309
  73.9234964  21.8458177  11.0356898  72.7501670  22.3065390  11.8735499
  62.0530462   0.4637915  46.0111189  61.9475317  -0.0421211  45.2054214
  61.2003517   0.4079095  46.4424229   3.1710674  51.9293261  46.0140038
   4.1096546  52.0949793  46.1025858   3.0719234  50.9989882  46.2161732
   9.7572567  22.0270395  22.1926355   9.5262958  22.0301366  23.1215477
  10.6561901  22.3550153  22.1682453  85.7226467  26.8630576  58.8490629
  84.8010540  27.1202278  58.8767624  85.7149029  25.9239197  59.0339756
  11.7390873   9.0272272  38.8075614  12.3193409   9.7786218  38.9298010
  12.0363857   8.6253268  37.9912758  78.7344027  42.3070765  48.1765985
  77.9181099  41.8412733  47.9951572  79.3994808  41.8252802  47.6848841
  52.4927910  79.0101794   6.7605072  53.0751332  78.3079625   6.4706820
  51.8788918  78.5814560   7.3567957   4.3123295  43.4675789  15.7142234
   4.9060108  43.1504154  15.0336480   4.8501732  43.4995174  16.5053809
  54.2129469  15.6294513  39.1701937  53.8185310  14.7611845  39.2525387
  54.3047047  15.7623363  38.2267118  64.2224598  15.2305007  21.2350106
  64.8246145  14.6700609  21.7244506  64.0779591  15.9840751  21.8072653
  66.4714821  72.4141712  58.1846476  67.2828110  72.2571106  57.7016401
  65.9325989  72.9313053  57.5859690  54.1511631  51.2607002  69.0989399
  54.3314075  50.3222179  69.0442514  53.1958961  51.3214827  69.0996122
  79.5563507  19.8039603  24.4839048  79.3818140  20.6970263  24.1869187
  78.7984085  19.3003798  24.1869879  12.4036075  29.7524142  33.6424184
  11.9167377  30.0337982  34.4170237  13.2781269  30.1229143  33.7615299
  73.5470581  30.5584645  58.2778645  73.8917208  30.9436774  57.4722242
  73.9773607  29.7056055  58.3387327  77.5755978  68.4994602  67.3455524
  76.6717148  68.5216951  67.0313406  78.1063080  68.5060072  66.5489721
  70.5627481  22.3830249   6.0347981  70.7697050  21.5511991   6.4607853
  70.7684986  22.2369708   5.1114506  75.5139685  40.5755186  38.3970213
  75.5093431  41.3222933  38.9958024  74.5893097  40.4109764  38.2122016
  61.9375038  48.1433201  56.3228083  61.8187761  48.7949753  57.0138073
  62.8867435  48.0670738  56.2260246  55.6322241   1.6273807  44.3527079
  54.7391224   1.9017667  44.5608234  56.0534859   1.5165298  45.2050447
  14.0986111  34.5425224  47.5327778  13.6126186  35.1403594  48.1007910
  13.4611465  34.2665482  46.8742132  15.2769615  51.9893503  36.4576173
  15.8805992  52.3869991  37.0850992  14.5675041  52.6260900  36.3712406
  79.8120022  18.1453001  46.6864300  79.0014267  17.6844728  46.9028378
  79.9361134  17.9851604  45.7509136   1.1327888  17.6769984  64.6878576
   1.9985821  17.3157406  64.8779202   0.6882717  17.6921976  65.5354404
   1.7061418  55.3515889  13.8314623   2.5457090  55.4159869  14.2866606
   1.5491241  54.4108321  13.7505049  70.8411884  23.2680488  42.9791784
  70.9100533  23.9571524  43.6399555  70.0309896  22.8072929  43.1971645
  56.6531086  22.7026391  37.5054002  56.4485073  23.6003351  37.7671480
  56.3919353  22.1689153  38.2558417  78.7755775   5.1114076  63.9750004
  77.9421377   5.2711618  63.5321760  78.6225033   5.3848195  64.8794603
  81.7742825  60.5306578  48.7819576  81.3662338  61.3083506  49.1626453
  82.4733257  60.3026533  49.3948078   1.9850876  52.2377539  33.0920362
   1.5809585  53.0960703  33.2193422   2.5507595  52.1237087  33.8557363
  70.7884693  46.0283375  33.9797115  71.3829565  45.5307102  33.4182954
  71.1940527  45.9960842  34.8461366   5.8527901  18.4839547  50.7570696
   5.5336906  19.2714179  50.3162622   6.6159584  18.2156467  50.2453947
   6.4609672  32.7389455  25.1222777   5.8361103  32.0157552  25.1749468
   7.2143318  32.3713708  24.6601391  17.9410030   6.8984371  47.2366047
  18.0134441   7.8487194  47.1474552  17.0044567   6.7204815  47.1503401
  45.4096659  60.8177097  29.7686625  45.1947840  59.9940331  29.3309283
  44.9809464  61.4896018  29.2385745  77.2031069  29.6958971  16.7309713
  77.5347424  28.8498378  16.4302480  76.9089508  30.1351905  15.9330225
  51.4443318  33.9027976  50.6935673  50.7186047  34.4492536  50.3920083
  52.0669858  33.9090054  49.9665933  13.0249359  39.5542169  52.6466465
  12.6821186  38.7660718  52.2252941  12.4723865  39.6723771  53.4192801
  82.7920437  58.9063549  41.1156225  83.6820030  58.5571718  41.1633062
  82.2823143  58.2077312  40.7053471  82.9605293   5.8071989  10.3697515
  82.3245621   5.8405435  11.0843647  82.4996185   5.3605711   9.6595955
  37.7729519  74.9220980  58.2726812  38.4707650  75.5771531  58.2590199
  37.5091227  74.8723210  59.1914558  23.5752147  40.8908821  10.4462905
  22.8869194  40.2749398  10.6974787  23.5563129  40.8939354   9.4892783
  69.5057972  80.0152996  46.4977741  69.7377308  80.7077836  47.1165657
  69.9021729  80.2902449  45.6710196  68.7951803  30.2469468  54.9451637
  68.3326817  30.9847832  55.3425598  68.5016060  29.4840050  55.4431248
  14.3079044  27.7063489  42.1996307  14.5719768  27.3021078  43.0261230
  13.8965656  26.9965291  41.7064905  74.4353390  35.6708646  46.1162996
  73.9948940  36.1192942  45.3943920  74.3997860  36.2935805  46.8423796
  66.1293459  22.3624206  47.7837420  65.5239487  21.9870663  48.4231472
  65.9446239  23.3014584  47.8015423  36.7121937  61.4783621  22.6883030
  36.9890453  61.4862394  23.6045575  36.1604645  62.2553349  22.5981188
  43.2016905  77.9404030  65.1237774  43.9775618  77.5383634  64.7331095
  42.7855929  77.2313155  65.6139708  61.4900541  54.0326166  14.2048466
  62.0504236  53.6917114  14.9019861  62.0633793  54.0835285  13.4400368
  77.7038479  19.0648007  66.1173725  78.0254841  19.1078091  65.2168512
  76.9531107  18.4724534  66.0755348  71.7449951  56.1692572  42.5856638
  71.6146088  57.0709801  42.2921896  71.9793510  56.2498045  43.5102272
  58.4036303  11.1953008  63.8628244  58.5929346  11.3830829  62.9435110
  59.1502619  10.6750584  64.1596842  84.5838737  43.0768394  50.3211260
  84.1509819  43.8377094  49.9339390  83.9117813  42.6722622  50.8696222
  57.2256517  27.3589420  16.8365479  56.8871164  27.7123141  16.0138977
  58.0687189  27.7961826  16.9561160  29.2676465  77.6042347  53.6025434
  29.1515748  78.5327726  53.4011119  29.2449967  77.1695595  52.7500325
   1.0617782  24.1351724  12.5011587   1.5119507  24.4293809  11.7093170
   0.1425030  24.3547249  12.3496366  28.3707643  21.2175989  39.6205759
  27.5362492  21.6703558  39.4987988  28.9321733  21.8619657  40.0516701
   1.1029388  32.8687239  70.6855345   0.5432751  32.9352927  69.9118519
   1.8764545  32.3939252  70.3814602  66.9062138  11.5591276  40.0780392
  66.7987347  12.5101995  40.0660563  66.0333586  11.2169993  39.8848963
  10.8031322  48.0484915  40.1081419  10.5367424  48.5346174  39.3277907
  11.4644195  47.4326038  39.7925138  73.6937857  32.5952601  66.1935186
  74.4588041  33.1267834  65.9733772  73.2431221  32.4668717  65.3588629
  80.4994869  10.7880282  38.3357859  80.9735966  10.4234350  37.5884414
  79.9999285  11.5178144  37.9696107  73.6630392  23.3115220  70.6185102
  73.2315874  22.9042506  69.8673677  73.3907223  24.2284822  70.5829573
  80.2406502  30.7337785  47.9386997  80.4732037  29.8915601  47.5477743
  80.8052158  31.3673854  47.4959326   8.4979584  41.1018133  53.9655590
   8.2998421  41.9464350  53.5610914   7.7995827  40.9740067  54.6075678
   3.1715824  37.7863288  40.7312822   3.9625313  37.8856587  41.2611485
   2.4713756  38.1448770  41.2766123  80.8239841  19.8026049  53.5795355
  80.9818077  20.7292867  53.7600422  79.8709249  19.7147822  53.5936069
  49.6247776   3.8926480  69.3371338  48.7391575   3.6786102  69.0437030
  49.9684199   4.4730161  68.6579325  16.7456199  53.0318260  13.3057964
  15.8389808  53.2495213  13.5222435  16.9773819  53.6409473  12.6047313
  82.3468590  51.3677025  24.6244121  82.0749950  50.8067322  23.8980293
  82.9466152  50.8241320  25.1353502  24.1499187  26.5769792  39.8238015
  23.5388233  26.8057489  40.5241299  24.4385959  27.4195409  39.4731069
  13.9559700  72.9765511  24.4866157  14.4178440  72.3618698  23.9164639
  14.1617824  72.6814270  25.3736186   5.3894283  47.4455690  25.3467488
   6.1399891  47.0570374  25.7961178   5.0647022  46.7487478  24.7764635
  10.0137283  49.6498871  38.1021214  10.5153515  50.4413795  37.9068327
   9.1105129  49.8785114  37.8826404  18.6030342  43.1587362  10.8436275
  19.0013649  43.5512877  11.6204607  19.0427925  42.3136997  10.7500303
  86.1004925  49.1067600  30.6667614  85.5500507  48.7886667  31.3823485
  85.8975697  48.5270548  29.9325991  12.2157424   1.2436335  32.4126220
  11.6204780   0.5267661  32.6317143  12.5940793   1.5057891  33.2518888
  66.2203441  16.2304563   5.1312394  66.1567721  16.3837881   6.0739369
  67.1395812  16.3973159   4.9228949  61.7163658  40.2797604   0.3244909
  60.8393002  39.9963045   0.0663481  61.6006851  40.6492901   1.1998760
  83.8368416  41.6127539  29.1804338  83.3632183  41.1842871  28.4674597
  83.8734818  42.5342083  28.9238954  69.7866344  23.4800935  48.6491346
  69.7763252  24.3207097  48.1914330  69.5293093  22.8419161  47.9837418
  81.8004036  40.8003235  65.4056692  80.9830856  40.8831930  65.8969593
  82.4431038  40.5170822  66.0560036  57.6844161   9.7252410  21.5710926
  56.7593425   9.6361296  21.8003011  58.0419677  10.3084128  22.2406483
  68.1625557  47.2970104  44.5503044  68.2632160  46.8662405  43.7014627
  67.2259712  47.4838591  44.6145058  69.5015621  66.3328266  64.7422552
  70.2617979  65.8634615  65.0857210  69.7033072  66.4708138  63.8167858
  18.5710098  39.6761703  45.6501245  19.1416694  39.9435902  44.9296665
  17.9528381  39.0637207  45.2513695   2.5655319  36.6048503  18.8420475
   2.8634788  36.8785429  17.9745471   2.5180771  35.6503081  18.7888718
  64.8973498   6.2515373   1.8918700  65.0772605   6.7245359   2.7043576
  64.6359477   6.9319696   1.2714619  52.9912710  72.5535345  57.9048634
  53.8446045  72.2614193  58.2253647  52.9752111  73.4928322  58.0884171
  82.2091675  33.2754755  24.5428967  82.1362209  33.5851836  25.4456639
  81.3504314  32.9000258  24.3483615   1.8022110  43.7687159  16.3549459
   1.4975216  44.5013285  15.8195281   2.7207424  43.6582756  16.1093116
  67.5411892  81.1066341  45.0146389  67.7915812  81.9157505  45.4605865
  67.9409647  80.4114914  45.5373144   0.9783031  38.2584286   7.3485923
   0.1203873  37.8480792   7.2398436   1.5457489  37.7937651   6.7335147
  65.7617807  46.8037796  50.6388474  65.8964491  47.5526190  51.2196589
  64.8675823  46.9101477  50.3143120  85.2700963  80.3191905  65.1285659
  84.8498788  80.6587296  64.3383997  84.7042050  79.6006613  65.4109012
  78.3482504  38.9472413  51.4742041  79.0183926  38.2895565  51.2882090
  78.2599878  38.9363623  52.4272633  55.0742817  48.9411211  36.6014385
  54.5849466  49.2013025  37.3818803  55.9838057  48.8892937  36.8952322
  65.7786798  41.0085011  67.1244431  66.5842438  40.5169487  66.9642162
  65.9151840  41.8441296  66.6779804  64.0434837  11.1251545  39.7618580
  63.6906147  11.7242634  39.1039944  63.7567949  10.2582383  39.4746327
  72.6541615  16.0127437  25.2129984  73.3686686  15.4144752  24.9944019
  71.9049072  15.4405689  25.3787351   0.5149605  50.4595709  14.7065568
  -0.0012921  51.0832882  15.2171409  -0.1108597  49.7807503  14.4540060
  61.7259073  31.3419342  44.9733591  61.2963772  31.3454342  45.8287716
  61.3615751  30.5784297  44.5255280  68.8946438  53.6094618  54.8963833
  69.4186354  53.0738688  55.4920387  68.0398941  53.6748838  55.3222370
  20.4825465  51.5144091  65.1315796  20.8304040  51.9866162  64.3751102
  20.4843728  50.5959158  64.8621391  78.2057993  10.7645362  30.0865054
  78.9771644  10.6364768  30.6386161  78.0248300   9.8977225  29.7230411
  13.6035396  28.3928084  64.6691847  13.2235290  28.3371305  63.7924147
  13.0407287  27.8385520  65.2098036  77.1263838  35.9969115   0.6869318
  77.3070240  36.9160271   0.4898893  76.2676764  35.8326912   0.2971984
  29.3654006  50.2955224   3.0834813  30.1068538  50.2626355   2.4789948
  29.7469467  50.1074632   3.9409728  27.6107319  64.9895031  30.0949645
  26.9892701  64.2835850  29.9169278  27.3294934  65.3497464  30.9360123
  59.7095021  78.7113334  41.9355822  59.9454602  78.6142785  41.0130119
  60.4770954  79.1180141  42.3376226  15.3843753  25.7945018  52.3449855
  15.2622763  26.7162245  52.5724774  15.3179375  25.3309279  53.1798010
  65.0633097  41.5500450  11.5295255  65.3093338  40.6756353  11.2276673
  64.3296957  41.3999844  12.1257865  68.8548422  11.5292716  19.0678251
  69.7634411  11.4674103  18.7731040  68.7741947  10.8518517  19.7392631
  74.2232084   6.0305572  35.8329320  74.0287495   6.9139993  36.1458969
  73.9541817   6.0372502  34.9143386  61.9362020  20.0597310  39.0423417
  62.2164059  20.2020073  39.9464846  62.5683641  20.5490375  38.5158610
  19.8419906  16.8878520  45.9553337  19.7951176  17.2260213  45.0610828
  20.6610061  17.2413528  46.3024521  79.3635178  38.1468248  35.5901480
  78.6631298  37.9477358  34.9688172  79.9298954  38.7615561  35.1237178
  75.6548890  79.5362597  12.5632906  76.3708886  79.2328637  13.1214416
  75.8924206  79.2375495  11.6854620  53.8228043  59.8905928  35.9802675
  54.2683323  59.1772182  35.5232811  53.8672264  59.6473415  36.9049764
  19.3087055  15.8561122  41.3328362  19.8839046  15.5551898  40.6294012
  19.2450001  15.1080859  41.9266605  20.5908157   9.2763829  46.6487217
  20.7001354   8.5626942  46.0202837  20.0811912   9.9350548  46.1768484
  10.9833481   4.5771852  23.9502287  10.6908371   5.3234041  24.4735169
  11.7227508   4.9144411  23.4444904   8.9222043  67.3940446   2.2914500
   9.6919864  66.8843247   2.0387597   8.8313144  67.2403647   3.2318539
  73.3462914  66.4226753  27.6749468  74.2356499  66.6536612  27.9431081
  73.4327706  66.1615605  26.7581177  37.1907330  26.0069466   8.1896549
  38.0073309  26.4227343   8.4662741  36.8391609  26.5923119   7.5188518
   4.0245296  36.6600728  47.7965212   4.8149158  36.5385365  48.3225870
   3.8758137  37.6056290  47.8026056   5.8731605  24.2041969  17.6036417
   5.8763267  23.2759714  17.3699367   5.5334331  24.6459675  16.8254006
  63.4424599  40.5199249  43.7444782  62.7992829  39.8223407  43.6182356
  63.9574345  40.2370126  44.5001173  10.8994247  16.5776885  21.5706897
  11.4865352  15.8981836  21.2393260  10.0256874  16.1924255  21.5044904
  76.9763947   9.7443926   0.7957989  76.1857700   9.4996619   0.3149088
  77.0422935  10.6924808   0.6817057  64.6943140  27.0680642  59.3275785
  63.8188601  26.7184925  59.4937420  65.1140308  26.4096165  58.7739372
  33.3305120  15.9411836  57.5233746  32.4308205  15.7231641  57.2799540
  33.4042406  16.8799996  57.3518515  69.4430971  19.1885602  20.4296708
  69.7415829  18.6140406  21.1347008  68.7707758  19.7360253  20.8352518
  60.6990194  12.5041366  45.4171467  60.4806471  13.0412245  44.6555138
  60.9589672  11.6599607  45.0483274  63.6268568  42.7555370  50.5602551
  62.7545547  43.1423569  50.4848099  63.5599518  41.9213486  50.0956202
  68.8968277  30.9482241  35.4083443  69.0998173  31.1287165  34.4904947
  67.9427195  30.8753371  35.4327846  10.3815891  36.8524480  43.9572859
  10.2667000  36.0075736  43.5222912   9.5991184  36.9509006  44.4997644
  77.3967075  29.2075491  50.7591534  77.7461481  28.5812759  50.1251936
  77.9440022  29.9857378  50.6537008  85.3705788   5.9764189   9.2538083
  84.6209240   6.0018820   9.8484570  85.1765442   5.2557033   8.6545163
  63.2758617  24.8887539  31.8167424  63.5902262  25.0472307  30.9266353
  62.3734951  24.5905662  31.7025256   8.2698585   8.6946422  10.7154655
   7.7816631   7.9301500  11.0211599   7.5970508   9.3491232  10.5277824
  68.3337029  71.7989106  36.7887688  68.8318070  72.5720156  36.5233731
  68.3021839  71.8506087  37.7440524  51.4116685  75.5150252  69.9574073
  51.4931218  75.8072548  70.8652613  51.8451993  76.1982589  69.4460543
   9.2360164  22.3049641  49.6494389   9.1301205  23.0088449  49.0094614
   9.3122436  21.5103984  49.1211510  66.4462709  23.6713219  16.1837566
  66.7083359  22.9229712  15.6475449  65.4895926  23.6399770  16.1874986
  73.7506642  64.6041112  41.0086184  73.5393729  65.4703885  41.3566833
  74.6900573  64.6409326  40.8285671  44.5180853  65.2983732  14.9457204
  44.1020926  64.6548516  14.3720818  45.2282818  64.8171026  15.3702605
  67.7137280  16.7588449  15.9106064  67.6409769  17.6995730  16.0717607
  67.4801397  16.3539779  16.7459202  71.7008162  11.3036597  21.0512352
  71.7199755  10.5278802  20.4908514  72.3462582  11.1217320  21.7342710
  57.3771103  57.5477464   0.0460523  56.7574509  57.1464164   0.6553032
  57.0902737  58.4584100  -0.0221072  47.4575090  15.6515074  26.5858054
  48.0993938  15.3107715  25.9628153  46.7626667  16.0167980  26.0380936
   6.4508201  45.9344530  32.4665427   6.5505363  45.2720451  33.1502891
   5.9628250  45.4909277  31.7727280  76.0421896  22.4166942  35.7558036
  76.4993095  22.0704818  34.9893761  75.2098465  22.7410650  35.4119730
  78.8046654  80.0121128  16.3707554  79.6629723  79.6001021  16.4696801
  78.4892567  80.1267214  17.2671986   4.9812080  44.2479944  69.0103006
   4.1858723  43.8032007  68.7173271   5.1237442  44.9364281  68.3607054
  77.7581501  10.2496982  46.0394526  78.5587120   9.7427750  46.1749506
  77.0575094   9.5975697  46.0473251  76.8580437  23.4204745  65.3657961
  77.2251654  23.8548517  64.5958805  76.1883163  22.8343058  65.0135088
  82.8761768  28.9282680   8.9511222  82.2908878  28.2007122   9.1616625
  82.3234653  29.5516133   8.4797639  23.5347225   3.3330533  23.7244463
  23.0278160   2.5219238  23.6877418  22.9023220   4.0203848  23.5149598
   6.2747146  38.2911897  37.8228521   6.9729950  37.6661468  38.0176687
   6.7322018  39.0714002  37.5094724  81.8383694  65.9676123  70.3239632
  81.4701366  66.8075657  70.5980396  81.4949894  65.8323145  69.4407749
  62.0814800  32.2017169  16.0411632  61.9729996  31.8220782  15.1691890
  61.3994217  31.7870808  16.5694630  19.0609600  35.2079654  42.9223251
  18.9362766  34.5303297  42.2578764  18.3950474  35.8656216  42.7216148
  70.3613138  33.6457872  48.7849522  70.8116198  32.8890920  49.1602755
  69.4549704  33.5553646  49.0792274  35.5212833   6.4976448  62.6516199
  35.9190037   6.1506265  61.8530989  35.8549263   5.9341753  63.3497715
  38.5337591   1.3470766  63.7383270  38.2772303   1.9281720  63.0222607
  38.5562134   1.9131850  64.5098495  10.0573112  60.5855846  42.7951241
   9.6852447  60.8155489  41.9437075  10.9269955  60.9854078  42.7923346
  15.3556492  17.0698309  36.6062832  16.2716438  17.0005786  36.8753552
  15.0808670  17.9342258  36.9121408   0.4752685  30.2607274  24.9015570
   0.4266693  30.6333637  25.7819033   0.8126308  30.9729600  24.3582821
  77.6973343  21.1278677  33.9396524  78.2750750  20.5857372  34.4768143
  77.7906418  20.7738733  33.0552244  14.8559810  30.6036210  13.2669640
  15.3177502  30.5192685  12.4327672  14.0738632  30.0615358  13.1636655
  68.4712362  48.7256956  54.6408463  68.3182669  47.8548098  54.2742586
  69.3842745  48.7078381  54.9276829  82.8581429  19.9070632  63.5531187
  82.2164440  20.3619504  64.0985823  83.7062263  20.1769733  63.9054346
  79.9495125  61.2154865  21.5274644  80.2396393  60.4226637  21.0763645
  79.2249727  61.5428019  20.9944224  65.0497675  36.2789202  48.7835121
  64.1708899  36.1452174  48.4286594  64.9478722  36.9927955  49.4129848
  69.7047663  32.3077297  57.8189468  69.7333670  32.8830433  57.0544672
  69.0807009  31.6224718  57.5797987  31.1461449   1.4612736  55.5034924
  30.2647090   1.4777221  55.1306248  31.1048913   0.7917538  56.1863375
  68.7722969  57.6236963  39.3044758  68.0781174  57.7757215  39.9457526
  69.0683556  58.5004044  39.0596080  41.3387879  68.2548125  46.5300131
  42.2368487  68.0214257  46.7650604  41.3551720  69.2074306  46.4379072
  77.2204208  21.7753243  44.0032673  78.1510305  21.9160867  44.1775799
  76.8942690  21.3326335  44.7867727   6.4640667  18.6239910  21.4441705
   7.0292141  19.3525755  21.1872554   6.8666794  17.8548527  21.0409856
  69.7056675   2.0585476  10.2360404  68.9728880   1.5203789  10.5354464
  69.8761511   1.7561390   9.3440115  48.6648091  73.8940550  57.2510910
  48.1344469  73.8122208  56.4584684  48.6530884  73.0188532  57.6385403
  71.4871979  37.5770330  51.9680166  71.0034466  36.8297887  52.3199368
  70.8613729  38.0186129  51.3939238  19.0483906  25.9963727  14.4569993
  19.6329834  26.6953611  14.7500730  18.1811859  26.2673473  14.7582710
  36.3384773  62.3406696  42.7863026  36.0287716  63.2416582  42.6939011
  37.2916748  62.4081755  42.7307606   8.2837726  31.9160151  23.3488917
   8.1963875  30.9789538  23.5235739   8.2808163  31.9829512  22.3940396
   6.4800217  12.0593667  14.7651613   7.2964527  12.2516620  15.2263474
   6.6708233  11.2691927  14.2597401  76.7590666  60.2895546  56.7647934
  76.0343552  59.6946383  56.5721941  76.8011951  60.3141212  57.7207518
  18.3539432  59.8973789  11.9901461  19.1760105  60.3717984  12.1140952
  17.8157848  60.4851784  11.4599509  22.7234413  39.1864634  15.0011718
  22.6565697  40.1387548  14.9311674  21.9939663  38.9361644  15.5681372
  68.4596634  38.0517411  43.2189703  67.8784847  38.2125139  43.9623499
  69.0071392  38.8353324  43.1691122  80.4601669   8.1955749   0.8284254
  80.0524330   8.0197942  -0.0195622  79.7269773   8.3991754   1.4091203
  76.4765644  12.9121459  30.2752590  77.1613073  12.2443247  30.2381229
  75.7244968  12.5084090  29.8421073  29.2510128  -0.0053316  59.5088768
  28.9640331   0.8865847  59.3130255  30.2054381   0.0308386  59.4456625
   9.1582266  77.4155523   7.7621884   8.6937968  76.7891480   7.2070736
   8.4880463  77.7504851   8.3579344  49.7674934  64.9620010  17.5928301
  50.1565639  65.6364729  17.0361037  50.2190773  64.1557171  17.3434157
  17.6759009  52.4813153   9.7609610  18.5457925  52.2516479  10.0877280
  17.6442222  53.4364619   9.8150153  11.3718534  28.4825778  38.6945820
  10.4531860  28.5787416  38.9456511  11.5332818  27.5398779  38.7331843
  32.8152666  71.8657781  12.8066439  32.0396412  72.3970916  12.6268096
  33.4996394  72.2472169  12.2567648  18.1325603  25.2721095  59.3327904
  17.4993038  25.5566549  59.9917698  18.9855182  25.4131937  59.7436333
  25.5409431  20.2608562  62.0714092  25.9787536  19.4590175  62.3570871
  24.6731448  20.2159691  62.4728298  18.4991205  20.3326583  59.8056507
  19.3946564  20.4667902  59.4954014  18.6005712  20.0439310  60.7126141
  11.8598191  74.6453168  25.1497454  12.2085408  74.9685242  25.9805007
  12.5191156  74.0251900  24.8382945  24.1298485  29.5309854  49.1025496
  23.7161827  30.3806257  48.9501476  24.7546434  29.6921682  49.8095751
  53.5358440   6.8582458   4.9782223  54.0955569   6.3194151   5.5373425
  52.6819964   6.4265604   5.0069184  85.3366738  23.6552215  47.9151773
  86.2812322  23.7289667  48.0515671  85.0366512  24.5595121  47.8230953
  61.5552058  23.8427801  10.9789939  62.0678927  23.0503864  11.1386580
  62.1371563  24.4057674  10.4685015  70.1192133  47.4314018   1.6581244
  69.5779363  48.1867053   1.8878312  70.1521484  46.9079514   2.4588389
  67.5780044  23.2404780  62.0526648  68.2339869  23.6964536  61.5254021
  66.9124339  23.9042306  62.2334385  21.3629595  76.0349347  36.6389460
  21.6002111  76.2806393  35.7447619  20.7190446  75.3347995  36.5321059
  55.5430420  14.5463771  41.6080947  55.0408449  14.9793548  40.9177680
  56.0655904  13.8894720  41.1480517  51.9999744  15.7029647   2.5007910
  52.1503921  15.8420248   3.4358162  51.6613783  16.5409059   2.1854491
  52.6807831  39.4710541  54.7548056  52.0376394  39.8242736  54.1401243
  52.1557425  39.1007042  55.4643154  85.4639633  12.3466510   0.6549830
  86.1627825  12.2560043   1.3027997  84.6940168  11.9671793   1.0785479
  76.9687857  57.6120509  12.7630992  76.2926068  57.2585179  13.3410449
  76.8910351  57.0967104  11.9602198  61.3542848  20.9208412  29.4333834
  60.7328023  20.6049842  28.7774748  61.0552334  20.5300922  30.2544303
  21.8811154  17.8001106  35.0996256  22.8170228  17.8459668  35.2950811
  21.8411636  17.5471652  34.1773152  12.8696811  31.3038564  64.7531080
  12.5750816  31.2273407  63.8455915  12.8684306  32.2451687  64.9267721
  35.6090736  25.4005432  67.4465704  35.9281874  25.5670023  66.5596151
  36.3324761  25.6648970  68.0149364  46.2027677   8.7395830  20.1641650
  46.4885541   7.9998703  20.7002348  46.0336073   9.4404430  20.7937712
  79.1551308   3.3280823  33.2179213  78.2712434   3.3868104  33.5805869
  79.1175244   2.5861973  32.6142454   1.7577814  62.3863697  60.8171368
   1.8996578  61.9797707  61.6719913   2.4976419  62.0917845  60.2860451
  70.6408344  19.1402793  58.1861830  71.4164410  19.5350230  58.5847330
  70.9040747  18.2413614  57.9889965  44.3932720   1.9517440   5.8480639
  44.0328499   2.5538702   6.4990468  45.0082656   1.4074869   6.3397975
  20.7448936  18.1679499  68.6259556  21.3687491  17.5087321  68.3218670
  19.9286091  17.9509830  68.1755829   5.7642881  76.6897156  15.6118960
   5.8106796  76.2461569  16.4588446   4.8417417  76.6343619  15.3627486
  48.4630396   3.2315893   5.4068369  47.5567027   3.5390253   5.3904290
  48.5420861   2.6774664   4.6303505  31.7553043   9.2767429  57.0637369
  31.7347646   8.3403772  57.2612906  31.7580295   9.3197769  56.1075068
  62.0770730   5.8664054  36.0904593  61.8093376   5.1374597  36.6500945
  63.0272110   5.7760353  36.0176463  66.3313254  28.2063837   2.5925822
  67.0653584  27.8044672   2.1279425  66.0538949  28.9258117   2.0254130
  17.8280048  73.1931736   4.9356885  17.5241975  73.8318469   4.2906851
  17.8231243  73.6700489   5.7656283  39.6339842  12.5216550  10.2841372
  38.8567122  12.1003694  10.6510062  39.8776634  11.9693584   9.5412917
  86.3234641  58.9251423  50.0330210  85.6005194  59.4448090  50.3844881
  87.1111366  59.3979073  50.3018951  55.8998010  30.0194616   6.9083495
  56.4631930  30.4073734   7.5779337  56.3986606  29.2716760   6.5794320
  30.6023836   8.5082287  54.3165398  30.0082135   8.8129926  53.6307430
  31.4776373   8.6615503  53.9606571   5.8533746  49.1267633  65.4682016
   5.1513845  49.5317507  64.9588633   5.5806100  48.2148170  65.5691385
  11.5985525  34.4831085  58.3186674  11.4865315  34.7805166  59.2215681
  11.7533934  35.2851987  57.8197575  72.5836507  67.3129608  23.7890811
  71.7558138  67.2549607  24.2661089  72.6748315  68.2425262  23.5797400
   9.8581562  14.8573417  32.8568549   9.7786508  15.2588529  31.9915862
   9.8892984  15.5978603  33.4625716  80.8800159  66.4474058  58.2346106
  81.1640100  66.2220097  59.1204834  81.5959702  66.9749022  57.8805065
   0.6102381   1.3334674   6.9658942   0.6933889   2.2870178   6.9581408
   0.3827415   1.1202354   7.8708882  74.5406338  33.0513115   5.7399602
  75.3202446  33.0771370   5.1851887  74.3431111  32.1192665   5.8322424
  85.1174267  21.7838354  22.9679007  85.7836207  21.0965223  22.9726214
  85.2022680  22.2054977  23.8230223  32.7324319  19.1877031  33.3886552
  32.1092415  19.9090755  33.4751797  33.1204462  19.1006613  34.2593455
  13.6407888  46.5694284  69.0896988  14.3233418  46.8260336  69.7097826
  13.4512961  45.6565237  69.3063354  36.6572318  73.1724431  18.3406634
  36.0281871  73.8653423  18.5417170  37.1964810  73.5350587  17.6378436
  20.1200423  17.7246542  43.3379168  20.8513341  18.1915588  42.9336447
  19.6781097  17.2928066  42.6068682  67.6590528  38.2476730  15.2823443
  67.1172364  37.5503606  14.9129958  68.1477900  37.8232116  15.9874720
  80.0935395   9.4480772  25.6165022  80.5616530   9.4546194  26.4514060
  80.7306822   9.1098327  24.9873252  83.7252839   4.9690456  34.8476595
  82.9375823   5.1282520  35.3676695  83.9200314   4.0420694  34.9855895
  65.4216029  47.5605411   0.4639048  64.6364995  47.7964038  -0.0302749
  65.7442566  46.7671318   0.0365538  53.7769810  76.5148641  19.1612143
  53.1749360  76.6143109  18.4237380  53.4806697  75.7213070  19.6069712
  18.1295244  55.3665711   3.0459113  18.4126071  56.0193958   2.4056620
  18.8958089  54.8070456   3.1722827   8.6603866  25.0784082  23.2544322
   9.1886506  24.3372793  22.9579634   8.4040580  25.5273122  22.4488253
  86.4930035  43.0360651  56.3895273  85.9090779  43.4282541  55.7403374
  85.9658199  42.9865313  57.1869326  83.4707440  48.1873703  56.4080048
  83.1330494  48.5177660  57.2404909  84.1044973  47.5145197  56.6567326
   8.6412972  36.1846042  40.9235716   8.7216091  37.0832419  41.2433052
   8.9765352  35.6448150  41.6394424  36.6302727  64.4624926   8.0290169
  37.5487910  64.2257048   7.9006190  36.2168662  64.2852427   7.1840853
  80.6089036  47.9436541  66.1582518  79.7688810  48.0354166  66.6078901
  80.7399790  48.7852573  65.7214975  51.9199340  72.1605422   4.4608397
  52.2622387  71.2754061   4.5857091  52.2160570  72.6429655   5.2327246
  64.9243800  50.6841900  15.0024790  64.1758935  50.1120134  14.8333163
  64.5524303  51.5659739  15.0209422  26.6020427   0.8435793  26.8347544
  26.4289079   1.6605873  27.3024649  26.1334739   0.9383983  26.0054869
  -0.1508242  78.4492590   7.2100873   0.2705234  79.1293837   7.7355618
   0.2604812  77.6344897   7.4985499  56.7360764  13.9489574  14.5230765
  57.5958246  13.5671014  14.3462939  56.1654012  13.1951875  14.6727175
  53.8466213  77.2147274  47.8821754  54.5809148  77.7445507  47.5718069
  53.8284109  76.4614439  47.2918653  71.2886008   3.0425758   4.4919676
  72.1403464   3.2837219   4.1278119  71.0048135   3.8201446   4.9726767
  17.4837422  52.3192406  54.4647884  17.4843454  53.2324028  54.7517872
  16.9247627  51.8694162  55.0983763   4.9454413  15.6229372  49.9435038
   5.0697265  14.7301311  50.2654929   5.0300632  16.1724968  50.7226367
  18.0473280  49.5780754  38.5155654  17.7092195  50.2007151  39.1591763
  18.3912146  48.8547564  39.0397644  18.6763082  31.7267198   7.5910277
  18.2827268  32.5943298   7.6836199  19.2875753  31.8177766   6.8600745
   4.8585245  49.9607849  70.4039955   5.7847905  50.1846361  70.3136969
   4.8357278  49.0058756  70.3418398   4.6255058  76.4454653  28.3476157
   4.0857213  77.0988275  27.9026694   4.4412225  75.6276681  27.8855700
  17.3833680  60.4881763  54.7964478  17.5530696  61.4281321  54.7338486
  16.7063344  60.4112768  55.4687119  23.4858040  49.8368980  15.3056807
  23.6903904  49.2682739  16.0480017  23.9392434  49.4355001  14.5643897
  56.3106147  68.4464480   1.2150902  56.6095678  68.1320216   0.3618664
  57.0930211  68.8208033   1.6199727  36.8770576  68.9994907  69.5031834
  37.2532773  68.1935835  69.8570347  36.3732338  68.7141037  68.7409830
  78.9166291   5.8761234  11.7579360  79.7902926   6.0655946  12.1000571
  78.3996638   6.6508026  11.9789404   0.3617329  41.2567854  36.5668821
  -0.3727205  41.8151379  36.8219280   0.7624075  41.7116213  35.8260608
  68.3954056  35.4387254   3.1729931  68.0117210  34.6456022   3.5471243
  68.7096020  35.9329481   3.9301343  45.8577021  17.4339122  16.8336482
  46.6665955  16.9415445  16.6940207  45.2093514  16.7687959  17.0649428
  39.4112539  64.3663931  68.6924887  38.4638715  64.4812965  68.6183691
  39.5435071  64.0343714  69.5804644  35.3293250  77.2380497  28.9303393
  35.9027467  76.6008641  28.5044093  35.9133772  77.9513885  29.1877551
  32.4791713  77.1693494  19.0050883  31.9368599  76.4732792  19.3760581
  31.8598465  77.7362682  18.5454459  83.3958395  24.9316043  41.3148207
  83.8824995  25.0655241  42.1281237  83.2818683  25.8117408  40.9562106
  31.1812592  14.1551542  56.7262030  30.6078601  13.9296281  55.9936857
  31.4273977  13.3117819  57.1061611  48.5507981  64.7622062  27.7849764
  49.4368688  64.5090534  27.5260920  48.1826584  65.1770856  27.0048613
  58.5690681  70.8947374  -0.0028949  58.6360613  69.9463417   0.1079650
  58.7629453  71.2514903   0.8639235  75.1495143  42.6062603   8.6375804
  74.2848738  42.9233760   8.3766837  75.0131043  41.6817398   8.8446755
   6.2850247   9.1191120  19.4634432   5.5373964   9.7164220  19.4409747
   5.8980451   8.2477350  19.3786807  52.8074848  20.2770395   4.6074290
  53.7465062  20.1509113   4.7436709  52.6112189  19.7774381   3.8148970
  11.5731108  55.2585554  55.6181145  11.6291034  55.7745123  56.4224052
  10.9531844  55.7380915  55.0685978  37.2989559  79.8557329  60.2880287
  36.7187691  80.5805588  60.0551367  36.7077518  79.1274929  60.4787588
   9.5172799  37.5609183  48.8949442   9.8138732  38.4567308  49.0555239
   8.6543989  37.6626801  48.4933043  69.4978519  25.1260204  61.3259692
  69.5231159  24.6674079  60.4861731  70.0512655  25.8959884  61.1951441
  27.4811673  38.9347935  57.2842598  27.2874975  39.8359752  57.5423193
  28.3226156  38.7427068  57.6981497  65.2261092   8.4866161   0.2575821
  65.9093960   9.0152282  -0.1546245  64.9880131   8.9751262   1.0455556
  71.8474160  29.9801826  46.8143845  72.2842799  29.9734926  45.9627151
  72.4706124  29.5592332  47.4065495  23.2290840  39.2712331  57.0620537
  23.7229753  39.5571876  56.2935925  23.7981462  38.6297917  57.4874401
  77.6559542  50.6546164  29.7181201  78.0391107  49.8682642  29.3294382
  76.7232625  50.5937386  29.5116925   3.5966507  54.9388313  38.4672880
   4.3335241  54.3407154  38.5918236   2.8847516  54.5510578  38.9762712
  83.3723934  11.3521738  30.0544638  84.2680248  11.5376682  29.7722144
  83.4257134  11.3117427  31.0093302  20.9347771  65.7328059  33.2192034
  20.6056772  66.6014649  33.4502024  20.2015297  65.1437856  33.3970732
  29.2017779  26.5888090   2.5094170  28.2903895  26.3420362   2.3522276
  29.4368110  27.1299524   1.7556567  81.1841686  11.0310096  12.6156992
  80.8531793  11.5186281  13.3699603  80.6698545  11.3552875  11.8764014
  85.3083523  10.6940002   4.1966147  85.1330789   9.8372144   3.8074822
  85.8595427  11.1406679   3.5540385  75.2337448  53.5329856   8.9548630
  75.6380645  53.1932141   9.7531790  74.9426881  52.7526929   8.4829945
  23.0954919   3.0110521   2.1676964  22.3718152   3.5809965   2.4278683
  22.7745805   2.5570077   1.3885350  38.6031461  11.4170909  64.4634771
  38.0759859  10.9472799  63.8172483  39.4022751  10.8965087  64.5448208
  56.3657157  71.0969998  14.9959940  56.5111724  70.6916692  14.1411395
  57.2444979  71.2938215  15.3203864  51.7339839  12.6468725  41.5408511
  52.0434131  11.7479772  41.4291377  52.2625556  12.9946060  42.2591300
   7.2127444  53.6294508  66.9159555   7.6710153  52.9098225  67.3499537
   7.9108691  54.1672945  66.5423584  24.4171683  77.0854356   7.5082631
  25.0276379  77.3850657   6.8346304  24.7893957  76.2600591   7.8187985
  60.1181267  66.2101746  55.1505136  60.3105543  67.0969915  54.8459482
  59.2571543  66.0119724  54.7821760  21.2485218  41.8118095  55.5842543
  20.8959937  40.9477758  55.7973289  21.4377737  42.2095060  56.4341116
  54.5762102  54.7193553  35.2116293  55.1545016  54.4431629  34.5006270
  54.4264428  55.6509163  35.0503916   1.2479144  59.9927378  69.3203545
   2.1862355  59.8623705  69.1832781   1.1959132  60.6077099  70.0520229
  42.1959114  37.8776646  66.4202118  42.7310133  38.5490489  66.8434668
  42.3090744  37.1007776  66.9678164  12.9176602  33.2856769  29.5903582
  12.5213657  32.7396364  30.2693457  13.3340726  32.6627082  28.9947505
  58.0212943  73.5959770  33.5750670  57.2756211  73.5568287  34.1739554
  57.7354781  74.1825558  32.8747363  69.9100629  65.8074381  14.3513674
  69.7524540  65.2726652  13.5732836  70.5980150  66.4181854  14.0868945
   8.6108249  81.4466693  15.9180636   8.5984510  82.1619441  15.2820868
   8.2112306  80.7091905  15.4568953  58.3710718  74.2597008  63.2127142
  58.3746910  74.4248104  62.2698689  58.4748650  75.1253319  63.6078596
  47.9383937  72.2038295  29.0343279  47.2269849  71.5668561  29.1006178
  48.7359897  71.6823103  29.1242785  21.0288844  14.8296423  16.8785662
  21.7475400  14.4454689  17.3807425  20.9931598  15.7406635  17.1701045
  66.4715787  10.6190795  21.6008467  67.3247393  10.9419269  21.8908782
  66.6130956   9.6878070  21.4307303  73.7981780  51.5545482   7.6294274
  73.4440013  50.6654377   7.6459450  73.0727466  52.0955867   7.3175616
  50.8995581  15.9473157  70.0301266  50.5131578  15.7151556  69.1857195
  51.6561699  16.4892745  69.8064041  22.7396941  36.8337178  70.0304127
  21.9992375  36.6297770  69.4591284  22.4804139  36.4968514  70.8880424
   5.8978486  63.7996197  58.0695105   6.2021786  63.3903837  58.8795376
   5.0153023  63.4515667  57.9422188  12.8358970   5.2798147  13.3530516
  12.2258458   4.5509882  13.4665770  13.5789046   4.8994798  12.8845305
  30.0927599  15.3848142  28.6956591  29.2559512  14.9951238  28.4424300
  30.1562103  15.2249879  29.6372885  43.7184429  67.2614431  54.7932673
  44.0420866  66.6003990  55.4052353  43.9425564  66.9174862  53.9285707
   3.2929119  18.9986300  37.1608806   2.8515589  18.3351588  37.6912069
   3.4398466  19.7278965  37.7632213  79.5090278   3.3252639   5.5654521
  80.2430304   2.7224512   5.6841607  78.7446388   2.7566070   5.4728789
  48.9456908  46.1190416   9.1618437  49.0438263  47.0711215   9.1498227
  49.6577922  45.7978569   8.6086840  53.4027712  80.2730991   9.2304797
  53.3838836  81.2011506   8.9968199  52.6042763  79.9127080   8.8447899
   6.2427807  70.3514624  55.5528212   6.0590309  69.6267414  56.1505270
   6.9894278  70.8030272  55.9463167  77.2183862  74.7698619  13.8678546
  76.3615789  74.7006513  13.4467597  77.5166025  73.8644220  13.9543242
  50.9783093  76.9614722  40.4182429  51.4112178  76.8021681  39.5795245
  50.7102696  77.8795339  40.3788657  14.6657500   5.3611011  40.5744643
  14.9003539   5.0406427  41.4453883  14.4167695   6.2746877  40.7144541
  61.1134211  40.4516410  15.6394476  61.9038884  40.9645199  15.8078188
  61.3172261  39.9495617  14.8503871   3.4359050  61.5699768  48.4574604
   3.2826012  60.6536341  48.6877775   4.3873748  61.6692495  48.4903431
  20.8438611  42.7649641  52.5926113  20.0631475  42.2982931  52.8908348
  21.4970779  42.5975752  53.2719660  33.3461332  28.5314178  63.6473703
  33.0043292  29.2094350  63.0645370  33.0988050  28.8229465  64.5249081
  59.3525926  61.7404773  27.1349330  58.8440720  61.0785939  27.6035018
  59.4872872  61.3668324  26.2640280  49.7407701  71.0077495  25.5694861
  48.8611736  71.0508556  25.9445567  50.0083216  70.0966854  25.6903834
  81.4707430  21.7566127  25.6656451  80.9479626  20.9681005  25.8111949
  80.9331377  22.2969169  25.0866122  36.2494592  22.2596877  66.6798306
  36.8159501  22.5497573  67.3948002  35.3753368  22.5585025  66.9305372
   5.9954963  31.1557407  34.0598197   5.9869657  30.7605094  34.9315638
   5.9666452  30.4111690  33.4589762  17.3424667  68.2530810  20.7705493
  17.2470230  67.6118876  20.0662798  17.5487798  69.0729477  20.3216834
  19.0866218  22.7953643  14.7842784  19.8550115  23.3140153  15.0226206
  19.1958079  21.9725103  15.2609629  82.2865828   6.6560621  39.8566908
  81.8846162   6.7610902  40.7190222  82.7010568   7.5008268  39.6811385
   5.4747880  35.6364989  53.0824995   6.2248749  35.2730274  52.6118708
   5.7542682  35.6589746  53.9977121  80.3144942  62.8180599  49.8710155
  79.5118980  62.5704193  49.4119453  80.0637488  63.5750771  50.4004383
  60.0118414  11.3673420  22.3663611  59.7919670  11.9862957  23.0626292
  59.9705188  10.5086870  22.7873606  20.9049296  36.3741326  58.3915567
  21.5992188  36.6283536  58.9994764  20.3724670  35.7493258  58.8838243
  75.6855575  68.2972147  53.9900965  75.9822027  68.3633448  54.8977656
  75.3986971  69.1826846  53.7667555  62.3293177  77.3888375   7.5917763
  62.1624486  76.5534641   8.0282826  61.8503515  77.3271109   6.7653269
  47.3489086   5.4692214  67.5970793  46.8150369   6.2282508  67.8317738
  46.7189697   4.8223632  67.2793055   4.3722615  65.4118557  19.0989775
   4.5713005  64.7290630  19.7396178   4.8124371  66.1921615  19.4360156
  78.2048504  75.9946610  42.1153731  78.6736910  76.7417528  42.4872298
  78.2931081  76.1036994  41.1685080  77.7496441  12.8066463   0.7985587
  76.9382878  13.2645387   1.0182566  78.4117468  13.2097072   1.3601632
  76.3507756   4.3293829  24.7522444  77.2205814   4.6922512  24.9195571
  76.5195378   3.4938306  24.3168063   4.9706707  14.2593116  13.5685248
   5.7833705  13.9089174  13.9331908   5.2442441  15.0292606  13.0699534
   7.7017895  63.6932422  12.3112483   7.0456926  63.5781576  12.9986472
   8.5401742  63.6552169  12.7715678  56.4456574  80.8915879  24.3153090
  56.9194667  80.0612189  24.2681880  55.6126849  80.7172562  23.8771338
   1.1914697  44.4182682  37.2242403   0.9992225  45.2764273  36.8463039
   0.4360973  43.8788843  36.9903421  11.0437429  26.5479541  57.6488829
  11.8491471  26.8499994  58.0687904  10.5282712  26.1716628  58.3622742
  86.2382881  41.6936606   4.8686118  87.0487491  42.1500008   5.0947613
  86.4765207  40.7665858   4.8718161  33.2118011   1.8267493  43.6615229
  33.5184240   0.9918866  44.0153885  33.4578943   1.7998292  42.7368927
  36.7340875  50.5482912  33.7829661  36.9957733  51.3229895  33.2853794
  36.3314772  49.9714231  33.1338406  10.7312880   9.7687740  49.0123648
  10.8368836   8.8422746  48.7963099   9.8090086   9.9526949  48.8340182
  17.1401477  48.7132406  60.1966667  17.2372055  48.0083323  59.5564222
  17.6075184  49.4538212  59.8102283  23.2869802  33.8409299  16.8775649
  23.4786878  34.6235342  17.3943038  22.3312268  33.8104124  16.8346877
  36.7633269  58.0467560  24.2731947  35.9329973  58.3697035  24.6231837
  36.5272526  57.6255967  23.4466834  38.0303216  27.6917028  63.3887625
  37.6153755  27.8045273  62.5335884  38.6034918  28.4529734  63.4791756
  45.1611900  77.8152704  61.4833117  44.4482136  78.2650089  61.9367743
  45.7024002  78.5207891  61.1289549  22.3666922  79.8257734  20.2499003
  23.0886189  79.8280265  19.6213717  22.7796582  80.0267984  21.0897154
  16.0620389   5.6392593  15.6346316  16.4030395   5.3184099  16.4694972
  15.7952771   4.8488636  15.1652236  50.5854265  57.4902226  19.6751494
  50.1309291  56.6563215  19.5556635  51.5030185  57.2917976  19.4883818
  57.0611125  18.9161081   1.9072766  57.9740330  19.1227359   1.7069907
  56.9203575  18.0524320   1.5193648   0.1289830  10.5511493   9.5841975
   0.6205235   9.7954769   9.2623658  -0.3351393  10.8804340   8.8145251
  30.1668319  73.1320288  13.0140967  30.0065955  72.9225685  12.0939440
  29.7922539  74.0052749  13.1297011   5.0511561   7.4234123   9.5831389
   5.5205569   6.6695327   9.2259831   4.8340902   7.9551477   8.8173909
  76.5507384  75.1122016  10.3357882  76.7725857  76.0344333  10.4642195
  77.3685725  74.7070522  10.0472827   2.3317132  32.4120874  34.7920222
   2.5674615  31.9819517  33.9700503   1.6980896  31.8209190  35.1985640
  45.0850729  15.7583754  65.6790733  44.5313911  15.7057803  66.4581156
  45.2505652  16.6943019  65.5655956  26.8472705  25.6467599   7.3503203
  27.1903501  25.1497907   8.0929846  27.1881185  25.1921911   6.5799803
  63.8350145  66.3794543   6.4849705  64.0302221  67.2705032   6.7750735
  63.1398574  66.4858677   5.8356137   3.0120144  22.2673196  15.7510657
   3.7002263  22.0851154  16.3909144   2.9551611  21.4686842  15.2264876
  65.1795053  65.6816530  57.7765751  64.5009327  65.0069809  57.8009081
  64.7143173  66.4803648  57.5277948  65.9564829  56.2771034  66.4980221
  66.8779898  56.1229658  66.7060900  65.8609724  57.2291613  66.5244532
  78.8496582  80.3319217  12.0796675  78.3204309  80.7892896  11.4262385
  78.2596962  80.2109410  12.8236670  59.1873352   9.9389403  52.0488501
  60.0640980  10.2854388  51.8831539  58.6890689  10.1621096  51.2626219
  84.8867710  31.5556593  38.3400817  84.6466311  30.7978601  38.8732810
  84.0884240  32.0821304  38.2987876  55.9420347  60.6808567  56.3663244
  56.4438581  59.9344254  56.0388374  55.4554081  60.3329849  57.1135902
   7.4145657  69.8613930  65.5397987   8.2322198  69.5033121  65.1941776
   7.5647539  69.9348974  66.4822817  31.9634233  25.0486393  29.5149226
  32.4335179  25.6350774  30.1076598  32.2047172  24.1694755  29.8065943
   2.6884732  41.1340160  21.2448973   2.5532303  41.8529815  20.6276221
   2.2905836  41.4400310  22.0599169  30.4021535  16.7473049  26.4530558
  30.5299888  17.6620025  26.7044921  30.2529321  16.2900323  27.2806162
  26.6791940  66.8916559  50.5685377  26.6915822  66.6012478  51.4805365
  27.4250007  67.4873400  50.4967070  73.1023343  18.4543914   8.8980383
  73.9470680  18.8860673   8.7703318  73.3245011  17.5933380   9.2522521
  62.0837863  12.3035926  34.2349429  61.9111835  13.2290430  34.4080920
  62.2539674  11.9261379  35.0979609  66.1060572  54.4133186  39.3593144
  66.0478783  54.7887135  38.4807205  65.8364153  53.5015869  39.2485523
  71.7940875  17.4590892   0.3908820  72.3836358  17.6850957  -0.3285556
  70.9371241  17.7776212   0.1073689  35.3119025  67.3873443  22.6790614
  35.7690129  67.8102321  21.9521136  35.4480252  67.9752750  23.4220500
  22.6690707   3.4713764  64.1895003  22.9384742   2.5540800  64.1423602
  23.2826839   3.8697977  64.8067278  49.8541228  71.9245626  55.0001902
  49.0970604  71.9230558  54.4144530  50.0458733  72.8516700  55.1413722
  36.2249789  14.4785423  39.0006156  37.0659814  14.7120542  38.6076541
  35.5862842  15.0235529  38.5409731  84.4370596  53.9703967  12.5661940
  84.8562423  54.8308923  12.5582404  85.1456634  53.3606793  12.7719969
   0.2549276  27.6004571  10.8474917  -0.0799694  28.4342880  10.5176444
   1.1694298  27.5812358  10.5654521  63.2284579  77.1257610  12.5553889
  62.9344401  76.3201351  12.1302313  63.2528911  77.7732391  11.8508334
  64.4631235   2.0042079  32.1067119  63.7592570   1.7372744  32.6979399
  65.2487961   2.0023768  32.6534724  31.3566685  80.0279045  45.0240183
  30.9325790  80.8854580  44.9926519  30.6756496  79.4354248  45.3424740
  42.6850339   7.4436779  48.0335707  42.8353472   8.3890028  48.0310053
  42.8638025   7.1702880  47.1338362  43.6595950  53.1832618   9.1134066
  44.1951165  53.9652557   8.9795012  43.8790546  52.8913040   9.9981780
  66.6221394  20.5210561  39.1810793  66.2418588  21.1499328  38.5677809
  67.2622575  20.0358505  38.6604495  22.1138415  47.3563881  29.8221011
  21.6476379  48.1633586  29.6037287  22.6711545  47.1886177  29.0621752
  11.4268249  60.1084845  69.6008158  11.8697780  60.3437751  68.7855482
  10.6864398  60.7128089  69.6541691  55.6699626  69.7362544  20.4477114
  55.7180492  69.9203398  21.3858122  55.0655858  68.9971425  20.3793425
  86.0845574  20.9760398  14.9386401  86.8568547  21.0118169  14.3742747
  86.3537105  20.4318685  15.6786818  24.7251020  15.8956642   4.3511624
  25.4633508  15.6864185   4.9233813  24.2991433  15.0533599   4.1920466
   3.5113583  21.8533296   9.7317881   3.9252601  21.7309446   8.8774294
   3.3173809  22.7898044   9.7720141  56.7873321   2.3311681  26.4880843
  56.4145026   1.5494222  26.8956465  57.0073447   2.0555753  25.5982108
  73.7753717  65.1502873  22.6575179  73.4975616  65.9868123  23.0307097
  74.4984380  65.3772189  22.0727820  40.0753260  76.3769770  47.0885658
  39.7127676  76.3938475  47.9742861  41.0030842  76.1771393  47.2132921
  85.3454479  25.8201904  25.1447291  86.3015874  25.7996578  25.1848311
  85.1487358  26.4199133  24.4250960  79.0714828  71.6185428   0.4711146
  79.2685978  72.1209289  -0.3194480  78.1195776  71.5185882   0.4602522
  43.7618003  51.5732307  27.8389830  44.1988502  52.2357864  28.3739943
  42.9620681  52.0014209  27.5335021  83.9035567  41.1306305  14.5726389
  84.1234358  42.0594043  14.5001120  84.7100743  40.7168598  14.8801417
  53.9170742  58.2479191  65.4008055  54.3552303  58.9943933  65.8094883
  54.3780231  57.4823904  65.7439137   4.0483580  30.9997243   6.3390727
   3.6426196  31.0636253   7.2036690   4.5711026  31.7976923   6.2602419
  60.8475991  27.1668882   5.5982918  60.1206536  26.9566650   5.0121302
  60.6976654  28.0785913   5.8483834  73.2683917  24.7877044   1.4208884
  74.0605410  24.7328777   0.8863539  72.5624283  24.5242185   0.8306164
  56.1618014  54.4318504   8.3519501  55.4646440  54.6691055   8.9634366
  55.8605388  54.7619457   7.5054783   0.8413311  72.1986151  35.7786059
   0.9487721  72.6012754  36.6403222  -0.0957190  72.0136023  35.7158422
   2.3178015  13.5546321   8.4344382   1.5965400  13.8178320   7.8628249
   2.9839430  13.2132930   7.8378005  54.8522472  31.3817525  67.6309586
  54.3256807  31.4982319  66.8401384  55.4821396  32.1021128  67.6075459
  51.0321283  78.4612608  63.2329559  51.9431162  78.7433290  63.3152533
  50.9837770  77.6548481  63.7463665  55.5115900  38.7784261   8.7555403
  55.6497041  37.8374929   8.6468930  55.6107028  39.1384000   7.8741593
  11.0983620  53.7014122   5.9288926  11.8387399  54.3049640   5.9905762
  10.6199823  53.9879055   5.1508803  61.3555765  74.7179365  55.2298927
  61.9260406  74.1173744  54.7501755  61.8611860  74.9602461  56.0057020
  76.0639771  55.8222217   0.9328360  76.0025843  54.9189968   1.2436957
  76.9345721  56.1110515   1.2064786  18.6718402  45.5433101   1.2307162
  18.4601674  45.1104374   0.4036469  19.1935144  46.3043899   0.9760613
  20.1537251  67.6211166  63.5555267  20.1651478  68.4262657  63.0380011
  20.8617473  67.7339649  64.1897202  68.9783927  25.0118084  35.2116007
  68.2980605  24.9894828  34.5386405  68.5177680  24.8050232  36.0248084
  57.3688499  71.5514185   8.4446234  57.3508159  72.0262791   9.2755360
  58.1555406  71.0085513   8.4960265  15.7837091  16.1589832   8.5674805
  16.6089377  16.1962337   8.0839057  15.5057941  15.2457351   8.4969468
  13.2281861  16.9457931   7.5721831  13.0740771  17.7380867   7.0576424
  14.1807351  16.8919105   7.6494832  51.4220579  60.5551071  55.0755686
  50.7303425  61.1090011  54.7136874  52.0652493  60.4836292  54.3702883
  38.4688497  51.9883823  39.1811442  38.9308786  52.6370955  38.6501718
  37.8054571  51.6265440  38.5935950  80.0028434  75.1114203  28.3024020
  80.6080117  75.2755262  29.0256400  80.4678216  74.4955351  27.7360816
  24.2777133  66.4472675  57.1074152  23.8650465  66.4969492  57.9696608
  23.9708138  67.2298384  56.6495562  12.6977382  15.0801057  10.0280757
  13.3956418  14.4349784  10.1419921  12.9248986  15.5383510   9.2189784
  79.9174150   0.3137798  49.8142523  79.0238794   0.4682417  49.5077223
  80.3167136   1.1834354  49.8364443   5.6308613  40.0182552  17.3346133
   5.4391489  40.8001918  17.8523535   6.0985050  40.3478355  16.5672011
  19.6029315  59.4734306  33.3128733  18.9618192  58.9008636  33.7340350
  19.7183976  60.1973171  33.9284129  13.7933574  54.1690273  35.4300780
  13.1028686  54.3055648  34.7813887  14.2758308  54.9956245  35.4439349
  54.0192668  72.9177262  13.8807005  54.8987357  72.8218438  14.2461772
  53.7125508  72.0196344  13.7558646  48.3472745  27.5543826  60.2094555
  47.7749554  27.7091544  60.9609413  47.7853898  27.6952689  59.4474411
  22.5252328  18.7995548   0.1853413  22.9021249  19.2986698  -0.5392700
  23.1925092  18.1476326   0.3997607  70.0733654   2.5984233  61.4036226
  70.5427925   2.0404475  62.0237350  70.2129642   2.1817057  60.5532742
  70.1153513   0.6483812   5.0772948  70.7180830   1.3595504   4.8600764
  69.4112738   0.7260913   4.4335026  37.4813686  14.3448467  29.4850821
  37.1658645  15.2430315  29.3853087  38.4091315  14.3898077  29.2538638
  19.3248141  46.5703344  67.9619026  19.9345791  47.0964813  67.4446154
  19.8380423  45.8108377  68.2375717  56.4291549  45.2571125   1.4069886
  55.9961908  45.9993858   1.8286604  55.8843789  45.0639171   0.6440157
  71.0876226  63.1782722  64.7871637  71.2524462  62.7713728  65.6377506
  71.7357397  63.8801670  64.7278118  21.7216954  53.2545394  14.9229331
  22.1650777  52.5928135  14.3921275  22.3338304  53.9899463  14.9493594
  34.8285621  79.0572216   6.6643376  34.5404571  78.2481648   6.2416691
  35.7531303  79.1343858   6.4288325  19.0825200  44.0112162  55.5956650
  19.7122455  44.1175842  54.8826742  18.2631421  43.7787533  55.1588488
  74.6682509  34.4699449   2.6671309  74.1072770  35.2450723   2.6403136
  74.0631088  33.7409372   2.8034491  81.2998875  22.8540535   3.9238782
  81.7840822  23.1015987   3.1361575  81.4986666  21.9256324   4.0453476
  18.2790864  59.4823694  59.9848843  18.4639812  58.5872936  59.7004843
  18.1759489  59.4155788  60.9341669  39.3863153  62.1157742  60.4490185
  39.9328089  62.9013872  60.4293776  38.5194206  62.4202776  60.1806879
  54.6590805  65.0297308  43.2472563  54.8241663  65.9606791  43.3966494
  53.7077236  64.9425888  43.3069563  86.0820277  39.4254512  15.2830214
  87.0173581  39.4249935  15.0795836  86.0431655  39.5522136  16.2309928
  28.3169780  21.2967796   8.9078803  27.7014241  21.2439270   9.6389956
  28.6606393  20.4077930   8.8193793  38.9096451  72.4344778  56.3452148
  38.1170011  72.3544073  55.8146143  38.8306141  73.2905054  56.7661715
  70.4826490   8.8363498  56.7359495  71.2991850   9.2761271  56.9727898
  70.4416839   8.9047950  55.7820797   7.4200926  36.7698927  20.5412669
   7.3596535  37.1208162  21.4297671   6.8197308  37.3111744  20.0286192
   3.1028185  36.3327856  24.5517630   2.8401074  37.1562213  24.1404528
   3.5537801  35.8516759  23.8579363  34.5969568  78.1904079  20.5535216
  34.0455685  77.8009130  19.8749156  34.0561442  78.1691171  21.3430113
  55.7289735  56.5439476   2.4383015  54.8772804  56.9571544   2.5801081
  55.5257289  55.6198205   2.2936911  29.4969115  50.1420326  38.8065619
  29.2785630  49.2584533  39.1029448  28.6889205  50.6411857  38.9258475
   4.8435396  80.7666160  16.0618109   3.9784091  81.0430886  16.3640494
   5.2025789  80.2625729  16.7920680  44.1396395  15.0805705  58.9151621
  44.3978087  14.5121901  59.6407795  44.4815580  15.9424918  59.1527081
  59.1911173  50.8210850  68.9046621  60.1327562  50.7111692  69.0368271
  59.1217995  51.4031601  68.1479502  67.0450534  15.8164091  18.3304209
  67.2471394  15.9055061  19.2617888  66.7436161  14.9128170  18.2361121
  30.6400537  58.6240530  66.3590097  31.3576841  59.2379284  66.2028122
  30.4372001  58.7243748  67.2890711  27.1983242  36.9013214  65.2143097
  27.0727062  37.3956847  66.0242796  26.3221312  36.5923834  64.9839306
  17.5034413  66.1718769   8.3021874  18.0649791  66.9469471   8.2890601
  17.2779403  66.0238952   7.3837752  24.6907935  35.3589363   2.3522181
  24.0910945  35.9050483   1.8439335  24.2448888  34.5148582   2.4224705
  79.6380718  35.1766796  20.4847903  79.4035276  35.7980461  19.7955031
  79.0723069  34.4205970  20.3283400  77.6478902  12.3840468  60.6005859
  76.8804065  11.8182795  60.5162764  78.3373920  11.8054240  60.9261656
  80.4398815  30.4189723  38.4831285  80.5303232  29.7596400  39.1711140
  80.1018516  31.1920207  38.9351916  14.0195546  57.5677700  53.9557452
  13.9276967  58.2125206  53.2542510  13.3764443  57.8350277  54.6124167
  56.9254684  60.6748295  63.6408663  56.9918871  61.6259384  63.7257814
  55.9927225  60.5113840  63.5012197  59.8176050  42.4674988  69.7855568
  59.9483156  43.3815813  69.5333719  60.6310081  42.2219992  70.2263927
  78.3209069  61.6521949  19.4668574  78.9697130  61.8003864  18.7788767
  77.5120552  61.4545078  18.9947218  11.0025272   3.4071416  13.2905860
  11.1408601   2.7085657  13.9301867  10.3838501   3.0365533  12.6611895
  68.9948555   7.2992725  17.7546401  68.6607321   7.2165079  16.8614764
  69.9310799   7.4661130  17.6456351   4.4935665  40.7385749  38.7351889
   4.4122968  41.2645740  37.9396052   4.2292414  39.8581714  38.4682746
  49.9164581  51.0514069  61.3633633  50.6965828  50.7964373  60.8707952
  50.1690960  50.9506130  62.2811031  55.3400771  64.2868187  20.5583567
  55.4646889  63.6100532  19.8930068  55.1112262  63.8031508  21.3520331
  83.8757118  20.0984163   8.2409281  84.0451511  20.5643339   7.4221224
  84.3001707  19.2483348   8.1250376  81.2131699  49.7458953   5.8993287
  82.0015224  50.2792377   6.0006995  80.7269843  50.1691837   5.1917357
  80.5650161  71.7293930  62.3354435  80.0645838  70.9422064  62.5502396
  81.2617926  71.7566061  62.9911804  36.3680909  77.4134590  35.9058566
  35.4442618  77.2447779  36.0911078  36.7199824  77.7502872  36.7298407
  16.8302713  11.7120905  12.1804423  17.7105460  12.0877475  12.1958727
  16.4686523  11.9137449  13.0434603  81.7336591  39.6638221   7.5497765
  81.5996488  40.5435295   7.1970982  82.4355658  39.7677059   8.1922478
   8.7822956  12.3637717  70.7954836   8.6757177  13.3009475  70.9585285
   8.0966037  12.1513217  70.1623011  80.1134165  34.3139429   7.9285712
  80.9306486  34.1798563   8.4085507  79.6572860  34.9980421   8.4186596
  69.0807668  21.6416209  63.8213825  68.2152812  21.5051501  63.4359741
  69.5602838  22.1429770  63.1618881  23.1305790  76.9637871  58.0698729
  22.3595119  76.5205050  58.4236908  23.5423279  77.3724604  58.8312387
  60.6233560  34.4973964  16.1592097  61.0745557  35.2503795  16.5408701
  61.2467151  33.7760515  16.2447447  41.5450764  77.9290009  43.2357550
  41.9570780  78.5991240  43.7811184  42.2568989  77.5920010  42.6917171
  64.5559740   9.3565601  66.0272217  64.9275255   9.6335053  65.1896763
  63.7871695   9.9146187  66.1444235  37.3227811  71.2776136  48.6629534
  37.6802182  70.4699421  48.2939816  37.4056816  71.1655378  49.6099472
  57.6405742  37.5419302  16.5134234  58.5066099  37.9334230  16.6272254
  57.3711437  37.2951717  17.3981566  81.4880021  29.1791792  24.7565550
  81.2077721  29.6026678  23.9451594  81.5066107  29.8861045  25.4016394
  24.4845564  68.2924511  17.6913161  25.0035674  68.7510611  18.3520217
  24.7240842  67.3715665  17.7953620   3.9828787  41.2558765  36.1235900
   3.3164177  40.5826015  35.9866232   3.5254154  42.0815391  35.9647269
  76.8455382  36.0492248  14.2172427  76.0139700  36.0883922  14.6896834
  76.7252048  35.3466339  13.5784049  49.6430779  58.5998726  45.1666546
  50.4368734  58.8732576  45.6264162  49.8854923  58.6144924  44.2407751
  23.7665401  12.9720754  42.5410838  23.9711175  13.6835975  43.1478114
  23.0120549  13.2897729  42.0450491  78.3726732   0.1310389  67.2583628
  78.1699936   0.4792826  68.1266260  78.3897821   0.9007495  66.6896009
  24.1974354  32.8439188  66.3011217  24.3237376  31.8951082  66.3072729
  23.3794880  32.9735541  65.8211327  12.0624852  44.6556473  35.2043414
  11.5770566  45.3817463  34.8127151  12.7390242  45.0777721  35.7338119
  61.8328905  51.8800402  61.4202261  61.8335962  51.6082811  62.3380375
  62.6252174  52.4088573  61.3264084  30.9904316   9.9020713  69.2857122
  31.4097396  10.5964225  69.7939253  30.2299495   9.6483462  69.8087072
  83.3484419  14.3181820  11.5928263  83.2567461  13.8961143  10.7386107
  84.0685399  14.9381895  11.4775652  32.1916947  29.6904726  12.6207633
  32.9667459  29.7339029  12.0607276  32.5182853  29.8917598  13.4977240
  21.7634282  10.4223222   1.6964287  22.5674424  10.1011676   2.1046633
  21.0664020   9.9066085   2.1019263  69.5612891  68.8063163  27.4205393
  69.4117792  68.1106300  26.7802996  70.1653608  69.4073219  26.9845099
  66.2728024  80.8938503  51.4125490  66.5878582  80.1760101  51.9617939
  65.6257200  81.3444424  51.9552135  16.7625747  36.9340963  48.0075259
  16.6181264  36.1888141  47.4244971  17.3359618  36.5934581  48.6941237
   2.4385748   5.6460208   9.4536395   2.0053301   5.1051349   8.7933535
   3.3733568   5.5113477   9.2978186  22.9980502  57.4984283  37.3812575
  22.2727952  57.8861541  36.8914504  23.4080968  56.8933601  36.7632098
   4.5321093  39.6692581  25.1107592   4.6122179  39.9406929  24.1963477
   4.2141471  38.7675256  25.0659461  76.9983490  34.0924949  12.5376124
  77.2893008  34.4556160  11.7011160  77.8050240  33.8151140  12.9718489
  34.2301021  54.5709724  22.3778815  34.6095595  53.7448425  22.6774783
  33.7582765  54.9079532  23.1394953  69.2809280   7.8700609  46.2793727
  68.4029945   7.8968639  45.8989138  69.5453985   8.7882347  46.3363642
  32.5431145  16.9789546  46.3624096  32.6559473  17.6723998  45.7122946
  32.4235217  16.1826365  45.8449125  19.6548808  68.3589649  68.7043285
  20.0298595  67.4981499  68.8903904  19.9591255  68.5668755  67.8209019
   4.9161086  67.7517910   2.8072400   4.7113309  66.8416423   2.5929446
   5.8695397  67.7696342   2.8902144  82.0316251  44.2826099  22.6489920
  82.6182445  43.5561580  22.4383254  81.2363060  44.1011924  22.1482081
  18.0245576  54.5089645  15.5469698  18.0028663  53.5914440  15.2750773
  18.3269391  54.4826812  16.4547724  12.7956367  56.3895893  67.9422188
  12.5407231  57.2155333  67.5310421  11.9825339  55.8872652  67.9948521
  20.8573508  75.4521990  51.7964458  21.5548015  75.3715277  52.4470520
  20.8992934  76.3652945  51.5123224  33.3736501  72.9093761   6.5941090
  33.0361543  72.9989738   7.4853415  34.0965066  72.2869129   6.6731829
  66.0749531  55.1998568  60.7701015  66.4144278  55.4303169  61.6348982
  66.8309355  55.2760506  60.1879358  25.8603621  79.3266869  55.1534510
  26.0827518  78.8760757  54.3387556  24.9040055  79.3667984  55.1516104
  81.4615710  50.5192394  12.4342627  82.0516618  49.7943134  12.6404376
  80.5850967  50.1393337  12.4950785  18.3693204  28.7245960  13.0994887
  17.7487836  28.1353635  13.5284133  17.8697286  29.5259542  12.9430766
  48.1628132  68.7346077  54.7505522  47.6783466  69.3516445  55.2989960
  47.9220724  68.9703703  53.8546228  36.9233308  21.9085187  21.5039439
  36.9557510  20.9768695  21.7212100  36.1812816  21.9890279  20.9046931
  15.2460418  11.5346689   4.5314021  14.8727450  11.8290395   5.3622002
  14.9044786  10.6479377   4.4161696  19.1996751  19.3968982  32.2348589
  18.9872346  19.6626443  33.1295485  18.8528524  20.1010961  31.6870970
  75.7027046   0.6652491  53.4720945  75.7729570   0.2140563  52.6308298
  76.4236490   0.3127711  53.9938593  86.1997040  46.0310669  26.0141081
  85.6341680  45.4266281  25.5334277  86.4397987  45.5540103  26.8084616
  59.0746504  38.4445877   0.0843091  58.8147505  37.9267854   0.8462615
  59.3265383  37.7950210  -0.5720811  74.6486672  53.9331550  31.9544501
  74.6057566  54.5997734  32.6400275  74.0260251  53.2619304  32.2337431
  40.1181841  68.2615232  68.8395500  39.4968200  68.8707876  69.2382145
  39.7209454  68.0293179  68.0001974  41.9212818  56.4571810  67.8317642
  41.8995285  55.7134628  68.4339571  41.0953856  56.4005089  67.3512268
  65.0593328  50.3076506  64.8862648  65.4476738  49.8203087  64.1596842
  64.8998642  49.6466255  65.5599451  29.3790469  50.1402492  10.8872027
  28.4850249  50.4788799  10.8393664  29.4948421  49.8987503  11.8061728
  11.9358525  39.0292663   6.6122574  12.0817361  39.1308755   7.5528044
  12.2089086  38.1315441   6.4231391  10.3804002  24.1124458  13.7331099
  10.3494535  23.8198490  14.6439642  11.0289011  23.5421629  13.3202452
  53.2452965  46.5655327  70.2178097  53.5931730  47.2367096  69.6306705
  53.9596081  45.9351969  70.3109455  30.1855073  55.3816337   6.2550444
  29.9261985  55.9658546   5.5425353  29.5865808  54.6382255   6.1852212
  65.2540970  69.4421673  45.5622816  65.3855515  68.8093138  44.8562717
  66.1390352  69.6974468  45.8229494  83.9638742  44.1424865  28.3347220
  84.8665913  44.0781040  28.0229754  83.8332017  45.0764103  28.4988684
  15.8383451  20.4313964  29.4342513  15.4549871  20.2643842  30.2952761
  15.0994716  20.7094068  28.8929457  78.0014380  17.6702423  23.3789343
  77.8747090  17.9106779  22.4611373  77.2468861  18.0470247  23.8316245
  20.6790161  43.7594748  26.2302113  20.5344677  43.7284470  27.1759248
  21.2964463  43.0483913  26.0588312  26.6769713  51.3707639  12.8794856
  26.7313405  50.8537211  13.6831946  27.4452522  51.9409408  12.9090685
  45.8914274  76.1637432  69.3297577  45.7949645  77.0900829  69.5507145
  46.8324334  76.0450120  69.2007589   7.1350185  71.9738771  16.2649054
   7.3284642  71.3280489  15.5854125   7.9490606  72.4673845  16.3650031
  31.9500470  26.1594605  57.4971247  31.2006736  26.3122797  56.9215202
  32.6718330  25.9569025  56.9019508  37.1326526  11.4786262  42.9258341
  36.1997708  11.3021679  43.0476088  37.4663623  10.7027692  42.4753756
  59.8899452  30.0526656   4.1842408  59.6724693  30.9841015   4.1473145
  59.2238800  29.6295323   3.6424393  20.6022835   0.7686945  60.0117588
  20.3216743  -0.0967399  60.3092718  21.3988566   0.9471579  60.5116129
  43.9990568  27.5667334  63.9613342  43.7698603  26.7379475  63.5408401
  44.7533560  27.3556209  64.5115089  16.6238475  28.6503720  67.7395105
  17.2357118  29.3387079  68.0003643  15.9671962  29.1019368  67.2092915
  70.1955531  34.2418456  60.4270983  70.0120793  33.8053799  61.2590027
  70.6558059  33.5829020  59.9072981  60.3745497  77.0500834  38.9758682
  60.5177319  77.9252643  38.6156058  59.4938495  76.8127216  38.6855960
  30.9962273  25.2413964  54.0508699  30.7336187  25.2957487  54.9697351
  30.6186438  26.0228944  53.6472273  16.2835932  26.7349410  38.4553599
  16.9386995  26.4627934  39.0980124  16.3703573  26.1023164  37.7422738
  33.5918225  12.5338580  13.4585566  34.1876719  12.3154499  12.7419753
  33.0064485  13.1955172  13.0900855   6.0101527  29.6756530  36.4192438
   5.6831366  30.1564026  37.1796203   5.6924659  28.7816954  36.5463138
  35.9963928  59.1399826  21.4853282  36.0093532  59.9476339  21.9989008
  35.5993764  59.3925478  20.6517691  30.1289940  11.3880205  60.4825306
  29.1926432  11.2921226  60.6565571  30.4574060  11.9058621  61.2175226
  27.8557118  70.3490276  65.2607155  27.2807797  70.8713598  65.8200455
  27.2643813  69.9256785  64.6383524  13.0382327  72.8372099  16.5722746
  12.2593645  72.4290396  16.9504160  12.6962165  73.4391214  15.9112448
  58.2135574  36.1814444  14.1360373  57.3281900  36.1707978  13.7723822
  58.0843560  36.1237838  15.0827212  68.4302302   1.8459434   2.7918667
  68.5644110   2.1958084   1.9110627  68.0615886   2.5777311   3.2866664
  15.8206785  10.4493403  40.2533770  15.3459942  10.5472457  39.4279552
  16.6413140  10.0217748  40.0084782  31.4530472  57.2671141   2.5172991
  31.8439896  57.8017630   3.2083458  30.5988085  57.6685991   2.3581833
  21.3523674  19.3185544  58.6796618  22.0361471  19.9357879  58.9398527
  21.3477612  18.6595774  59.3738937  84.6181769  31.9659805  65.5378437
  85.1343798  31.2206411  65.8448219  83.7085817  31.6919851  65.6552935
  59.7720210  39.1922923  19.5574851  59.1709296  38.5144024  19.8663325
  60.5684511  39.0583815  20.0712962  42.7944450  16.9931890   0.1596732
  42.7070359  16.0578610   0.3433890  41.8968264  17.2946765   0.0196118
  81.7533906  34.0813828  44.5388174  82.4737058  34.4938970  44.0621519
  81.1030464  33.8827801  43.8651419  23.0271554  13.4864652  62.7054214
  23.3016872  13.2380402  63.5881138  22.8335333  14.4217110  62.7691269
  31.9680573  73.9568593  32.4167246  31.2746541  73.4108974  32.7873320
  31.7965866  74.8314978  32.7657790  51.9013332  24.1588950  57.8551197
  51.3267086  24.7474670  57.3656082  51.5393184  23.2865548  57.6995564
  64.9902479  58.3095636  25.9039111  65.8458964  58.4764494  25.5086321
  64.3824855  58.3004655  25.1644702  84.7892720  74.9256540  45.1675749
  84.6491796  74.4047571  45.9583139  83.9980370  75.4584987  45.0884724
  19.7484753  49.9651678  21.5044207  19.8734609  50.0520529  22.4494357
  19.8046205  50.8610453  21.1720271  17.9756260  23.1128883  35.0221300
  18.1721580  23.9117742  35.5114055  18.4026992  23.2397151  34.1749263
  39.1399817  56.7561425   8.9743323  39.9971537  56.3446595   8.8640256
  38.9479021  57.1422602   8.1197877  26.4144015   4.3219483  46.2091684
  27.2244382   4.7655782  45.9576368  26.1358690   3.8640741  45.4160738
  27.2678244  58.0743744  35.3652663  26.7307409  58.7777306  35.0004859
  27.9379849  57.9154171  34.7005553   5.9384521  78.4781463  41.6487646
   6.8309077  78.5784439  41.3175535   5.3817614  78.7907467  40.9355974
  80.8105217  23.6331797  55.9427404  81.6038750  23.3675623  56.4077854
  80.6929974  24.5540047  56.1761904  18.4484375  34.9957108  49.1342783
  18.0027199  34.2501783  49.5364618  19.0822780  34.6011472  48.5352850
  67.1692501  31.7576671  37.6955032  66.6581414  31.2147212  37.0953274
  67.5769816  32.4168992  37.1338964  62.8772132  54.2425205  11.7558093
  62.3520438  54.2730512  10.9561247  62.9565946  55.1575650  12.0252986
  61.4012210  75.1813461   5.1633401  61.0883609  74.9696280   4.2838330
  60.6447474  75.5746342   5.5984301  56.4001600  55.0211038  13.3248801
  56.5982787  55.5351939  14.1076274  57.1158473  55.2190258  12.7208514
  16.6204953  53.6985493  51.6732740  16.6764987  54.3633556  50.9868860
  17.3358417  53.0929136  51.4790583  50.8271329  52.6860370  23.7906451
  49.8890320  52.8609587  23.8654894  51.2106744  53.5317065  23.5583300
  15.1469886  42.1514177  60.1977730  15.7907748  42.8465033  60.0612974
  14.9671447  42.1727037  61.1376810  50.2914158  68.3692982  27.8733058
  50.0799410  68.0415680  26.9991774  49.5122544  68.1785871  28.3955855
  63.5778944  68.9632727   6.6032214  63.7404768  69.8433830   6.9426388
  63.6498849  69.0558507   5.6532330  50.1736514  57.1315064  10.8687110
  50.8042089  57.2872116  11.5718360  50.3646723  57.8099872  10.2210993
  40.3190804  44.2379856   7.2682208  39.8789430  45.0491285   7.5223041
  41.0448885  44.5230675   6.7130989  75.5676359  77.6637925  61.6675234
  76.2935931  77.0557691  61.5277863  75.9805769  78.5267849  61.6984272
  10.2082169  14.8750639  69.1377974  10.5155039  15.0096631  70.0342846
  10.8519006  14.2818511  68.7504959  54.9906747  76.9133212  12.2859377
  55.5597893  76.1615707  12.1209807  54.9392835  76.9700147  13.2400794
  44.7657394  31.9954348  56.2817955  44.0931463  32.2541285  56.9118166
  44.3594074  32.1356368  55.4265404   3.0727134  11.7243595   6.4136595
   2.3953853  11.1755294   6.8089385   2.7674208  11.8744678   5.5189557
  21.0838359   7.6850488  14.0814204  21.6836303   7.4902703  13.3613200
  21.6465419   8.0277349  14.7757907  52.3917381  62.8110983  32.4196524
  51.7586533  62.9337384  33.1270403  52.3167221  63.6053516  31.8907256
  26.9734526  31.2289572  50.5116272  27.3519874  31.2564301  49.6328831
  26.0984230  31.6026783  50.4072714  45.7467318  25.0134110  62.0864725
  44.8535347  25.1375389  61.7654991  46.1325693  24.3795133  61.4818764
  12.7080774  22.7950716  67.9999065  13.0511117  22.6411486  68.8801718
  13.2879388  22.2944951  67.4259567  80.3950576  18.2207966  31.9150114
  81.2645446  18.5677731  32.1145892  80.1634352  17.6986754  32.6831079
  79.6035711  64.9056627   8.6532301  79.0894548  65.7074906   8.5584206
  78.9727489  64.1990020   8.5156674  40.2876798  37.3893173   9.1288704
  39.4722537  37.7549099   9.4718737  40.0377206  36.5350385   8.7767882
  38.9412693  56.5129508  37.4379057  38.3103083  56.2953820  36.7517752
  39.2893414  57.3668672  37.1811862  28.7705624  62.2950222  23.9531703
  27.8615140  61.9959857  23.9741511  28.9669338  62.3994138  23.0221648
  77.7181427  39.3461198   7.5846238  78.2923071  39.5066287   8.3334918
  77.5635664  40.2137421   7.2110314  46.5075223  74.5231201  23.6417384
  46.1867193  74.0061285  24.3806738  45.9027640  75.2630259  23.5865969
  39.3178467  67.5919034  33.1458659  38.8663987  66.7483737  33.1161398
  39.9985270  67.5229909  32.4764247  46.0083771  17.9790509  53.3830976
  46.2261200  17.9374945  52.4519205  45.0648880  18.1394398  53.4015179
  82.2702889  32.0565724  67.8080082  82.0072217  32.2795129  68.7009382
  81.6793819  32.5630260  67.2507238  29.0907715  69.1937615  45.2446265
  28.2755438  69.6424724  45.0203700  29.5691510  69.1385080  44.4173903
  58.5980200  74.5813889  60.1860094  57.8871875  74.1484393  59.7132492
  59.3965453  74.2256440  59.7960949   7.7896917  51.7040062  37.9574418
   7.0234311  51.6962385  37.3838425   8.1561428  52.5824118  37.8556967
  56.7145077  52.5012006  14.5194621  56.2583367  53.3047249  14.2694850
  57.6205651  52.6453378  14.2464823  18.0962276  54.4062662  60.9856749
  18.8803911  53.9012766  60.7704878  17.4412525  54.1131353  60.3521824
  47.0406232   1.7081899  26.5800185  46.7325912   1.0916538  25.9157652
  47.4355016   2.4221153  26.0794062  70.5800048  79.9192359  21.3017745
  70.0502960  79.3658687  21.8757338  70.2723257  79.7126796  20.4192252
  66.8668405  56.4807536   1.2621159  66.8088929  56.7672850   2.1735854
  67.3531357  57.1781029   0.8222861  53.4264771  69.5885469   4.4932837
  53.2432620  68.8518764   3.9102072  53.1142275  69.2989160   5.3505177
  46.9138001   1.4813879  45.6301928  46.1986778   1.3631903  46.2553787
  46.5201710   1.9664574  44.9049377  65.0561299   9.3302269   7.6441807
  65.9909256   9.5020265   7.7576394  64.7058829   9.3133230   8.5348410
  68.9608993  76.6852929   4.5781846  68.6478319  76.9084575   3.7015910
  68.7044754  77.4307706   5.1210875  21.8795500  68.1114318   9.3905730
  22.4242995  68.6141254   8.7849516  22.1100960  67.1984507   9.2186875
  63.2729673  72.5547171  66.1683369  63.7760592  72.0991707  65.4933500
  62.4698877  72.8280497  65.7249546  65.3255747  40.7458925  63.2452440
  66.2801622  40.6888723  63.2034779  65.1540850  41.5904522  63.6618376
   2.5826868   8.1497699  56.5163708   1.6714343   8.3459336  56.7340183
   2.5283790   7.5801551  55.7490253  59.4639293  30.7901515   1.3240714
  59.5773379  31.0751893   0.4173607  59.9215905  29.9507214   1.3702769
  20.8993936  26.6628742  53.5751677  20.3102589  27.2014546  54.1034508
  21.7672276  26.8227005  53.9460516  30.0520403  51.4263930  18.6565680
  29.1201313  51.3292803  18.8523860  30.2309589  52.3559834  18.7982745
  70.9650127  73.2314207   7.4261231  70.9365217  74.1206266   7.0729441
  71.8977825  73.0478360   7.5377936  37.5381563  25.2074971   4.1850085
  37.6354889  26.1208345   4.4544024  36.7191986  24.9239041   4.5913548
  36.9023490  14.1088891  45.3696537  36.1073351  13.6482608  45.6379938
  37.2932410  13.5437500  44.7032833  18.2633758  21.6403842  30.5730295
  19.0047228  21.5476894  29.9746609  17.5356472  21.2137866  30.1206398
  40.4814911  37.4962020  59.4857407  40.3240299  36.5701222  59.3018532
  40.0020885  37.9614043  58.8001823  50.5894001   2.9600925  10.4242320
  49.6784760   2.6681060  10.4587836  50.8443977   3.0583019  11.3415904
   9.4697744  17.8228247  33.3475184   8.9368755  17.6454043  34.1226149
   9.3635762  18.7615812  33.1936026  41.2211752   4.8437169  46.6429281
  40.6434345   4.4617155  47.3036289  42.0532942   4.3849093  46.7582941
  12.1778989  20.8369970  38.4884524  11.5139985  20.4931116  39.0861225
  11.7196155  20.9386015  37.6542544  68.6736868  30.5150032  22.0158195
  69.2310582  31.2397075  22.2993159  68.7085114  29.8889446  22.7390552
  29.9521913  68.2009866   8.2106490  29.3496644  68.3455993   7.4810738
  30.6898476  67.7304794   7.8224272  59.6105305  60.4555275  24.7487540
  59.6245209  59.9783375  23.9191050  60.3775374  60.1342644  25.2228064
   8.2224262  57.2128296  61.4921665   8.5833204  56.4722490  61.9795370
   8.3695453  57.9684591  62.0610332  80.1567606  75.6017113  59.8399878
  80.8378015  75.4019403  60.4822540  80.6276314  75.6905317  59.0113592
  30.0759378  39.1780158  14.0718836  30.3445994  39.5765431  14.8996729
  29.8272126  38.2838695  14.3061347  54.6246449  46.8693443   3.0335707
  53.8141624  46.4411648   2.7578682  54.8745219  46.4140637   3.8376326
   0.8110231  40.9633333   7.7796645   0.8064645  40.0360102   8.0169053
   1.3939899  41.0138990   7.0221514  26.0277796  33.0507421  55.6382418
  26.3805509  32.8315544  54.7758389  26.7822886  33.3741927  56.1305094
  35.5536604  32.1568847  70.0847197  34.7262788  32.5190496  70.4017496
  35.9690928  31.7898440  70.8650541   2.4853587  22.3339605  64.1042137
   1.6836780  21.8517971  63.9015865   2.1843566  23.2126045  64.3357611
  40.9022999  25.1787543  65.2340078  40.0436258  25.1977849  64.8114586
  41.2096357  26.0843372  65.1928139  17.5913320  15.9489078  11.5932269
  17.0892463  15.4638309  10.9383673  18.1454167  15.2878255  12.0081801
  14.4134462  24.0228391  64.1652775  14.0168417  24.5275426  64.8753500
  15.3555012  24.1482878  64.2794132  22.0722556   7.9027164  69.3733215
  21.6087365   8.3610034  68.6723518  21.4406657   7.2612351  69.6986294
  69.8750631  49.6726431  11.5148730  70.0578157  50.5592777  11.8258566
  69.2814485  49.7962119  10.7742114  48.9687244  64.9341418   0.8988757
  48.6149398  64.1687109   0.4459042  48.5326878  65.6795432   0.4859871
  32.5987048  79.0946581  14.6438689  31.7410246  79.4462301  14.8826403
  32.9809384  79.7620513  14.0740294  24.3655498  71.0515477  24.4365782
  24.2475368  71.9922401  24.5684905  24.1421763  70.6613161  25.2816004
   7.5533223  30.6543159  66.2674093   8.1108236  30.5044866  65.5038834
   7.3715967  29.7780037  66.6069460  76.9047533  49.2613840  66.9147921
  76.5258322  48.7591314  67.6361752  77.4277352  49.9388933  67.3433971
  21.4505506  27.7383971  59.9943113  21.2758851  28.1483841  59.1471815
  21.4092922  28.4594965  60.6224394  48.4489171  60.4337205   1.8629641
  48.9473287  60.5193271   2.6756711  48.9828698  60.8808591   1.2063117
  81.3557108   8.2101507   5.5309147  80.9132035   9.0589161   5.5344338
  80.6902583   7.5943775   5.2239508  40.5759144  21.2391973  50.8231163
  41.5052032  21.2681818  51.0507441  40.5359364  20.6748199  50.0510311
   8.8844413   0.9600037  62.3864508   9.4112027   0.1611566  62.4108982
   8.0456161   0.7056410  62.7710342   1.5049171  18.1420887  39.2562437
   1.0489725  18.2731962  40.0876045   0.9089306  17.6002800  38.7390637
   4.9956091  56.5743954  41.0758591   5.6575974  55.9183962  40.8575296
   4.1625698  56.1547620  40.8609533  51.8174926  73.2077100   6.8644661
  51.6854755  72.3643400   7.2975106  51.9050805  73.8345506   7.5825400
  19.9119649  29.5377369  16.1884303  19.9343524  30.2658720  15.5675025
  19.0456758  29.5934457  16.5917487  47.6994721  58.3983495   0.1947159
  48.4548024  58.4038009  -0.3932290  47.9361157  59.0072789   0.8943123
  51.6352836  51.7310609   4.0301032  51.1973635  51.6150238   3.1868977
  52.0342437  50.8801700   4.2118926  80.1215879  46.1754097  17.0143408
  80.2429191  45.3453319  17.4752993  79.7334997  45.9286900  16.1748499
  14.8873150  41.3918734  69.5425367  14.1177046  41.5509129  70.0890112
  15.4133582  40.7696819  70.0449181  18.9627624  50.8778667  59.7881508
  19.4624293  51.6921329  59.8475552  19.0411651  50.6151056  58.8710642
  60.8970729  62.6791956  17.2674937  61.1691348  62.0336177  16.6152281
  60.0080577  62.9215147  17.0083232   1.2339301  22.3091388  70.5914307
   1.7558372  21.6729045  70.1025057   0.5701807  21.7826462  71.0369349
  29.5605445  27.7938271  54.1046715  29.9332976  28.4055257  54.7395802
  28.7115693  27.5521231  54.4748735  48.9574591  63.0595614  14.4779391
  49.7982208  62.6956345  14.7552580  49.1899220  63.8127281  13.9348597
  43.9081172  70.0738670   1.0363144  42.9847626  70.0356199   1.2856812
  43.9151506  70.5729200   0.2195353  85.8651930  76.3635070  56.4220285
  86.4059931  77.1432267  56.5477467  85.8958084  76.2002320  55.4793549
  53.9914083  33.7265897  52.5424242  53.9652872  34.3398976  53.2768631
  53.0785370  33.6442900  52.2665215  10.4605865  25.9285331  70.3709841
  10.4836261  26.4604568  69.5755243  10.0981307  25.0892115  70.0874472
  23.2678390  27.8608918  54.5928860  23.0355096  28.5298324  55.2369165
  23.5770869  27.1215916  55.1163626  70.2622024  34.7754349  10.0300116
  69.6002475  34.2014326  10.4154677  71.0185854  34.2065229   9.8869986
  10.8987125  75.4148067  62.8142118  10.1924022  74.7964848  63.0013895
  11.0345324  75.8802731  63.6395168  20.7945561  30.7373142  45.8719063
  21.6679955  31.0252142  45.6064796  20.2575111  30.8468151  45.0871658
  60.8353321  50.2662070   1.5923829  61.1751548  50.7493253   0.8391518
  61.6132037  50.0382556   2.1014828  25.8379149  46.2727690  65.3290606
  25.7331944  46.4291048  64.3905354  25.9902835  47.1414757  65.7010365
  33.5862144   5.6287832  48.1633753  33.7553795   5.0476665  47.4218077
  32.6712712   5.8900089  48.0591101  38.9243929  77.2498204  20.3108496
  38.4428720  77.8331925  20.8974070  38.3275733  77.1017768  19.5772833
  83.4402370  26.2373590  67.6767397  83.3838463  27.0085096  67.1124935
  82.8495121  26.4296842  68.4049416  11.2782848  42.3844528  60.6378365
  11.8549085  43.1484747  60.6401873  11.6925788  41.7735815  60.0283861
  77.1160716  67.3633773  69.7220516  77.5446350  67.5968249  68.8986063
  76.1916918  67.2683544  69.4924355  86.1228631  17.5249898  70.0770426
  86.7105998  17.8937602  69.4176435  85.2548535  17.8432345  69.8290253
  26.1417727  68.1929399   4.1731829  26.8308745  68.8170578   3.9454836
  26.1296953  68.1881239   5.1302952  10.5928600  27.9028916  42.8420019
  10.6383717  27.1256661  42.2851562  11.0841966  28.5700369  42.3626947
  33.1137514  38.5977292  67.4659300  32.5041080  37.8616500  67.5184155
  33.1510258  38.9419508  68.3583164  59.2481899  33.2551765  52.7776527
  59.5268106  34.1688180  52.8397894  59.3601274  32.9098725  53.6633539
  44.4139246  20.6096269  20.2723403  45.2870695  20.9033300  20.5323119
  44.5036165  20.3814127  19.3470759   1.4043185  27.9306006  53.3170033
   2.0232372  28.1678033  54.0075922   1.7396212  28.3678770  52.5343227
  55.6619883   3.7157112  62.5257158  55.8392906   4.0201041  61.6356945
  54.7778273   4.0300173  62.7146673   8.2492650  61.9828033  64.6986151
   7.4823749  62.1583748  64.1533756   8.1585425  62.5819111  65.4396105
  38.5753226   7.7523744  66.9167948  39.0669799   6.9971865  66.5940046
  38.9552140   8.5003167  66.4558268  24.0543270  27.4033451  44.1762400
  23.8810444  28.1353021  43.5842609  23.6251783  27.6509190  44.9952459
  10.6482577  35.2204919  34.4619584   9.7469389  35.2225590  34.1396976
  10.8985841  34.2966199  34.4673181   3.8799775   6.5822071  67.5724125
   3.6420247   5.6555855  67.5410700   3.8110441   6.8160141  68.4980583
  32.5790811  23.7072277  64.3197250  32.5054717  24.6169305  64.6082592
  31.8461180  23.5874271  63.7158680  34.5718853  73.2254626  15.2138419
  34.0519289  73.4053709  14.4305701  33.9399896  72.8872945  15.8483309
  53.1904888  36.9507456  63.8255596  53.2963848  37.9020691  63.8242340
  53.0232573  36.7296433  64.7417355  82.7620228   8.0992527  32.0231623
  82.6552137   7.7074308  31.1563868  83.6841853   7.9584426  32.2376723
  24.1637516   5.8064044  46.7811537  24.2289209   5.9743977  47.7212381
  24.8826385   5.2023113  46.5953970  44.8658828  33.6047311   4.3107695
  44.9835793  32.7633490   4.7517390  45.1311556  33.4400840   3.4059186
   3.9542255  24.2466802  41.7995925   4.4416914  23.7355728  41.1535449
   3.8059530  25.0913257  41.3743491  62.3847214  65.6964304   9.9374098
  63.2552711  65.5186917   9.5813365  62.3118869  66.6507985   9.9268050
  86.1796536  75.3892566  18.0367465  86.8308916  76.0637476  17.8439231
  86.6213622  74.5647575  17.8334612  72.5162639  52.4550547  15.4133124
  71.7732849  52.5784721  16.0040564  72.5888958  51.5057005  15.3149123
  81.2488310  73.2217171  26.7659468  80.6181709  72.5019075  26.7853255
  82.0185081  72.8780796  27.2195334  51.8303919   5.1775736  43.8498545
  51.5867472   5.9082377  43.2815218  51.6228437   5.4818141  44.7333670
  49.8243141  23.2954049  45.7930422  50.4089308  24.0074158  46.0528421
  49.7803926  23.3576345  44.8388767  59.4870798  19.4578268  28.1892771
  59.4188229  18.5252764  28.3940310  58.8634483  19.5926501  27.4757380
  34.7293327  73.8203456  60.9085078  35.5896334  74.1753461  61.1323161
  34.2181090  74.5833780  60.6389422  71.0330886  76.9919638  65.8808041
  71.7166490  76.7536179  66.5070391  71.2154514  77.9061855  65.6636095
  34.5383596  22.8074551  61.5780497  33.7578869  22.5563979  61.0840178
  34.2185307  22.9678822  62.4658585  83.7109683  78.0526257  59.4953299
  82.8842662  77.6145220  59.2931890  84.3766249  77.3754072  59.3748856
  52.2880030   0.2737206  45.7545376  52.5776625  -0.1725848  46.5502405
  51.3410902   0.3638063  45.8616543  81.3462621  57.6563937  61.0773277
  82.2819835  57.8293521  60.9736729  80.9173709  58.4214289  60.6939125
  67.6792890  63.3380921  61.1563683  67.4870533  62.5019521  60.7319307
  68.0391175  63.0963475  62.0097828  25.1841826  74.4578578   8.2861037
  24.9279843  74.3857838   9.2055602  26.1408309  74.4840290   8.3053727
  41.5790359  58.9298643  13.9787478  41.7127375  59.8131897  14.3223853
  41.7602805  59.0072932  13.0420584  66.1315648  74.8642709   1.4583964
  66.0714165  74.8418762   0.5033536  65.8657591  75.7530357   1.6943545
  34.3372416  27.7611113  58.8663912  34.6521330  27.6727223  57.9667997
  33.6150622  27.1360826  58.9298630   8.9662349  18.4293282  60.5461931
   9.4429111  19.0857947  60.0381947   9.6498990  17.9244661  60.9865904
   8.4281931   2.7495880   3.8789315   7.7287326   2.8424806   4.5257372
   7.9801784   2.7908821   3.0340571  58.9748041  56.6817798   2.2302908
  58.0460612  56.8967058   2.1438260  59.4279067  57.3873176   1.7686171
   1.3530712   2.0871931  55.9670591   1.3669160   1.1853358  56.2875175
   1.6837487   2.0279907  55.0707483   8.0765835  63.5386683  33.2926840
   7.2809259  63.4171464  32.7746195   8.4236399  64.3827988  33.0041880
  46.9230366   4.7558710  46.4867401  46.8421745   3.9786893  45.9338570
  46.4372635   5.4346800  46.0182571  83.6603226  54.5509507  15.2392764
  84.3224397  55.2125718  15.4395003  83.8246980  54.3163325  14.3259520
   7.8149644  17.6166322  13.8164420   8.0422012  18.2744791  14.4735808
   7.0925323  18.0081250  13.3254618  19.2854989  24.8720264  47.1045256
  19.6633351  24.1270041  47.5718689  20.0002551  25.5060887  47.0468998
  29.1868472   0.6803573  62.7690983  29.9012613   1.0769315  63.2676697
  29.4877243  -0.2097113  62.5861120  20.2813721  20.5574560  47.7815628
  20.2323937  21.0333371  46.9524860  20.2578521  21.2406230  48.4516048
  14.5358109  35.9527302  58.5276651  14.6576643  36.4661431  59.3262815
  13.9800513  36.5004611  57.9732704  70.7454477  67.5364780  36.7544436
  70.1097618  67.4399424  36.0453463  71.5337525  67.1008348  36.4303684
  67.4925629  52.7630081  12.2538180  66.7939846  52.9617562  11.6303439
  68.2200829  52.4608840  11.7100615  81.8338652  12.8049576  27.5679660
  81.6274453  13.7293005  27.7065802  82.3690800  12.5631082  28.3238006
  57.6790992  78.6462070  24.9266810  57.6931397  77.9050423  24.3211169
  57.6838175  78.2454111  25.7959170  42.7975062  66.9885089  33.0525488
  42.6278476  67.9203536  33.1907935  43.3291666  66.9572737  32.2571940
  10.3471529  27.3287034  51.3485670   9.5924753  26.9888377  50.8677530
  11.0758901  27.2572660  50.7320690  75.5776636  46.1073472  23.7637610
  76.0049621  46.9600804  23.6831755  76.2051860  45.5697052  24.2468638
  69.3456213  81.2286784   6.2784476  70.0242273  81.4555098   6.9142718
  69.8095886  81.1712434   5.4431815  81.0997848  21.8088245  65.5089188
  80.7828270  22.3713636  64.8022938  80.3431324  21.2725639  65.7458448
  83.3785183  32.4687481  29.3061233  82.7522500  32.4588656  30.0299478
  82.9399590  32.9674006  28.6167455   4.3652362  54.0440369  53.6276197
   3.5029033  53.6740446  53.4386253   4.7194210  53.4849501  54.3191433
  46.2071220  62.6908495   8.8006873  45.7148782  63.3142163   9.3348593
  46.4727155  63.1929900   8.0302662  39.2130474  53.8971664   7.8917403
  39.4617192  54.3744387   7.1001572  40.0067596  53.8905670   8.4267230
  20.0559998  53.1572962  57.1539640  20.4089403  53.6636782  57.8855658
  19.1086197  53.1678772  57.2903061  76.5870754  32.9648324   1.5983529
  76.2068836  33.7821223   1.9204182  76.6734687  33.0965616   0.6542058
  11.9557118  52.7597046  65.1961994  11.1736989  52.3267603  64.8537874
  12.6189864  52.0700788  65.2229071  19.8860180  20.8108473  64.2581701
  20.2278638  21.1074996  63.4147406  19.6395802  19.8980153  64.1090441
  46.5631533  40.7239866  57.9571819  46.3690710  40.2863932  57.1282816
  47.4269342  41.1147642  57.8252172  70.7509850  58.5686684  65.4184055
  70.3118299  57.8088903  65.0361586  71.2002550  58.9817286  64.6810007
  21.8472815  33.8024306  67.9968214  21.4081097  34.5259714  68.4438658
  22.2418571  34.2035246  67.2224379  15.3409231  57.9667997  58.4365368
  16.1675668  57.7060032  58.8425875  14.9675214  57.1493340  58.1070662
  64.8867073  32.3175544   8.9200110  64.0885289  32.7154321   9.2676205
  64.5773657  31.6986770   8.2585473  36.2912917  10.8393002  70.9154892
  36.4324021  10.1463187  70.2704334  35.8937240  11.5532064  70.4169846
  53.6595249  67.2735023  57.3901892  54.5473385  66.9166040  57.4154949
  53.7312984  68.0556202  56.8430376   9.7901416  34.4046450  43.0763578
   9.2998677  34.3453932  43.8963270   9.9385160  33.4945083  42.8197050
  72.9870502  13.9294665  55.3438807  72.3781530  13.3389228  55.7874346
  72.4713842  14.7161334  55.1664829  54.8382799  39.2055281   1.5473313
  54.7729508  38.6812777   2.3455329  55.3993098  39.9421832   1.7898554
  21.6074920  59.8672152  69.8208809  21.3981032  59.9922180  70.7464981
  20.9905672  60.4334402  69.3571711  16.1924207  23.9357758  57.7532959
  16.7493117  24.1989732  58.4859848  15.2996624  24.0786600  58.0676222
  56.7348576  21.1851764  70.2342939  56.1816645  21.4981794  70.9500027
  56.1177349  20.9307504  69.5482492  75.2542539   4.2768116   6.4570469
  75.9671183   4.4747324   7.0644040  75.0980695   3.3390398   6.5684790
  34.2082009  12.8586931  21.7902655  34.9512849  13.3455438  22.1466918
  33.8433490  13.4358091  21.1194033  83.3250038  62.2034740  62.1257830
  83.1094043  61.3969088  62.5939703  82.6977055  62.8468561  62.4556160
  14.6884322  28.2036018  55.9582663  14.0039515  28.5461831  55.3835011
  15.2057004  28.9721179  56.1992025   3.2969248  60.1075697  41.2140560
   3.8748071  60.3927994  40.5062914   3.8909370  59.8076105  41.9020987
  43.5653766  25.7313795   4.9064583  42.7180131  25.8596391   4.4801325
  43.6263390  26.4476270   5.5385251  69.1314499  76.4848854   9.8879046
  69.7052185  76.1584141  10.5810446  68.5079996  75.7741072   9.7384448
  48.4864201   9.4275350   1.4714665  49.2368551   9.3653888   0.8805222
  47.9883577   8.6259813   1.3112349  12.4111495  36.4952583   5.3690381
  13.0168424  36.6390867   4.6419329  11.6182027  36.1532230   4.9561495
   0.6647334   4.4296951   2.1923251   0.7961855   5.1091404   1.5310330
   1.2470446   3.7188167   1.9243712  82.3263298  44.6165037  57.0756435
  82.0299472  43.7962246  56.6812658  82.9414902  44.3460035  57.7572870
  58.9516012  73.0940558  38.7760729  58.0724398  73.1755068  39.1457743
  58.8167731  73.1233146  37.8288741  23.3201337  24.1348147  59.4322634
  22.6570153  24.1227531  58.7420750  23.3082676  23.2475972  59.7913408
  13.1563580  43.6098480  67.1067524  12.5549483  42.9424334  67.4370480
  13.9158511  43.5560513  67.6868439  34.6140794  76.9649150   4.3933768
  35.1492832  77.4665071   3.7783999  33.9960156  76.4881207   3.8393921
  82.3114713  23.9425869   0.8336825  83.1403287  24.3295116   1.1156697
  81.6542681  24.6069927   1.0407633  24.7609234  36.4214754  64.2787504
  24.0771055  36.5150928  64.9419689  24.5985341  35.5634522  63.8867569
  16.3818550  45.4919434  49.7152996  17.2650301  45.1235867  49.7387028
  15.8782589  44.9452257  50.3183937  67.7515467  10.2105875  14.8015971
  68.6852272  10.3368206  14.6326632  67.3342486  10.9900207  14.4347567
   3.2387743  32.4478550  26.1897749   3.6880574  31.7414159  25.7257456
   2.3370180  32.4081392  25.8712000   8.2203823  33.6188197  60.1004267
   8.5570258  32.9456973  60.6918764   8.9904600  34.1347861  59.8616982
   5.0373507  39.9935436  67.4078560   5.7060361  39.6787095  66.7996073
   4.6216011  39.1977382  67.7396345  15.8650184  37.8292489  51.3167763
  15.5580544  38.1009316  52.1817541  16.6960692  37.3854733  51.4860344
  30.3083205  64.9813080  62.0148706  30.7262230  65.5646944  61.3814306
  29.4824409  65.4143667  62.2307777  83.2106481  28.3332729  47.2617197
  83.7119512  28.4574962  46.4558077  82.3013292  28.2666254  46.9702959
   4.4581789  64.0638758  16.7493720   5.2271551  63.5521509  17.0004649
   4.4082015  64.7588326  17.4057002   8.5517728  31.7468858  62.0838785
   8.4556049  30.8013153  61.9703770   7.7612442  32.0134091  62.5531960
  16.3239443  21.9819546  45.7641363  17.2788632  21.9179797  45.7805920
  16.1443710  22.9149818  45.8801031  34.3922077  80.7056715  11.2136263
  35.2080450  80.2056362  11.2382502  34.4358049  81.2732007  11.9831938
  44.5611505   8.7748091  49.7996330  43.8722567   9.0328925  50.4120445
  44.8673634   9.5994418  49.4222069  76.8453463  10.6443901   7.1449370
  76.6070326  11.4598627   7.5858969  76.9328161  10.8872385   6.2231965
   7.7146488   0.1309730  69.8246717   8.0399889   0.8574475  69.2930508
   6.9451916   0.4858141  70.2699327  29.2561611  58.9010944   1.9657511
  29.0532195  58.7805571   1.0381121  29.4116421  59.8411907   2.0567269
  24.2432594  59.9794674  69.4029617  24.4273376  59.2669964  68.7908030
  23.2990551  60.1191854  69.3309307   6.2684304  38.5845947  50.4332256
   6.0652626  38.7755060  51.3489246   6.2393832  39.4369888  49.9986982
  82.5204976  14.3343610  14.1462130  82.9109009  14.2868537  13.2735438
  81.9890555  15.1302642  14.1278548  18.0873871  36.3583732  52.1229553
  18.2088447  35.8829522  51.3010979  18.9320683  36.2876654  52.5676441
  27.0959821  60.1215543  16.7843718  27.2485531  60.3039719  17.7115626
  27.3429538  59.2029967  16.6771884   7.8212293  63.2376857  25.8263731
   7.7952393  62.4019594  26.2923360   8.7520941  63.4548433  25.7757616
  40.7237140  65.8183243  22.9681677  39.9128250  66.2290265  23.2681937
  41.0189096  66.3713624  22.2448153  79.3576412  45.1653242  59.9367142
  78.8354163  45.3603697  60.7148314  78.8734601  44.4699669  59.4914293
  31.7884636  29.8349500  59.2387247  32.1406150  30.6359148  58.8505554
  31.4216161  29.3513274  58.4986162  79.8147343  34.9521708  31.0450649
  80.1985346  34.1560769  31.4127111  78.9257060  34.6974897  30.7980871
  71.8989364  74.9951555  15.7131381  72.7082101  75.0690605  16.2189574
  71.2187568  75.3259494  16.2998004  73.1480543  74.0355899  66.3781733
  73.0423824  73.3436991  67.0311350  72.8196756  73.6503937  65.5657572
  73.5272447  69.3850495  13.3281226  72.8911726  69.8812558  12.8129382
  73.7151043  69.9455120  14.0810008  34.2705202   7.3924792  70.1636314
  34.4527102   7.3947066  69.2239332  33.7366796   6.6101551  70.3022480
  27.0459533  70.2182674  57.9326057  27.1412134  69.3644094  57.5106049
  27.6905441  70.7747269  57.4954700  51.5131513  67.9300191   3.1315655
  50.7056920  68.2140495   2.7031178  51.2176410  67.4452307   3.9022059
  28.0625010  25.4835558  63.2829762  27.8054786  24.9447846  62.5347137
  27.5823998  26.3030839  63.1641960  73.1243668  44.2381859  53.3554888
  73.2920275  43.4267473  53.8347530  73.2831214  44.0122080  52.4389935
  77.5570566  79.6317772  58.8349676  76.9752342  79.6289752  59.5950413
  77.3942036  78.7919340  58.4055805  73.2642492   6.3822336  33.4145159
  73.4094187   7.2191877  32.9733080  72.3211678   6.2345476  33.3436770
  70.0281564  63.5235526   9.0766329  70.9816829  63.4446503   9.1047949
  69.8612825  64.4576003   9.2028803  67.4754091   2.7310056  20.3710074
  66.9613614   3.3399934  20.9012122  66.8802931   2.0010442  20.2000517
  84.8125489   2.4539775  35.7631583  85.2937206   2.2898407  34.9521346
  84.4573291   1.5995235  36.0080237  14.5448709  27.2568107  69.1000795
  14.5590484  27.0776081  70.0402498  15.4124200  27.6145315  68.9113283
  12.2962928  63.9876556  50.7936382  12.0434272  63.0728674  50.9179306
  11.5117252  64.4071627  50.4405022  30.8153534  43.8981342  69.0872574
  30.9319520  43.6739159  68.1640244  30.0534225  43.3886194  69.3630981
  78.0850343   9.0971339  56.0217428  77.5284938   9.3052095  55.2712774
  78.4083657   9.9462527  56.3228846  31.8034387  57.9316092  30.2227712
  31.4998913  58.3754969  29.4309020  32.7567339  57.9156017  30.1378918
   6.5702528  31.8397236  48.6176968   7.3383480  32.0472002  49.1498756
   5.9770918  32.5783181  48.7550640  18.5453925  26.3286275  39.9722380
  18.6411176  26.8887729  40.7424922  19.1733823  25.6198711  40.1119704
  11.1700229  50.7553239  27.4211497  10.5048744  51.4406122  27.4858660
  11.0789994  50.4165335  26.5305419  11.2164930  73.2145144  11.5806765
  11.6005115  73.4135725  10.7267756  11.9100205  72.7548267  12.0538992
  24.8658824  76.5007925  62.3836660  24.9507999  77.2122765  61.7489862
  25.7640672  76.3165712  62.6585484  34.1650424  67.7108099  17.9274935
  33.7597824  68.1521084  18.6739821  34.9190954  68.2574655  17.7065749
  61.3803196  44.1748333  57.4166155  61.2446404  44.6409035  58.2416010
  61.8537331  43.3808851  57.6651096  34.7917652  36.5247965  70.3684855
  35.0045109  36.4813781  69.4362354  35.5030775  37.0371580  70.7528687
   7.2588261  60.3998263  54.9498129   7.4623474  59.5053274  54.6765280
   7.9387220  60.9356291  54.5412922  40.2259254  28.0484486  50.9114218
  39.9903989  27.1319604  51.0556698  40.0077009  28.2102203  49.9935770
  65.5827697  13.2336635  22.8734202  65.7264133  12.3310871  22.5889105
  66.4626660  13.5836906  23.0130477  68.8863872  56.0476923  67.1238708
  68.8677989  55.1588488  67.4786186  69.5796071  56.0278082  66.4641142
  24.6260343  20.6171722  30.5130572  24.5160995  19.8847742  31.1194796
  24.5427785  20.2235527  29.6445174  11.3745771  70.0140304  22.1039958
  11.4201484  69.3439312  22.7859969  11.3687453  70.8429355  22.5826640
  78.8324014   6.2132113  41.1658859  78.7025730   7.1516459  41.0290813
  79.6532385   6.1537307  41.6546822  53.3701229  27.3562574  59.4072104
  52.4642420  27.0781255  59.2720938  53.8672304  26.5395093  59.4523668
  24.9177408  44.9555969  61.4532185  24.4587541  44.7735119  60.6332159
  24.5047212  44.3754482  62.0928097  32.3164306  38.3158226  12.5474734
  31.3987002  38.5644168  12.6579279  32.3445497  37.3900480  12.7890963
  15.9595048  46.0268164  54.7520447  15.9978116  45.0716400  54.7030020
  15.0247335  46.2268114  54.8014021  76.2361999   5.4198188   8.6828608
  76.6959484   6.2578458   8.7336297  76.3687654   5.0214071   9.5430560
  71.7502232  44.9685306  19.4332690  71.1688121  44.3780536  18.9541716
  72.1103688  44.4302768  20.1381201  19.3481779  34.4507504  59.6285391
  18.4093702  34.5029426  59.8078346  19.6599734  33.7403727  60.1892328
   9.5947218  30.7402682  56.5956783   8.7138790  31.1147833  56.5863895
   9.4543892  29.8010302  56.7155552  63.5103838  79.3660929  26.7922873
  63.9009539  79.8580624  27.5145430  62.5936047  79.2569663  27.0449538
  57.5476972  53.1238069   0.6101079  56.9422666  53.7111773   0.1576943
  57.3623435  53.2582988   1.5395112  21.0115504  18.9000714  52.7711439
  20.9047174  19.8419094  52.6378822  21.3086557  18.5703564  51.9230556
  36.9724846  38.6690950  65.0352907  37.1305346  38.9524555  64.1347599
  37.8086877  38.3010268  65.3208208   3.1147698  50.6604385  65.1056576
   2.7007729  51.5068674  65.2741671   2.7488717  50.0780773  65.7713985
   5.4799902  78.6594248  70.5384922   5.2061552  79.5594072  70.7153463
   4.7651437  78.2888985  70.0208664   1.7727718   9.3771810  11.7362780
   1.5487132  10.3005809  11.8519015   0.9741554   8.9055032  11.9728274
   8.3024687  40.5975819  67.9239893   8.1308973  40.6640100  68.8633442
   7.7361763  41.2608957  67.5295877  39.9057317   3.2535791  48.5418940
  39.8995781   3.2564586  49.4990730  38.9815116   3.2952565  48.2963085
  18.8505340  46.6065788  61.1965370  18.3945596  46.0776472  61.8511677
  18.2626903  47.3440313  61.0327196  54.1084353  66.8976356  20.3410906
  54.4813363  66.0374452  20.5340952  53.5651485  66.7547442  19.5660681
  78.4423359  20.4446954  31.5346427  77.9064091  20.0421066  30.8513159
  79.0612252  19.7599191  31.7882056  75.7854341  45.3713274  60.8953476
  75.9359644  46.2456131  61.2547827  76.4955626  44.8392582  61.2543058
  22.7656698   0.1441037  39.6594238  23.5605955  -0.1311694  40.1160955
  22.4532390   0.8998939  40.1568174  40.4358498  70.2292301  22.7042002
  40.3336624  69.4768550  22.1213431  41.1497323  69.9817325  23.2918639
  73.6452065  39.3764758  62.5615549  73.4635471  38.5698509  63.0438280
  74.3904243  39.1582370  62.0018673  22.8213739  30.3143120  60.6387043
  23.4654522  30.8227277  60.1458454  23.3364749  29.8513627  61.2994480
  49.6335840  57.8061056  69.6014977  50.2720451  58.2930994  70.1224899
  49.7580290  58.1275272  68.7085056  77.5717870  75.2144267  25.2023120
  78.3587162  74.7583629  25.5006117  77.8298084  76.1352636  25.1609225
  78.4278830   4.3456907   1.5842337  79.2183765   4.8449249   1.7894501
  77.8057631   5.0012035   1.2687916   0.2676425  33.0601759  40.3109545
   0.2713690  32.9931612  39.3561167   0.3870282  33.9936275  40.4860110
  76.0529490  37.5756378  30.4832644  76.7777510  37.9026336  29.9503798
  75.2732547  37.7368850  29.9519438  25.3399014  29.2763829  56.5895462
  25.4397130  30.0828218  57.0954370  26.2304378  28.9363217  56.5027475
  22.3208904  27.4915528  51.2292051  21.9738936  27.2138977  52.0769882
  22.6808667  26.6924453  50.8444071   9.8358065  40.1090956  51.7411566
  10.1668906  39.3241549  52.1776009   9.4413608  40.6255579  52.4439478
  51.1377732  77.1214916  31.4939971  51.6501609  77.7755286  31.9693083
  50.2345292  77.4316766  31.5585417  82.6813905  21.7478061  49.2954111
  82.2932996  20.8875155  49.1356707  83.6224143  21.5802574  49.3467331
  64.2763058  71.4797427  11.6320414  64.6222560  70.7908990  11.0645575
  64.5789281  72.2946574  11.2313361  61.2799231  79.2930080   1.8003506
  62.0094983  78.7979461   2.1729989  60.4994671  78.9001896   2.1912617
  52.0504347  59.0889599  26.6015143  51.9130508  60.0006213  26.3441653
  51.9959036  59.0990235  27.5571150  22.0443964  53.5553694  55.2218914
  22.8444934  53.3351469  55.6989431  21.3432622  53.4373760  55.8627653
  36.7417893  25.1872749  11.0811038  36.5303168  24.7204084  10.2726836
  36.4955030  24.5806999  11.7794222  75.1258985  50.8165772   1.1409754
  75.4571525  50.0589182   1.6231103  74.1736213  50.7282682   1.1809582
  81.3112645  36.4346051  26.7833495  80.4256342  36.1468840  26.5617490
  81.1860095  37.0840335  27.4752951  19.3675542  44.4286060  49.4974279
  19.2648768  44.4632339  50.4484749  20.1331568  43.8709211  49.3593264
  73.4881536  77.2809340   1.7386574  73.6437742  77.9178883   2.4360127
  72.5976602  76.9668462   1.8955035  45.9700040  64.1693022   6.3298363
  46.7653565  64.3853285   5.8430333  45.3325168  63.9350893   5.6553120
  73.2019160  34.0125561  21.6219735  72.9257546  33.8670921  22.5268531
  73.3018373  33.1330299  21.2577200  79.0060560  18.2479978  59.0869045
  79.8775367  17.8699267  59.2044449  78.7170140  18.4637809  59.9735403
  84.8611329  47.5543022  65.5916786  84.8829351  48.4690952  65.3107691
  84.2803646  47.5511742  66.3525534  20.4234300   7.5941438   1.9924731
  20.0645766   7.3719616   2.8515954  21.3717685   7.5967569   2.1224112
  39.1707249  -0.1014071   0.7068390  39.2146154   0.7346649   0.2428431
  38.3513673  -0.0589829   1.1998744  72.0448867  79.5653536  10.2973456
  71.1245004  79.4750001  10.0504489  72.1136896  79.1095425  11.1362357
  44.1924826  80.2597763   8.5156960  43.4209553  80.3129460   9.0797419
  43.8521496  80.3935768   7.6311011  59.5360277  40.5906982   4.6753163
  59.8580458  41.1554927   3.9727873  59.0318633  41.1756916   5.2408547
  15.6803644  66.3836956  58.7865877  16.0970354  67.2282934  58.9576721
  16.1780250  66.0145235  58.0570126  24.4638467  21.9684982  55.7222319
  23.9772487  21.4664412  56.3759851  25.3102279  21.5255857  55.6613827
  12.3053193  32.0882726  50.9600449  12.1445322  32.6499057  50.2017879
  11.9031382  32.5544357  51.6929626   3.4497759  48.2713413  58.0463648
   3.3334461  48.9691877  57.4016094   4.2711818  47.8484344  57.7960110
   5.8393273  16.2611551   3.1092639   5.5651293  16.9507188   3.7138695
   5.3861532  15.4769582   3.4189457  28.4380269   4.7786281  51.8959188
  27.6637459   4.2912328  51.6145611  28.9208531   4.9488735  51.0871363
  68.7098543  46.9065996   8.7101073  69.3676035  47.4387975   8.2624859
  67.9020492  47.4153055   8.6400933   9.0490663  63.7290907  62.7048302
   8.8735956  63.3695602  63.5744143   8.5533661  64.5475483  62.6795530
  20.2584634  49.6200676   9.5433707  20.5870423  49.3623657  10.4046816
  19.3060098  49.5743389   9.6268553  54.9574296  74.0929319   7.4439091
  54.3604795  73.8239314   8.1421370  54.4860784  73.8923623   6.6353125
  42.0264039  16.2130518  12.2560782  41.4867196  15.5329580  12.6591296
  42.8773341  16.1299724  12.6864810  14.8729262   4.1686887   7.5891013
  14.0950523   3.8651866   7.1210904  15.4785476   3.4283418   7.5524754
  61.0715437  26.8684411  46.4131355  61.2734222  27.3934436  47.1876335
  60.3650475  26.2874269  46.6951227  62.8752549  32.8594274   4.5320315
  62.7306347  33.1263704   3.6242575  63.5340943  32.1673030   4.4760985
   4.2757259  19.7726602  26.2493033   4.5715509  20.5950803  25.8589835
   3.9173493  19.2742509  25.5148692  22.1174750  25.0652237   9.3008895
  22.0934472  26.0192270   9.2265315  22.4656615  24.9020023  10.1774497
  30.3638492   6.4836282  22.1548647  29.8319326   7.2494859  21.9386477
  30.3072772   6.4140338  23.1078524  68.3349939  24.4076175   3.9669127
  69.1959472  24.7892923   3.7957043  68.3850296  23.5271425   3.5947604
  13.8818393  35.2991552   7.4796242  13.2197557  34.6750993   7.7769894
  13.4008346  35.9116621   6.9231171  54.7738119  23.8733692  17.4232955
  55.5913677  24.2613239  17.7352709  54.3197538  24.5924968  16.9840617
  69.3882449  35.1640291  33.3096118  70.2059658  35.6561727  33.2364173
  68.7977477  35.5865593  32.6859088  53.1172371  48.7837172  52.6894665
  53.4067822  49.3653584  51.9865465  52.2528839  48.4820461  52.4099588
  82.5383989  64.7729828  43.0957026  82.0295755  64.1726138  43.6405844
  82.5516073  64.3600251  42.2322650  20.9620891  16.0886640  13.8331599
  21.2232671  15.4754467  14.5201678  21.3084445  15.7065982  13.0267520
  14.4179428  73.5700226  61.5413141  13.6171997  73.1638384  61.2095690
  14.8390543  73.9385414  60.7647228  73.9007608  79.4566395  25.4021449
  74.5299284  78.7493898  25.2601046  73.5867635  79.6775677  24.5253176
  85.0562088  71.7397262   9.9290747  85.0220911  71.4441563  10.8388609
  85.9389011  71.5128447   9.6364684  78.6826213  14.3557806   3.3942647
  78.1758841  14.4262428   4.2032666  79.4579824  13.8513727   3.6404748
  28.4010730   8.4053392   1.8976969  29.0400920   9.0796108   2.1284337
  28.4943090   7.7427358   2.5821681  79.2627962  32.8921670  13.4571070
  80.2162297  32.9749698  13.4756083  79.0552982  32.3436517  14.2136187
  46.1661768  61.0750818  66.2452841  45.7196331  60.8335447  65.4338121
  46.3212013  62.0160055  66.1624289   6.7342625  33.8235111   3.6028666
   6.6196046  32.8831644   3.4656519   7.5504241  33.8955898   4.0977521
  52.4263811  45.0582600  67.1407032  52.2880554  46.0050106  67.1682739
  51.5492344  44.6911526  67.0307827  20.5290780  17.4932642  22.2806830
  19.7720370  18.0413265  22.0739455  20.5011354  16.7911548  21.6306872
  58.5420752  50.7131004  65.8294439  59.4449520  50.4396439  65.6673574
  58.6070585  51.6465902  66.0309553  34.8552442  72.5755167  58.5119724
  34.8724008  73.0977392  57.7099657  34.5237660  73.1746435  59.1808558
  33.8017416  64.5530605  66.2076283  33.3071351  65.2873755  66.5714693
  33.4618354  64.4524574  65.3184891  28.9911161  23.1191988  17.6240534
  28.4550700  22.4565334  17.1884245  29.0916429  23.8125820  16.9718642
  58.7880850  68.0150127  29.3533802  58.1127834  68.6874247  29.4431472
  59.3069601  68.2957983  28.5996151  37.8318167  70.3822374  15.3687274
  37.6055884  69.7612619  14.6763110  37.2783017  70.1292610  16.1075497
  22.1982465  43.2257671  22.4334807  21.6116891  43.1338615  21.6826529
  23.0237184  43.5304374  22.0566458   4.5513290  77.5156237   1.0814280
   4.5295185  76.5747716   1.2562222   4.5636505  77.5816156   0.1265854
  30.8271980  76.7634869  30.0262499  31.3772488  76.2026262  30.5731630
  31.4375877  77.3868036  29.6323776  83.2407244  39.4944400   9.7842879
  84.1954358  39.4968433   9.8532099  82.9407151  39.8961372  10.5996794
   8.1158815  14.6597642  12.5649352   8.8384137  14.4966907  13.1712241
   7.6958833  15.4518051  12.9003520  40.6768417  37.8331709  62.3985338
  40.3336573  37.9433060  61.5117836  41.3235092  37.1318603  62.3197031
  14.0831218  33.4754772   4.5502038  13.5595689  32.7939767   4.9717230
  14.6720443  33.7850828   5.2383513  43.2141165  79.2248680  14.1560072
  43.9746479  78.9300062  13.6551280  43.4875147  80.0589492  14.5378298
  22.3993969  63.0552769  60.0463343  21.7211580  62.6657534  59.4945288
  21.9763565  63.1761885  60.8964252  21.3219009  27.5221223  15.3888983
  22.2218118  27.7300949  15.6401820  20.8065782  28.2623691  15.7093806
  10.3841918  71.2088444   0.9356684  11.0268348  71.8316747   0.5960745
  10.2631896  71.4642455   1.8501992  86.3674633  30.6912463  41.4623260
  85.6923858  30.3949588  40.8518219  86.5680877  31.5843909  41.1825514
   7.4969619   9.6330970  66.2539816   7.7791303  10.5225699  66.4672089
   7.2367185   9.2563956  67.0945740  55.2108288  68.8167048  54.0750599
  54.7759008  67.9657698  54.0204859  55.1431942  69.0615082  54.9979544
  80.2398308  38.9042205  68.3685011  79.9620755  38.0931825  68.7942977
  79.6133168  39.0270395  67.6553149  34.6461630  61.8823957  66.8291521
  34.4075823  62.7683687  66.5564585  34.9807739  61.9878483  67.7197409
  16.4464927  65.3719044  55.7784605  16.4836264  64.5949316  56.3362885
  15.9297025  65.0982141  55.0206661   7.2027391  58.4458017  70.3906012
   6.7121249  57.8299284  70.9348726   6.9862413  58.1965208  69.4921446
   5.8339129   8.4964103   4.8904414   5.1277933   8.6669464   4.2671103
   5.5082665   8.8418121   5.7216353  34.7722039  24.9741859  22.5408072
  34.0918765  24.5119447  22.0511908  34.3748365  25.1520795  23.3932681
  50.0300018  79.8977758   5.2472777  50.2211348  80.3417279   4.4210763
  50.8821575  79.8087146   5.6740470   3.0436287  74.5749111   7.9372925
   3.4633575  73.9573879   7.3383565   3.2576714  75.4371757   7.5810475
  83.8915615  32.3724484  57.1388435  83.8121782  32.6548696  56.2277079
  84.7751218  32.0095563  57.2009993  81.3476976  37.4996299   2.8060717
  81.1415132  36.8955917   3.5194106  81.3019641  38.3677978   3.2066054
  16.1513257  73.7929487  32.0343781  15.5482864  73.1841803  31.6077876
  16.3757253  73.3673859  32.8618884  52.5598431  77.7032232  68.7320566
  52.6799631  77.1154356  67.9861927  53.0373049  78.4969807  68.4907913
  26.6355658  19.3874264  54.2270994  26.8636298  18.5035717  54.5152283
  25.6852841  19.3648887  54.1144562  36.2878928  21.4652128   8.8390202
  37.0840488  21.9547624   8.6323447  35.6544242  22.1354026   9.0955157
  44.9238477  34.4654483  22.6653952  45.7438455  34.2527647  23.1110377
  44.8860488  35.4218311  22.6769251  14.5812941  64.4038916  53.9598656
  14.2540014  63.7105560  53.3868074  14.2668521  65.2142668  53.5590506
  67.0152235  52.0592737  61.1494017  67.0070887  52.9895163  61.3748217
  66.2258673  51.9335365  60.6227732  12.1006522   0.8397407  16.9524569
  12.6214776   0.8949871  17.7536578  11.2122808   0.6539602  17.2566218
   5.9525913  17.9190867  38.3170819   5.3510517  17.7655261  39.0456414
   5.4772466  17.6117938  37.5451660  57.8859560   4.7608130  69.0660667
  58.7087647   4.4601481  69.4518423  57.6578943   5.5432742  69.5680285
  41.1865473  70.8318949  45.5920601  40.3424311  71.1204004  45.9391499
  41.2875652  71.3176250  44.7734690  13.0663858  34.5634622  15.9976859
  12.7338634  35.3187198  15.5126662  12.8104339  34.7298307  16.9049067
  44.4589472  73.7576723  64.2521477  43.6702394  73.4120512  63.8341475
  44.3668890  74.7082949  64.1882992   4.7188029  26.8841047   9.5558638
   5.2277360  27.4851818   9.0118689   4.7637711  27.2601957  10.4349322
  27.9174409  11.4012928  12.6372618  27.0330939  11.5843124  12.9545493
  28.0204043  10.4559917  12.7469534  85.6007584   2.2217102   9.1622252
  85.2013787   2.3218078   8.2981009  84.9253805   1.7960949   9.6903796
  53.5443783  56.7737103  47.9011583  52.7870941  57.1957207  48.3069468
  54.0278101  57.4914074  47.4919701   6.9073289  63.3360745  50.3417868
   6.3980239  63.4556319  51.1433787   6.3204616  62.8605558  49.7538275
  84.4363920  68.7821986  11.5695948  84.6635620  68.5224726  10.6767554
  85.1696197  69.3277075  11.8542475  69.9367229  74.0343882  35.9514136
  70.5558387  74.3282153  36.6196913  70.4877750  73.6787965  35.2541823
   0.9120164   0.5862302   2.2739930   1.1837635   0.3261585   1.3937945
   1.3969812   1.3934202   2.4456830  21.5623221  52.5794811   8.8681120
  20.9164653  51.9091529   8.6450619  21.4821038  53.2306881   8.1711716
  49.5616118  75.7757069  27.7039523  50.0316683  75.3028061  27.0171923
  50.2493755  76.0988237  28.2860274  37.7740145  22.1619797  54.9099922
  38.2658362  21.4274907  55.2772427  37.2261858  21.7678714  54.2311764
   5.3453630  11.0165923  49.7686386   6.2457269  11.2517874  49.9928188
   4.8537248  11.1517375  50.5787373  45.4152060  60.0453281  62.9025841
  46.1182690  60.6944656  62.8790855  44.8936319  60.2287626  62.1212101
  77.2317600  54.3056345  63.1794453  76.3386011  54.6003056  63.0014944
  77.7811861  55.0558662  62.9524851  47.8318934  68.4137823  29.5879740
  48.0554704  68.6520149  30.4876895  47.0274095  68.8989736  29.4046015
  59.3048286  40.0795364  64.4299269  59.6455908  40.4904890  65.2244282
  59.5691299  39.1624045  64.5023918  84.4040640   4.1583509   7.3363776
  83.5381182   4.5559139   7.4275488  84.3768652   3.7171382   6.4873643
  74.0146466  50.3072948  64.6730036  73.7720271  51.2212295  64.8216528
  74.6153684  50.3370304  63.9283747   7.5909108  46.7276239  51.8805456
   8.1178230  46.0014915  52.2141933   6.7215550  46.5844011  52.2546291
  64.1944226  19.5385284  29.6700091  64.0534075  20.4643650  29.4720931
  64.0936973  19.4786472  30.6200118  41.3715784  55.4758574  11.6782851
  41.9362656  54.9391271  12.2344107  40.4953162  55.1119127  11.8045325
  50.3353254  31.6311972  51.8545723  50.8879773  31.1922400  51.2079382
  50.6135241  32.5466101  51.8254757  32.6559339  13.5071010  37.9687209
  33.3557210  13.5245723  38.6215777  33.0980907  13.6860056  37.1388239
  75.9907659  30.7608957  14.6991915  75.4758497  31.5675182  14.7204680
  76.2640496  30.6752128  13.7858481   2.9205570  58.3332777  56.2359381
   1.9669750  58.4042788  56.2792063   3.1587207  58.7934113  55.4310894
  60.0490475  59.3369007  22.4004292  60.8390713  58.8002443  22.3364234
  59.7378254  59.4135189  21.4984870  24.9071360  75.0706577  56.5341759
  25.6315136  75.4561090  56.0412931  24.5081353  75.8107376  56.9916821
  39.5257501   8.1553023  61.2360334  39.7125308   7.5100844  61.9179773
  38.8881139   7.7244227  60.6668234  58.5115433  61.9027472  65.8456278
  58.9419460  61.6061544  65.0437498  59.1714144  61.7855787  66.5290546
  60.0170755  57.5590706  47.0787287  60.4323530  58.3849049  47.3272705
  60.6512690  57.1369648  46.4991951  19.7639358  79.6644163  70.7784796
  20.4745793  80.2655220  70.5551243  19.2119288  79.6451378  69.9967194
  26.6588736  60.3729916  63.5751915  26.5600443  60.3503942  62.6233721
  25.8565497  59.9715519  63.9088917  22.3715258  32.8794599  62.1770144
  21.4440131  32.6857543  62.0412636  22.7197123  33.0135727  61.2955332
   8.9064544   6.6690390  36.3266492   9.8024362   6.7935317  36.0136795
   8.9487403   6.8722384  37.2610760   1.6623578  20.9630174   3.5307784
   1.2081227  20.6835956   4.3256564   1.0670791  21.5922184   3.1233639
  67.0593309  78.2214594  60.6979704  66.4674950  77.6164198  61.1450529
  67.0368195  79.0162325  61.2309456  22.6219258  31.2143297  13.2942957
  22.9047380  31.9905204  12.8107924  21.9088016  30.8515138  12.7688975
   6.2091726  19.6096080  56.5870190   6.9412178  19.5442145  55.9737778
   6.4681714  19.0623324  57.3284006  39.4863796  78.9086056  35.3936791
  39.5234442  78.6603165  34.4699860  39.6438313  78.0920506  35.8676863
  45.5578599  23.3285493   6.1180110  45.3099570  22.4071283   6.1938710
  44.7282682  23.8041086   6.1610932  74.0364631  20.0724907  12.8913970
  74.5288940  20.5995864  12.2621817  73.8692041  20.6668968  13.6227889
  38.6619258  55.7316971  47.0873213  37.9956841  55.3330612  46.5274572
  39.4602919  55.7136965  46.5595722  78.2647840  26.1495154  63.4821892
  78.8405410  26.0905879  64.2445993  78.7838594  26.6135829  62.8253555
  69.4136095  70.0813103  60.8486223  68.7844038  70.2347565  61.5534496
  69.0302372  69.3695974  60.3360558  57.9342318  51.7513561  49.4663620
  57.4446535  52.1078396  50.2076197  58.2723427  52.5217676  49.0098810
  48.2697248  65.0773668  59.2739201  48.3655643  65.9056282  58.8037777
  48.1378698  65.3339052  60.1866293  56.7968082  68.7017584  61.4996004
  57.7048445  68.4048510  61.4400625  56.8585539  69.6564436  61.5311003
  65.5839062  59.8026133  38.4792495  66.0108662  59.5836830  37.6509929
  65.6589603  60.7547283  38.5430694  40.1601300  47.0339412   4.3365235
  41.0739598  46.7491455   4.3431754  40.1523576  47.8265400   4.8731417
  65.2634430  50.2393293  57.6964045  65.8195543  50.2744484  56.9181061
  65.2132845  49.3083334  57.9131174  56.4205209  80.6125118  35.0540251
  55.6746451  81.1168935  35.3788371  57.1514384  80.8800628  35.6111712
  49.0363312  81.1319828  54.3550968  49.2034292  81.0375786  55.2928591
  49.9059486  81.1267090  53.9551306  27.3095352   8.2049124  67.5111103
  27.9204086   7.8754275  66.8519449  26.5825785   7.5823825  67.4963951
  53.8336960  26.2505954  49.6036434  54.4422881  26.8719714  50.0033188
  52.9668085  26.6124575  49.7874641  60.1716042  67.7442980  62.8471947
  59.7054482  67.7648258  63.6829615  60.8998680  67.1406889  62.9939079
  12.7811895  22.0400829  19.9648280  13.1953845  22.2170419  20.8094401
  12.0905385  21.4081258  20.1644892  43.4777546  61.1874247  51.3603926
  43.9444685  61.8082714  51.9198227  42.9000282  60.7134533  51.9585705
  26.6313014  17.8748626  30.3428931  26.9028077  18.7886400  30.2561183
  26.6772065  17.5258035  29.4527907  83.7142563  56.3232613  26.5991759
  84.4681358  55.8752728  26.2154961  83.8827324  57.2524548  26.4427996
  62.9270458  52.6165390  55.1645851  63.0930948  52.3875475  56.0790396
  61.9735956  52.6724863  55.1010180  60.3218317  73.6588001  67.2081327
  59.8914909  73.2657623  67.9674482  59.6979856  74.3116331  66.8905592
  29.0459905  34.7976131  28.4511561  28.5310731  35.3335971  27.8479857
  29.2291102  35.3775901  29.1903014  70.3493214  48.1396866  49.3564796
  71.0502291  48.4688473  48.7937927  69.5868444  48.0824280  48.7806511
  75.4356476  28.1182451  13.5272212  74.5397671  27.7899618  13.6037917
  75.4637786  28.8760681  14.1112990  15.3971706  13.5469837   8.1010766
  14.8143277  13.2429857   7.4052949  16.2766013  13.4527082   7.7350897
  22.8191028  65.9113807   3.5805220  22.4181542  65.6465263   4.4083638
  22.6088462  65.2009506   2.9744572  16.6405997  19.7385759   8.2473750
  16.1009059  19.3011827   7.5888533  17.5407538  19.5378227   7.9911418
  53.2496405  79.5429325  39.6446252  52.3185015  79.4897842  39.4292593
  53.2726192  79.5791769  40.6008625  81.0784332   0.2586406  63.3549500
  80.2367202   0.7143729  63.3469486  81.6108886   0.7277243  62.7125406
  10.2783642  72.2558326  19.9970526  11.1772952  72.3754711  20.3033824
   9.7434673  72.3367137  20.7867236  10.4054580   6.7585868  15.3961558
  10.9925757   6.0976286  15.0291915  10.9307990   7.5583572  15.4209036
  61.0959641  27.8185599  58.7255001  60.2913539  27.3293631  58.8973284
  61.4457027  27.4302809  57.9235315  74.5899602  29.8216362   0.3373618
  75.3568085  29.5539732  -0.1691251  74.6231075  29.2804546   1.1261983
   2.5860864  70.1372910  36.4899969   2.0868027  69.8874187  37.2675014
   1.9578449  70.6092501  35.9433746  77.5344555   5.6666606  50.2235889
  77.9610960   4.9375193  50.6736517  76.7845527   5.8840888  50.7773113
  58.7436628  54.1472483  63.2726908  58.3162642  54.6078968  63.9947510
  59.6562529  54.0631866  63.5489845  64.6084976  50.7005167  50.3125095
  64.6347141  51.3461637  49.6063328  64.4663429  51.2180710  51.1050749
   1.0038274  64.6947719  29.6799941   1.6713470  64.8203804  30.3544325
   0.7351488  63.7810995  29.7761435  44.5090184  41.5489883   1.2502379
  45.3745637  41.4158363   0.8637995  44.4662891  42.4893589   1.4237685
  22.8184638  41.2624664   3.3506531  23.0583510  41.7383022   4.1458077
  23.6210904  41.2471981   2.8293223  12.6612268  12.0310611  20.9831042
  12.1559606  11.8752451  21.7810149  12.3290572  11.3854332  20.3593535
   5.3681145  24.4592208   8.4645648   4.8500285  24.3978185   7.6620431
   4.9679360  25.1782245   8.9535708  58.6489964  60.7858038  61.5092373
  58.1339312  61.4977074  61.1295891  58.2609892  60.6434727  62.3726177
  84.7984735  60.4180838  23.5559268  84.0005151  60.6625201  23.0871481
  85.4247848  61.1086537  23.3389563  84.2021282  47.8605003  32.1826739
  83.5527023  47.1660347  32.0722384  83.8581069  48.3990020  32.8953356
  68.1791973  67.1172857  67.1689796  68.6696148  66.9988108  66.3555336
  67.2675228  66.9585037  66.9243002  79.8390039  36.8309278  11.0211463
  79.3403061  36.1348552  10.5933375  80.7150205  36.7664356  10.6407923
  55.3914070  47.7089882  64.7358847  55.8854342  48.5288048  64.7442055
  55.7036304  47.2333813  65.5056572  51.2067938  70.1765585  42.2705173
  51.0772467  71.1245918  42.2965431  51.9414377  70.0516129  41.6697550
  84.6813019  38.3358593  12.5670428  85.5409821  38.6191577  12.2557158
  84.6449908  38.6351509  13.4755320  55.2945201  68.3810617  12.6515383
  55.2551524  68.5453774  13.5937113  55.2096287  69.2474534  12.2535605
  60.6048441  47.0417833  50.4517746  60.5908346  47.9592228  50.1791239
  60.3834724  47.0651770  51.3827324  29.3231330  25.3518076  16.1867899
  28.5606084  25.3114576  15.6095881  29.5252452  26.2851686  16.2517256
  17.4460214  11.3706343  21.9004440  16.6926807  10.8042281  22.0674372
  17.2183460  12.2013228  22.3179936  16.6854882  77.1065664  68.0382538
  17.5652003  77.3352957  68.3382845  16.2349737  76.8031120  68.8264036
  60.6333303  60.0446463  48.4290457  60.4294872  59.8856783  49.3506813
  59.8338223  60.4293156  48.0698109   2.9423851   0.4126685  33.8941646
   3.7756866   0.0767653  33.5640073   3.0165475   1.3631575  33.8087273
  33.1014013  59.4476700  60.2970314  33.1705403  60.1365471  60.9580135
  33.6526775  58.7397003  60.6303596  49.3419981  43.7020731  69.4077015
  50.1201487  43.2761908  69.7673273  49.4577932  44.6288633  69.6171904
  68.6401574  15.7694762  42.1889925  67.7380864  15.7575362  41.8690586
  69.0346519  16.5315192  41.7648506  59.5541286  46.9948101  56.8474627
  60.4120398  47.4184942  56.8741369  59.7261190  46.1287022  56.4779902
   1.9808660  35.5590887   9.8918719   1.5998421  34.9261779  10.5005354
   1.9267974  35.1317854   9.0370459  69.3446581  21.8078559  54.0005827
  68.5108558  21.3499110  53.8943148  69.2579309  22.5921386  53.4587193
  82.3380764  37.0951480  17.2542662  82.2954090  38.0144901  16.9911666
  81.6223796  36.6758461  16.7765708  46.1220912  69.3199112  33.9239592
  46.9427458  69.5243217  33.4756560  45.5178074  70.0067641  33.6423392
  80.6682642  39.8717994   3.8688654  80.6937512  40.8132381   4.0399832
  80.2392371  39.4998283   4.6394534  75.4697974  49.0391655   9.0789122
  76.0007139  48.4273643   8.5689492  74.7392674  48.5112781   9.4012351
  73.9793015  36.6028833  64.4542599  73.3725977  37.2298837  64.8479795
  73.6540318  35.7470822  64.7336102  17.7607379  31.1626310  12.8212161
  17.0017371  31.7455978  12.8039450  18.3514724  31.5574808  13.4625907
  36.1714587  26.9016237  15.1326747  37.0270000  26.9370336  15.5604930
  35.8452163  26.0218782  15.3220076  25.9697232  71.1013240  12.7297587
  25.3266130  70.8935947  13.4076209  25.4799781  71.6084785  12.0823187
  82.3479899  59.7210140   6.0346551  82.4209793  59.3254776   5.1660628
  81.8043192  60.4971523   5.8994813  76.7011364  38.4473438  21.7770857
  77.3437591  38.5794420  21.0800738  76.4569147  37.5245590  21.7059512
  54.8659420  46.3290310  49.2137432  54.2594147  46.6696835  49.8712444
  55.6778240  46.8136215  49.3629313  80.1125510  22.4941654  31.6289801
  80.6082090  22.3759813  32.4392790  79.5331558  21.7332620  31.5894789
  49.8649836  49.7114849  67.8863430  49.1474199  49.3583107  68.4122705
  50.4084253  50.1894188  68.5128307  -0.0500646  49.7241611   7.3854632
   0.8064590  49.8705883   6.9840188   0.1420794  49.5707054   8.3105368
  31.7488907  12.8695338  62.3434496  32.5947926  13.2481807  62.1040583
  31.9705025  12.1058028  62.8762102  35.5696569  63.8907356   0.4966588
  34.9310956  64.4100971   0.9852690  35.2785287  63.9475650  -0.4134231
  61.0624313  72.0001698  56.7752552  60.9360695  71.7205906  55.8685589
  60.5759239  71.3591623  57.2935677  49.6353960  68.2622194  47.4854136
  49.0985966  67.7713728  46.8632030  50.2953768  68.6945581  46.9434357
  33.3077321  15.1445169   7.2725625  33.6267028  15.8537216   7.8307004
  34.0416846  14.9498004   6.6897816   7.6787338  31.0927553   2.3674626
   7.2422776  30.6783504   1.6231484   8.4916196  31.4434833   2.0035405
  50.1843200  60.1522369   9.4786257  49.2598090  60.2429123   9.2477841
  50.3211818  60.7938499  10.1756472  46.3150358  69.5804167  64.0339804
  46.3282108  69.0897083  63.2122374  46.2779093  68.9078140  64.7140265
  75.8837076  24.9798460  11.8240065  75.4951282  25.3229827  12.6286788
  76.5139659  24.3243808  12.1229548   3.0368886  31.2959880  16.8588728
   3.0126104  30.5271072  16.2892527   2.1827731  31.3010282  17.2909541
  59.2774860  21.2895625  62.9464674  58.5053364  21.4379065  63.4923744
  59.9758641  21.7787974  63.3813810  26.3652263  33.1459589  22.0817179
  26.9715200  32.7092905  22.6800150  25.7674728  32.4538154  21.7991156
  27.0612559  15.8509607  14.9449534  27.9748712  15.5728120  14.8803801
  26.9400869  16.4484949  14.2070384  28.1180811  39.9237895  61.3240433
  28.5035706  39.4407845  60.5930614  28.1392360  39.3074393  62.0560932
  69.5790863  60.0644684  27.7212262  69.2374468  60.6891346  28.3609986
  69.5781469  60.5448771  26.8933129  52.9770026  25.3160734   6.9753832
  53.3053813  24.5100755   6.5769190  52.0415530  25.3196783   6.7725463
  51.3433790  75.7999182  64.8777914  52.0382118  75.3293133  64.4173908
  50.5335569  75.4817533  64.4787931  39.1301769  78.3783080  12.9897208
  39.7730297  78.0956437  13.6401648  39.2779201  77.8012349  12.2404570
  73.0426399  13.7964099  48.9038134  73.1910984  13.6498587  47.9696226
  72.1471492  14.1307204  48.9544773  56.1646310  16.1633151  55.1412201
  56.7212717  16.3527434  55.8965349  56.4710704  15.3134005  54.8250151
  75.6219633  31.2150545  18.6780638  75.0253196  31.5698642  18.0190081
  76.2035008  30.6346340  18.1869978   9.5196757  44.0397090  28.1305785
   9.8108754  43.7171955  27.2776885   9.9345026  43.4529132  28.7629027
  56.2373273   9.6528666  18.0745494  57.0498673   9.2072432  17.8348923
  55.7176654   8.9817851  18.5170865  25.4115996   6.5178461   3.9862008
  25.6266008   6.1153860   4.8276467  25.1252875   7.4032802   4.2103953
  81.7995779  81.0756661  21.9370169  81.7047397  80.8456637  21.0127062
  82.6226083  81.5625455  21.9794459  78.7032183  38.7663717  19.7953505
  78.4895380  39.4071025  19.1170878  78.5452469  37.9178209  19.3815417
  73.0690900   3.5924571  63.1900549  72.9204599   3.5095828  64.1320086
  72.9757825   2.7012294  62.8535318   5.4774222  29.5129032  32.0959467
   4.8661838  29.2864389  31.3949961   6.0751424  28.7667389  32.1428675
  14.5402330   0.7680648  47.2182560  13.8103145   0.4302256  47.7372122
  15.2612442   0.1646083  47.3977566  64.1191761   3.3487933  66.8478632
  64.6448127   2.7448313  66.3232946  63.7610404   3.9686148  66.2124157
   0.5018270  50.2254868  49.3096876   0.5141972  50.1122665  50.2600861
   1.3240901  50.6734705  49.1111279   3.7782472  18.2700961  52.5397921
   4.4210571  18.8696997  52.1609879   4.2274326  17.8798812  53.2895899
  24.7310758  74.1488504  59.0439987  24.7740793  74.4076061  58.1234407
  25.4487991  74.6258354  59.4606447  53.4713221  61.2173748  53.2507229
  54.0734196  61.9069290  53.5304260  53.0500174  61.5706015  52.4671650
   6.4077705   3.2066005  68.2853079   7.0295852   2.5579684  67.9553699
   6.7317003   3.4262412  69.1588402  51.3182918  70.4149629  56.8740458
  51.5474812  71.1999776  57.3715014  50.7189147  70.7273914  56.1962885
  72.7143860  65.6446171  65.2496243  73.6341858  65.6411266  65.5145502
  72.5743389  66.5172195  64.8819590  21.1768699  56.5362501  45.8643532
  21.6477895  57.1965599  45.3559589  20.7296300  57.0346260  46.5483284
  35.6629691  23.8853950  32.5540537  35.6287370  23.7523241  31.6067690
  35.1616893  23.1550664  32.9167838  62.4255881  15.0432272  10.2431674
  61.6205344  15.5535240  10.3310008  62.9391513  15.5167980   9.5887847
  75.9172432  12.9093402  42.3880720  76.5816681  12.7489226  41.7179632
  75.0860826  12.8734820  41.9146633  52.7157068  78.7144756  45.1839161
  52.3265219  78.1775904  45.8742189  52.8516245  79.5690727  45.5930901
  24.2722974  17.9019756  15.8641333  24.9656139  17.2774953  15.6506629
  23.8737712  18.1150837  15.0203318  14.2582220   9.7201579  49.7128248
  13.9891809  10.4940932  50.2076721  15.2135318   9.7736399  49.6852636
   6.4361796  15.3503675  33.7535853   6.8358622  15.4145689  32.8861899
   5.5177174  15.5795164  33.6116404  37.6042581  68.5539103  28.5038471
  37.8349304  68.9717007  27.6741052  38.0611277  69.0707922  29.1674232
  33.3416066  48.3885116  37.4846835  33.7927613  48.4145183  38.3284850
  33.9881072  48.0268974  36.8784613  73.6981865  22.3521871  27.8739352
  74.0366193  23.0923481  27.3700995  74.1033967  21.5836687  27.4721617
  65.2757788  61.1521101  44.4400072  64.8776722  61.8361282  44.9783945
  65.9568167  60.7749557  44.9969387  62.9572344  67.6311922  58.0496168
  62.1546364  67.1103621  58.0779076  63.1050110  67.7930403  57.1178436
  15.0377116  62.0404167  17.0138163  15.2946363  61.7501373  16.1386199
  15.4879508  62.8770275  17.1304698  20.5496821  38.2058734   0.8358378
  20.5004487  39.1392345   1.0423512  20.0945506  38.1216163  -0.0020080
  50.8288131  42.2087783   6.6340775  50.4553590  41.4396877   6.2036557
  50.7885633  42.0036525   7.5681729   0.5649028  51.5901775  10.6480116
   1.1050258  50.8116455  10.5123896   0.7066522  52.1196956   9.8633189
  79.4601814  12.1807616  57.2378635  78.9039127  12.9590552  57.2052193
  79.2244808  11.7522471  58.0606937  12.5997291  56.4834518  48.4314437
  13.5025249  56.4555664  48.7483210  12.3746190  55.5674381  48.2686705
  40.9582458  20.0193758  15.6177516  41.2339578  20.8931274  15.3406615
  41.2074790  19.9710292  16.5406699  86.4416305  21.7007869  62.8527594
  86.3982145  21.7718833  61.8991899  85.9147493  22.4334758  63.1718016
  82.8328617  18.0972356  20.8410353  83.4727319  17.3853702  20.8475871
  82.5798567  18.2003183  21.7584223  54.7671938  68.8447475  67.2746658
  54.3556309  69.2310047  66.5015841  55.1469564  68.0246496  66.9592953
  36.8853889  17.8911752  13.6478896  36.2349973  17.2108764  13.8223071
  36.4596210  18.7046165  13.9185614  31.4917129  42.5490039  23.8901377
  32.3474163  42.4629061  24.3103623  31.0124343  41.7656272  24.1600084
   0.0452647  25.2773685   0.6541342   0.3542385  26.1177940   0.3158183
   0.1265178  24.6765346  -0.0865560  23.7646232  48.8850326  10.6788153
  23.5566650  49.3657226   9.8776145  23.8934550  47.9817218  10.3895754
  27.1436262  76.4095449  55.7517767  27.2014976  77.3643732  55.7173109
  27.9901743  76.1307335  56.1008549  18.6225019  30.8911819   2.4017376
  18.4621749  30.1351137   1.8370385  19.0060983  31.5475053   1.8200821
   5.7905447  72.9636574  57.6673269   5.2858537  72.6685667  56.9094086
   6.5796393  72.4219799  57.6552629  32.5788293  52.3560733   7.7577443
  33.3606515  52.9075260   7.7875752  32.2548566  52.3509330   8.6584372
  25.7543836  28.1448764   4.5703215  24.9985347  27.9944009   5.1380248
  25.5133090  27.7386016   3.7378211  60.9397888  62.3208952  63.7212181
  61.8381405  62.6503134  63.7473726  60.4438019  63.0123281  63.2828712
  16.6271913  46.8996239  58.0173492  15.7857072  46.5316486  57.7476597
  17.2780073  46.3810635  57.5443125  16.7275918  78.4648085  51.5313005
  15.8993888  78.8038874  51.8709135  16.6494536  77.5144434  51.6145611
  64.0521566   9.1839640  56.7352057  63.5528437   8.4807341  57.1503925
  63.8132874   9.1331523  55.8096838   1.7496866   1.3209574  66.5639544
   2.0619482   1.3287871  65.6591558   1.4777273   0.4158252  66.7156458
  15.7033000  35.9998626  10.2604575  16.4219365  35.3824682  10.3968997
  15.6086812  36.0508508   9.3093104  46.0152388  49.6901798  66.6016340
  45.7474947  49.1585016  67.3512125  45.6102705  49.2619705  65.8473969
  69.4266605  78.6888933  15.7819641  70.0853968  79.3830442  15.8031154
  69.3056822  78.5017872  14.8510563  15.2011905  37.2319431  22.7111525
  15.9232507  37.8069324  22.4576945  15.5041633  36.8062896  23.5131831
   7.8500932  18.1923335  48.3904076   8.2417768  17.6771872  47.6851130
   8.5493988  18.2828372  49.0377188  43.6568407  64.5398285  -0.0311428
  43.2186476  63.8182570   0.4200263  43.2044951  65.3250338   0.2771849
  74.7339718  13.0978911  57.2969246  74.2058555  13.3206790  58.0635357
  74.1512624  13.2486289  56.5526390  77.9340585  57.1337242   4.4858689
  77.3999115  57.7652473   4.0041108  78.4102877  56.6556186   3.8070054
  35.5137587  68.0264711  67.1288443  34.8791122  67.3271561  66.9725990
  35.6902003  68.3882236  66.2603760  31.0434709  17.6153392  21.9336123
  31.1461768  16.7156286  22.2437758  31.8886409  17.8306741  21.5392108
  52.1258197  29.1761894   8.2442040  51.5337787  28.6168260   7.7413840
  52.9222522  28.6544437   8.3428092   5.1989756  13.6942644  10.3318019
   4.9422774  13.1512374  11.0770983   6.0609446  14.0356988  10.5698485
  37.4532596  10.3939860  62.3180103  38.0011050   9.6181529  62.4371004
  37.7513353  10.7730429  61.4911509  69.4776861   9.5869105  68.3989620
  68.5578815   9.6030181  68.1345129  69.6524707  10.4744189  68.7120152
  36.1024070  63.2939959  19.5882571  36.6329408  63.5126591  20.3543854
  36.5963078  62.6050949  19.1436124  60.6206171  79.0584328  10.2332873
  61.5073768  78.8487579   9.9401564  60.7430045  79.7265603  10.9077162
  26.9802365  39.8310108   7.1639771  27.0277581  39.4569988   8.0437989
  26.6745696  39.1100950   6.6134495  85.0482734  49.6663875  10.6365103
  84.2569001  50.2004165  10.5674262  85.7529505  50.2992458  10.7749075
  81.7470646  72.2110844  57.2491026  81.0909748  71.9997025  57.9132509
  81.2371349  72.4162245  56.4654493   9.6333370  34.6031684   6.2522025
   9.8354683  34.5053596   5.3217167   9.2634759  35.4829521   6.3257689
  19.3729055  78.3732176  68.3286285  19.4445753  78.6222553  67.4071741
  19.8723853  77.5594807  68.3963537  49.5440865  79.1880703  66.7230320
  50.4838324  79.1365242  66.5485096  49.3754435  80.1212978  66.8529654
  27.1278653  50.1485748  32.0661635  26.9379315  49.5799369  31.3199610
  27.1067653  51.0342903  31.7038054  26.0882506  15.7372875   6.8259139
  26.1127839  14.9358720   7.3487515  25.4070077  16.2701006   7.2360940
  10.2358995  48.3527202  16.0451216   9.5731149  49.0019149  15.8095450
   9.7354398  47.6156349  16.3950915  79.9328415  21.6955416  69.1185474
  79.7849981  20.8044951  69.4354057  79.6099702  21.6859954  68.2174921
   1.0211414  11.2963908  59.2090654   1.7486375  10.6977027  59.3780375
   0.5950540  11.4016574  60.0597143   8.9675516   4.4051688  34.6639252
   8.8401264   5.0371974  35.3714061   9.4563669   3.6883681  35.0682712
  14.6681159  19.9720900  31.7941546  13.8253015  20.4062789  31.9259644
  14.9033826  19.6379702  32.6597452  31.1456343   6.3931983  57.8790426
  31.5026251   5.9330313  57.1194172  30.3209544   5.9443324  58.0651999
  49.2092548  68.4770793   1.3615508  48.9824710  69.4067783   1.3401980
  48.5611901  68.0593700   0.7943101  58.8809148  16.2649577  50.4907894
  59.3948356  15.7364981  51.1013985  59.4810883  16.9545024  50.2069616
  33.0749879  34.9247331  25.3813262  32.1521316  34.9829073  25.6286711
  33.5202298  35.5312795  25.9730239  33.0702114  60.0101280  65.4351377
  33.6215615  60.6920004  65.8189249  32.9831696  60.2617693  64.5157194
  44.2331505  67.5452423  46.0625029  44.0247345  66.9390535  46.7733717
  45.1865435  67.6263666  46.0886908  77.5395679  57.5704432  70.6483936
  76.7631006  58.0689573  70.9029913  77.2838163  57.1246004  69.8408985
  36.8579803  40.7162113  11.7416091  36.0856328  40.2860756  12.1086211
  36.7412982  40.6500644  10.7938571  59.1073386  17.0299857  30.7691860
  58.3700768  17.2367614  31.3435721  59.8630897  17.4356215  31.1940765
  65.5441586  20.5083506  66.5536976  65.6507055  19.9456446  67.3206711
  65.1248328  19.9472277  65.9013605  14.6360335  39.4105167  17.0808215
  14.7062383  38.4559984  17.0669837  13.8548122  39.6007747  16.5614600
  14.6800464   9.6105616  69.3379259  13.8966125   9.3159907  69.8023510
  15.2572387   9.9399226  70.0268412  23.6207622  40.1325362  28.0819345
  24.1754859  39.4822352  27.6510930  23.7084144  40.9178012  27.5416517
  86.0737411  30.8979838  55.7950544  85.8896104  29.9714129  55.6408358
  86.8890754  30.8999293  56.2965059  69.6011968  68.7366790   5.2124209
  68.6461695  68.7626571   5.2714104  69.8832603  69.6009464   5.5119509
  30.1562160  22.7478450  43.3291197  29.8140186  21.8545859  43.3640671
  31.0186141  22.6582568  42.9235649  16.4134908  62.1880150  63.7770224
  15.5335593  61.8135786  63.8188314  16.3929141  62.7632523  63.0122232
  85.9242050  40.6019347  45.1363325  85.4487507  39.7864001  44.9779415
  85.5233757  40.9631865  45.9269428  26.5363870  35.8639021  11.2909789
  27.1702132  35.4457016  10.7082266  25.8950934  36.2611837  10.7017989
  15.0497723  79.5542479  55.7385969  14.3581104  80.0393295  56.1886263
  15.6569481  79.3019867  56.4342499  70.5953940  40.6964130  17.2274680
  69.8158832  41.0964317  16.8420119  71.1034044  41.4355392  17.5619311
  10.7373295  43.6318130  11.5796370  10.5555711  44.5715065  11.5928168
  10.2678928  43.3078308  10.8109374  70.8183765  57.8572083  36.9786811
  71.0343122  57.1459913  37.5818181  69.8747873  57.7755499  36.8400979
  26.8622249  15.8929007  38.7600040  27.5211662  15.4976027  38.1892443
  26.0752815  15.9443705  38.2175064  52.8865615   8.3789389  54.5391321
  53.4505574   8.0541175  55.2410030  52.3897997   7.6111644  54.2563343
  20.7464013  43.5884971   7.0935959  20.5845008  44.3476028   7.6537604
  20.0322566  43.6043472   6.4564318  25.2551216   6.3176673  67.3920727
  25.2342266   5.6182521  66.7389107  24.4708293   6.8362944  67.2128105
  10.9079514  65.2478237   1.7081732  11.8013415  65.4024143   2.0150752
  10.7072959  64.3566532   1.9941706  47.3610787   8.1982558  50.4842567
  47.5634376   8.9395564  51.0550165  46.5123955   8.4169905  50.0993872
  15.3458915  75.8167667  10.3676219  15.1260409  76.5371913   9.7769541
  15.7621656  75.1640338   9.8046965  13.8793433  63.7732410  43.1032753
  13.3097136  63.0503035  43.3661699  14.0396714  64.2583752  43.9127016
  11.6929278  62.9316444  30.2401728  12.4885259  62.5957508  30.6530089
  10.9788904  62.5553245  30.7547373  61.6850233  65.6363773  51.5219688
  60.9622526  66.2050915  51.7872953  61.3982248  65.2561235  50.6916809
  11.6119092  27.3784106  66.2085676  10.8273595  27.3812907  65.6602001
  11.8074125  26.4509433  66.3420534  37.3272610  74.0210056  49.2912245
  36.4942098  74.1779280  48.8466644  37.4751353  73.0799389  49.1976452
  59.2807865  43.7061167  48.4187984  58.7703180  42.9048920  48.3017778
  58.6261034  44.3862391  48.5771036  76.8788671  81.5604591  55.2758217
  77.5835323  81.3227654  55.8784628  76.2484264  82.0333576  55.8190966
  28.6018419  80.3396511  36.4751887  28.4304643  80.5167103  35.5502510
  29.3582892  80.8863926  36.6875553  76.7094413  21.3827937  57.7326298
  76.5786926  22.0255225  58.4297943  77.6521103  21.3974040  57.5671053
  39.1047320  44.4680233  17.5204463  39.6597657  43.6964054  17.4074740
  39.2127977  44.7081394  18.4407134   8.8363355   4.1627829  44.6562862
   8.8090652   4.0020983  45.5995083   7.9249519   4.3284362  44.4150925
  32.0103345   0.6117744  22.4588198  31.8359075   0.2338047  21.5968794
  31.8364368   1.5467329  22.3499960  53.6939907  28.6861134  62.8807545
  53.3259439  29.4596553  62.4536705  53.2905197  28.6769843  63.7487173
  31.6519594  18.6923540  59.2830324  30.7636762  18.9815712  59.0743780
  32.1039128  18.6790943  58.4393501  67.8564588  64.6671273   6.7226452
  67.4737255  63.8402035   7.0158047  67.5367633  65.3149630   7.3506064
  65.8964268  57.9450764  10.3561015  66.5429942  58.5328473   9.9653239
  65.2580945  57.7937843   9.6590514  23.0625701  31.9109988  49.2727757
  23.5698748  32.6934218  49.4888544  22.2501636  32.0075011  49.7696829
   8.4296566  32.0527172  68.3989239   8.5298109  31.6725492  67.5261831
   8.4268647  32.9981709  68.2494497  31.3915038   6.7515528   8.4414715
  30.7581306   6.1127657   8.7686116  31.8906236   7.0120126   9.2155975
  19.1127932  46.1736679  56.8626118  19.0852618  45.2722740  56.5417290
  19.4703007  46.6773939  56.1313963  72.2961901  19.2686069  46.0606050
  73.0432461  19.1738284  45.4697132  71.7558716  18.4973049  45.8891964
  82.2427088  79.0201701  47.1010494  82.1676928  79.8819082  47.5109434
  81.8699581  79.1373155  46.2272263  49.6563999  62.1523620  11.4637751
  50.1343505  62.1613576  12.2930617  49.0979950  62.9289247  11.5007300
  73.7138301  76.9498316  63.4182358  73.2610160  77.7282939  63.7425613
  74.4145853  77.2937436  62.8642511   2.5493868  58.9100940  48.8079834
   2.9320272  58.3401448  48.1409168   1.7249568  59.2084224  48.4238720
   9.9781859  20.5506349  58.8504267   9.2687535  20.6274605  58.2124329
  10.7533717  20.8659053  58.3857536   9.1165527  72.7072484  32.8823638
   9.1297468  72.5234641  31.9430661   8.5998734  73.5090477  32.9623008
  13.5096228  39.4039059  34.0183020  13.1503642  38.5176039  34.0586805
  12.8053176  39.9630094  34.3463135   7.2643304  24.7906160  51.6243553
   6.9910264  24.0225577  51.1227369   7.5311738  24.4393516  52.4738503
  50.8494536  70.2147199   7.9669470  50.6900469  69.4000055   8.4434552
  51.2836615  70.7831718   8.6029954  76.5359003  81.2665611  46.1706257
  76.2240607  82.1337058  45.9116888  77.2598642  81.4420184  46.7717266
  27.4393106   1.3390206  42.0687675  27.6209331   0.8740944  42.8855228
  28.2996988   1.6181402  41.7556286  33.9714170  20.2435112  38.1110334
  33.2571220  20.6153011  38.6285162  33.6710691  20.3113174  37.2047091
   0.7744367  41.3027191  23.9263964   1.2186393  42.1014166  24.2110038
   0.1479093  41.1150742  24.6253133  13.2587779   0.5008403  56.1834860
  12.8083706  -0.1479194  55.6426764  12.6707339   1.2560731  56.1911678
  11.1143184  12.9301977  51.7413664  11.2929332  13.8618624  51.8691587
  10.3278685  12.9096866  51.1961079   9.8265982   4.8985797  59.6329737
   9.2129886   5.1710147  58.9507008   9.4096398   4.1396856  60.0409651
  41.7471439  74.9763788  49.8867607  41.8960053  75.8992768  49.6810150
  42.1040851  74.5028759  49.1353512  11.2264593  73.2526923  44.8699141
  11.9418295  73.8836951  44.7904396  10.9199842  73.3503664  45.7714510
  11.7475613  53.8712938  47.7039385  12.2524031  53.6649568  46.9173050
  10.9242233  54.2300970  47.3728704  27.2369432  24.9349523  52.8394651
  26.7179871  24.4638181  52.1875811  28.0764532  24.4753766  52.8549814
  58.7256977  78.2493762  54.9602032  59.2730055  78.0778466  55.7265377
  58.9301332  77.5361831  54.3553972   7.3923558  23.1858373  43.1961536
   7.1387351  22.4917579  43.8045645   6.7320275  23.8673592  43.3215570
  19.5487247  31.3185849  26.3875479  19.4606022  30.7231404  27.1318049
  20.4172871  31.7068126  26.4929576  81.8045954   6.3206589  55.1690388
  82.5052570   5.6981963  55.3635788  82.2606753   7.1224803  54.9134874
  86.2376815  75.9220917  48.8405085  86.9259435  76.1808462  48.2276678
  85.6023127  76.6370226  48.8029003  38.2203192  69.7474165  44.0853882
  38.1227047  70.6995840  44.0764475  37.3309762  69.4143398  43.9655495
  63.4335969  23.4091544  16.2323225  63.1226848  23.0227947  17.0510364
  62.7176402  23.9776492  15.9486854   1.3171072  30.0291753  69.0180540
   2.0079692  30.6687355  68.8451242   1.7252928  29.3867135  69.5984507
   2.5599369  26.4383793  48.4381104   3.1082353  26.2479091  49.1992426
   2.2382352  25.5826306  48.1544971  63.1824819  68.7387254  16.0141272
  63.1517212  68.8837363  16.9597811  64.1153447  68.6621858  15.8137698
  30.5603510  22.7422001  19.8919959  30.1757535  22.6512934  20.7638068
  29.8280940  23.0023708  19.3331236  86.0891572  66.1391211  61.1802244
  86.0631291  65.2389812  61.5047312  86.9401917  66.4719391  61.4651871
  26.7430711  15.1541841  30.8058763  27.1061850  14.8330069  29.9805140
  26.6801524  16.1019087  30.6871748  59.8058707  64.3124194  62.3460913
  60.3144369  65.1216788  62.3979664  59.5543963  64.2462070  61.4248943
  82.4655787  41.7967224  40.3317022  81.7203070  42.1067762  39.8172402
  83.1001682  41.5001917  39.6793222  16.9319654  12.3309112  42.6250601
  16.1991358  11.7501688  42.4202871  17.5651944  12.1735728  41.9247055
  35.8452392   0.6083263  31.6478682  36.4255524   0.1929732  32.2857952
  36.0875821   1.5340570  31.6707683  69.1566712  76.9656984  59.4852972
  68.9342386  76.5482713  58.6531258  68.3824081  77.4822993  59.7086143
  79.6333653  67.9581375  16.1939216  79.1368419  68.6459560  16.6373217
  80.4956204  68.3450801  16.0421908  24.0000040  70.9374263   6.9851346
  24.0955348  69.9904014   6.8838830  23.2097963  71.0431601   7.5148768
  10.8209260  53.6066801  41.8062162  10.6488593  53.1507880  40.9823322
  11.6014393  54.1322381  41.6306639  13.2371080  48.4360743  67.1752548
  13.6030781  47.8813362  67.8641415  12.7564800  49.1169310  67.6460695
  59.0703021  80.8983623  62.6286268  58.5261153  80.1537258  62.8847694
  58.5271600  81.6654626  62.8096962   4.6079573  12.8472638  32.7486992
   4.8231280  12.7010477  31.8275309   5.1376611  13.6034715  33.0012774
  17.1114743  20.6241226  10.8283198  17.3693955  19.8642087  11.3500822
  17.0377064  20.2876019   9.9352664  82.0755543   7.0986134  64.7586107
  82.4685214   7.9680520  64.6819019  82.2105144   6.8547177  65.6743240
  52.7795887  35.1579452  58.7937069  52.5289583  34.9925709  59.7025871
  53.2828379  34.3844151  58.5394907  40.6631994   4.9970475  60.7278728
  41.5069771   5.3505373  61.0095119  40.0780678   5.1548821  61.4687777
  24.5676947  19.3453121  28.3072591  24.0421605  18.5962713  28.0262208
  25.4313946  19.1886187  27.9255509  16.9446007  46.9375397   7.8475613
  16.9360069  47.8562106   8.1162686  16.4647118  46.9257148   7.0194335
   4.3774517  76.2688536  53.9852762   3.5560807  76.7428748  53.8553286
   4.1292032  75.3451152  53.9490557  33.9498663  20.3584027  31.1433291
  33.4762883  20.0043273  31.8960500  34.8683429  20.3500748  31.4127016
  46.3847866  79.8024183  64.6091854  46.7069342  79.2001539  65.2798056
  47.1764913  80.1411992  64.1912591  38.0414685  78.5271750  38.1956148
  37.6806839  78.6584471  39.0724468  38.2944544  79.4040512  37.9069662
  39.0925078  75.1583053  34.5815749  39.3192045  75.5265643  35.4355235
  38.2292078  74.7658088  34.7115416   0.7627567  79.4617997  63.0376482
   0.3052791  78.8401584  63.6037827   0.4115709  79.2928376  62.1633768
  73.4433633  65.4040940  49.4666958  73.7764496  64.7024066  48.9073038
  72.5551957  65.1284535  49.6934366  66.2668053  15.9956409  13.7665648
  66.7924444  16.1927654  14.5418543  65.3923027  15.8129288  14.1102118
  21.5178967   5.5747408  32.9270101  21.5889072   6.3221073  33.5208368
  21.0867238   4.8961791  33.4465051  74.5994014  70.0706334  67.1127462
  74.5665425  69.1346390  66.9150925  73.7060076  70.3789658  66.9610596
  84.6138383  20.2800655  56.2786245  83.8383390  20.8111811  56.4595985
  85.1843315  20.4241514  57.0336151  30.2487911  63.3366443  15.4165835
  29.3283779  63.0789401  15.3650183  30.3917580  63.5302736  16.3430304
  84.5425719   8.5889679  69.6776676  84.2052504   8.0512452  70.3941154
  85.2887250   8.0948198  69.3380976  13.6104107  18.6287379  45.6815863
  13.3962536  17.8026664  45.2480221  12.9810584  18.6923754  46.3999844
  22.1075829  80.7676060  69.8021030  22.1152647  81.7247640  69.7974873
  22.7783974  80.5257794  70.4406595  12.1796060  41.1195803  26.5718842
  12.2246194  40.4297256  25.9098411  11.4711285  41.6906500  26.2749457
  13.5101795  36.6067266  49.9047232  14.2734647  37.1824050  49.8575878
  13.5673583  36.2035990  50.7710075  31.0777378  29.6235466  56.0611820
  31.9273806  30.0642037  56.0738325  30.4489851  30.3209305  55.8752918
   4.9427849  16.7156506  69.7054529   5.6637633  16.2599409  69.2709970
   4.8068428  16.2287498  70.5182743  43.2642558  64.3868404  70.6262735
  42.4526539  64.8815375  70.7394442  43.2985809  64.1940623  69.6893154
  15.8487642  16.2810087  50.9419394  15.6069314  16.3545811  51.8651628
  15.8126414  17.1790361  50.6125879  16.0906684  17.9413974  46.4682150
  16.4240217  18.2471895  45.6246519  15.1390696  18.0057514  46.3872719
  55.6149183  75.5753625  68.8520384  56.3403455  76.0133440  69.2971897
  55.3138936  76.2107105  68.2024622  84.1273890   4.6441075  59.1117716
  83.5129000   5.3776503  59.0883160  84.9878977   5.0489324  59.0028048
  75.5184597  79.3092590  21.6561937  76.4056140  79.6224716  21.4798784
  75.0095302  80.1052680  21.8097949  57.3946063  75.0742199   4.0882153
  56.6378776  74.6289994   4.4694943  58.1396071  74.7634341   4.6026272
  62.8996657   4.8329490  56.9168425  62.5218795   4.1588378  57.4817181
  63.1692908   4.3614715  56.1286545  44.0274143  21.2811780  45.2973032
  44.8596287  21.4113641  44.8426628  44.1407442  20.4585934  45.7734776
   8.8928068  10.3409052   1.7878939   8.8623822   9.6367639   2.4355757
   8.8103467   9.8947823   0.9450375  47.8091339  49.8281510  14.7028918
  48.6590401  50.0581087  15.0784106  47.5522653  49.0290965  15.1630683
  44.3502740  58.5052409  35.3250308  45.0299553  58.7398280  34.6931834
  44.7864834  58.5550679  36.1756033  53.6576835  47.8053399   8.2977385
  54.5701090  48.0396946   8.1280655  53.4064070  48.3470179   9.0458531
  22.1936035   1.9962546  41.6793394  22.1522307   2.9341775  41.8659449
  21.9450712   1.5769576  42.5031424  11.6574621  12.1240413  65.6700087
  12.4884462  12.5990295  65.6792116  11.5257823  11.8541372  66.5788794
  22.2721720  16.1208117  67.5678730  22.9885292  15.5295873  67.3365307
  21.8427563  16.3143480  66.7345762  30.4513907  17.2235060  52.4691439
  31.1544394  17.0568860  51.8412971  30.2176619  18.1411004  52.3290634
  20.6375408  16.9690561  37.4233031  21.3552737  17.2063112  38.0105019
  20.9190893  17.2802472  36.5629983  62.7033726  68.6472942  13.2030100
  62.7624456  68.9115669  14.1211123  62.0962087  67.9073097  13.2053656
  41.0123396  20.1095653  37.5654125  41.9628906  20.0216532  37.6358223
  40.8835268  20.8400893  36.9604540  75.4523633  18.0347776   3.8781905
  76.3987957  18.0941045   4.0084946  75.2767633  17.0955122   3.8218337
  14.5411547  48.8249356  41.4376116  14.8598584  49.2492873  42.2342205
  13.6290415  49.1060121  41.3649988  53.3004189  39.0031099  50.8459711
  53.7646723  38.3304119  51.3441467  53.4481478  38.7675643  49.9300432
   2.5374468  75.8855302  35.7427406   2.3794158  75.4949976  36.6022420
   2.6228531  76.8227483  35.9175539  29.7249627   8.2603699  35.0889230
  29.9532557   8.0017579  35.9818029  30.1647043   7.6168108  34.5333242
  35.2928368  38.6970006   0.9253115  36.2191925  38.8646867   1.0984559
  34.8744855  38.7539105   1.7843670  14.1312939  70.2839954  70.3444624
  15.0525862  70.4339654  70.5564928  14.0836960  70.3908605  69.3944359
  21.8639636  32.0465374  42.9569054  21.0858965  32.5213909  43.2490587
  21.7563391  31.9707131  42.0088005  11.9965410   5.7454306  56.3188505
  11.6285717   5.9310699  55.4549217  12.6611483   6.4223415  56.4466000
  75.4046128  58.3698082  38.3191228  74.6422468  57.9636574  38.7315202
  76.1380492  58.1346560  38.8874602  85.5887500  45.5273681   4.2359061
  86.2135498  46.2520488   4.2095465  85.6456129  45.1303722   3.3667702
   1.6935524   5.3044516  69.2929411   2.0578736   5.2701634  70.1774359
   2.2057000   4.6649465  68.7979984   6.6931832  28.7766790  39.9728394
   6.8281180  28.9056444  40.9116650   5.8313119  29.1557431  39.8004436
  37.4727225  18.1305552  48.2623911  38.1658435  18.6452782  47.8490162
  36.6786551  18.3711064  47.7850819  13.6190569   0.8352003  29.8791718
  14.4444656   1.3133787  29.7999430  13.3074903   1.0396491  30.7608509
  13.4653234   8.2359087  62.6206732  13.5808933   7.2883552  62.5498390
  12.9053164   8.4650034  61.8789577  18.5195196  23.4200788  24.4260263
  19.3214560  23.9387631  24.3619990  18.7944436  22.6047969  24.8455048
  53.0889193  42.5998202  13.4898371  53.9398162  42.6577360  13.0552668
  52.5850312  43.3287515  13.1279177  60.5663692  11.4559192  18.8400549
  60.8077960  10.5591507  18.6082072  59.6419906  11.4001007  19.0822119
  10.0353229  41.4976740  46.7357826  10.9532416  41.2319326  46.7909002
   9.6624917  41.2479401  47.5812769  81.8641416  22.5727548   7.1432776
  81.0744611  22.7568998   6.6346259  81.7463295  21.6742708   7.4516291
  73.0357510  74.8943765  33.3307147  72.6122552  74.4847746  34.0851068
  73.4462601  74.1673804  32.8625369  61.6128159  73.6230476  59.7737360
  61.9494850  73.0293418  60.4448557  61.5395609  73.0802757  58.9887142
  27.5171876  20.8089018  46.9666481  26.9737673  20.2374816  46.4240551
  27.0975661  20.7924151  47.8268051  10.7744026  10.2012336  63.7941170
  11.0161281  10.7192171  64.5619011  10.7478988   9.2989534  64.1125822
  64.9279617   6.0141742  36.2416673  65.8348725   6.0758251  35.9417629
  64.9462388   5.3423840  36.9232798  73.8676916  15.6847262  67.3901653
  73.7736629  14.9818265  68.0330658  73.0554341  15.6570399  66.8844938
  25.1235032  24.8271012  31.7311025  24.1857648  24.7528744  31.5539789
  25.4509544  25.4111671  31.0470891  26.3210011  13.7073636  70.0275469
  25.5227661  13.7028241  70.5557823  26.0707903  13.2737315  69.2117071
  66.8587989  65.5711860  37.1480846  66.6021037  65.5934376  38.0699539
  66.0419381  65.4101236  36.6758251  33.5106284  47.5910212  18.6673159
  34.3341521  47.4083020  18.2149310  33.7363965  48.2580133  19.3156905
   8.1452763   6.2951130  42.3289967   7.7631176   7.0272124  42.8129578
   7.5024462   5.5908775  42.4129868  59.1208029  24.9196196  47.0025206
  59.0341139  24.7519422  47.9409218  59.5113516  24.1194010  46.6513014
  18.9566529  11.9477689  40.8331251  18.6817241  11.2609982  40.2256823
  19.7638345  11.6129541  41.2237549  17.9429889  23.1993151  10.4847586
  17.7672458  22.2720170  10.6443393  18.2854998  23.2278943   9.5913935
  85.3122413  11.3165855  32.3277736  86.0121396  10.8794558  32.8128433
  85.5048136  11.1297870  31.4089417  21.7706490   4.6443728  41.6289854
  20.8386731   4.5089492  41.4577770  21.7941165   5.3234196  42.3032045
  42.8219136  64.3097038  67.8469753  41.8922480  64.5267756  67.9164743
  43.1590184  64.9101610  67.1821117  81.0116033  29.6668077  32.3529935
  81.3260041  29.4327950  31.4797115  80.7021235  28.8410974  32.7253652
  27.4146438  21.6980219  69.0691328  27.6813507  21.2782359  68.2512856
  26.5226865  22.0026278  68.9022350  13.4107741  67.4915380  59.7339487
  14.2724856  67.1274931  59.5310879  13.5959347  68.2542569  60.2818632
  37.0486450  18.2484257  54.7966290  37.1917272  18.0083263  53.8811445
  37.7654600  18.8487399  55.0016451  73.2604454   9.9090636  52.6526165
  73.9942525   9.3669462  52.3630190  73.6697469  10.7062101  52.9891586
  46.7753533  49.2256941  11.4520354  47.5106064  49.3435230  10.8505816
  46.0530583  48.9377262  10.8938307  48.2173157  14.1734648  61.0940361
  48.3786201  14.8381126  60.4243708  48.6439085  13.3855784  60.7571602
  43.1662826  53.3103778   2.4271006  43.4431199  53.8617458   1.6952605
  43.3468680  53.8372161   3.2055993  24.1789794   9.3550438  69.0293455
  23.4029484   8.8003081  69.1085529  24.8829317   8.8398021  69.4233084
  69.0434162  78.8665129  23.1776900  68.5222785  78.4040405  22.5213618
  68.5952584  78.6925675  24.0054221   5.1297124  79.5135143  50.7984734
   5.7328566  79.7898569  51.4884615   4.6401294  80.3056342  50.5769205
  53.4424440  65.7374145  16.4651103  52.9950015  65.4491498  17.2606749
  54.1225092  66.3350107  16.7759509  37.4794650  26.2781858  57.1765995
  37.9630709  25.4829311  56.9531536  37.8392673  26.9484949  56.5956831
  83.0013305  66.6642470  60.2788973  83.0912525  65.7863016  59.9082756
  83.8242537  66.8130750  60.7445955  82.9056915   0.6288786  14.3583483
  82.7019652   1.0027523  13.5010619  83.2430347  -0.2456217  14.1642279
  71.1977917  77.4981607  35.5420351  70.9515745  77.6420737  36.4557624
  71.7448598  76.7129589  35.5622149  23.4036827  32.0717096  55.2416658
  23.6353636  32.2705388  54.3344593  24.2327595  32.1228743  55.7173157
  22.7709365  10.2870977  22.7176237  21.9453764  10.7268190  22.9209161
  23.3682799  10.5664432  23.4114361  71.4425556  80.5374934  15.8539576
  71.2176124  81.2279727  16.4775557  72.3305217  80.2753331  16.0968966
  52.4637842  13.0068600  38.9391828  51.8472862  13.1520307  38.2214880
  51.9346094  13.0978823  39.7315955   7.6806513  79.0729834  14.8298735
   7.7531735  78.5135986  14.0565199   7.2550408  78.5208442  15.4857916
  85.5496875  36.9913082  16.6659541  86.2341396  37.3883175  16.1272997
  84.8916284  37.6796566  16.7627329   1.2712623   4.1020718  49.2908573
   1.5291674   5.0046444  49.1035604   1.8418607   3.8345239  50.0113201
  31.7867684  16.4099121  32.1032262  32.2320724  17.0093751  32.7020431
  32.2477388  16.5162647  31.2711048  73.4026575  21.1198997  25.1091146
  72.4522257  21.1008906  25.2211547  73.5323143  21.1083436  24.1608071
  30.2478676  81.4052560   4.3318076  29.4470291  81.5678145   4.8302693
  30.8322909  80.9702756   4.9526734  14.8694992   2.7290213  43.8468647
  14.3425584   3.4770536  43.5657740  14.8514974   2.1295272  43.1008673
   5.1212510  73.7278099  27.2755456   5.1061519  73.7944532  28.2303047
   5.8933075  73.1950987  27.0848155  41.5752983  28.2929349  65.2217054
  41.2316418  28.9315176  64.5969296  42.3294830  27.9053235  64.7776318
  32.1832061  31.0758018  40.4278040  32.8495574  30.3930354  40.5055189
  32.4074697  31.5385628  39.6204686  24.1463552   4.7703523  29.3825049
  24.9840961   4.4333191  29.7000403  24.2141423   4.7207422  28.4290022
  73.0400485  72.9978348  28.0887198  73.2442898  73.7985648  28.5717821
  73.2691139  73.2003052  27.1816564  40.5239391  16.2537289  52.1550703
  40.7577324  16.3586032  53.0773401  41.1798048  15.6484604  51.8090582
   5.8773287  38.9176519  53.1889200   5.3220232  39.6291406  52.8700924
   5.2641424  38.2829005  53.5594893  24.1925502  27.2202849  58.4727001
  24.8191500  27.8603888  58.8101530  23.3457685  27.5137925  58.8089275
  42.5484661  76.4315440  40.0721354  43.1973044  75.9656741  40.5995841
  42.2695390  75.7925989  39.4162554  18.9598918  40.8215809  27.7251148
  18.3085167  41.3848972  28.1429887  18.7948334  39.9525046  28.0907536
  28.7546500  80.8313105  29.1614032  28.7128218  80.3518956  28.3339715
  27.9168566  80.6484998  29.5867467   2.7050269  34.5575118  36.1384106
   2.5416508  33.8105226  35.5626082   3.3451560  35.0891232  35.6652784
  71.2359029  56.6793878  47.5171852  71.0001809  57.5094492  47.1028662
  71.5047628  56.9218333  48.4032822  75.5692561   8.2827015  31.5364642
  75.2342661   9.1785163  31.5756125  76.1746689   8.2855672  30.7950491
  74.1827319  34.0224504  26.5365410  73.4151064  34.5210767  26.8164587
  74.2947672  33.3550954  27.2135329  22.1932483  17.1514380   3.3980927
  22.6032090  16.5794826   4.0469623  22.2080994  16.6430068   2.5872231
  75.5272955  68.8645954  61.0574007  76.2042839  69.2467625  60.4989481
  75.7729537  69.1262252  61.9447756  32.1961880  35.8472943  60.0321150
  31.7526054  36.2219143  59.2711067  32.3951292  34.9471879  59.7743177
  18.7920308  31.3797760  36.4685392  17.9657733  31.0463309  36.8183136
  19.4605541  30.8104587  36.8495703   5.7283634  70.0496771   4.7765774
   4.8194879  69.7642996   4.6830935   6.0709232  69.5250108   5.5001874
  45.4173660  29.8531342  65.2343416  46.2889528  29.6905136  65.5950642
  45.3199577  29.2012262  64.5402527  84.4114010  34.7734608   5.7258267
  84.5934669  35.1293101   4.8560805  83.4654276  34.8735477   5.8323474
  11.6609168  25.1942611  55.4050350  11.5588808  25.6896281  56.2177086
  12.2591674  24.4823503  55.6319904   7.6515424  18.1951404  64.1850615
   8.1964141  18.1176722  64.9682236   7.9529381  17.4894857  63.6128330
  40.0090694  18.7525189  43.1658792  39.5802522  18.1455910  42.5625658
  40.0676680  19.5739150  42.6779175  58.7003533  64.6769597  22.8684706
  59.1441027  65.3707792  23.3562560  59.1780035  63.8797905  23.0978293
  22.6654077  11.5327764  39.4451165  23.2331800  11.2379932  38.7331009
  22.4206948  10.7294846  39.9045396   7.0800599  80.0544427  46.5845203
   6.9145187  80.9135930  46.9727039   7.1688445  80.2281166  45.6474018
  62.8101341  62.8802778   7.4672932  62.4383752  62.8789164   8.3493514
  62.1202795  62.5108601   6.9160552  38.8055237  74.4998098  69.8860407
  38.0636938  74.7266139  70.4468250  38.4091004  74.2709179  69.0453911
  70.5275868  27.1463108  36.2501144  71.2061821  26.5521789  36.5706587
  69.8818741  26.5723348  35.8380008  39.1804242  34.2053056  40.7447052
  39.2573333  33.3710694  41.2076998  39.6935034  34.0840268  39.9457836
  20.5719566  27.5093913  11.9175649  19.8625481  27.8221965  12.4789226
  20.2608490  26.6673851  11.5851939   4.7429916   1.4371350  52.0537758
   4.6316677   1.6657498  51.1309671   5.2693748   2.1501647  52.4153566
  34.7593307  26.2064600  33.4675980  35.2393174  25.4136324  33.2282925
  35.3408861  26.6645646  34.0743661  45.4864025  21.0045862  52.8330088
  46.4031506  21.1775064  52.6187754  45.1154613  20.6462812  52.0266247
  66.2435905  30.4660370   0.8582682  67.1780101  30.6250133   0.7247872
  65.8525054  30.5974020  -0.0054603  32.6300526   5.2144903  28.5092711
  32.9443574   5.8088076  29.1906190  31.6767359   5.2934378  28.5436916
  77.5052516  20.2916598  70.9527683  77.7468775  19.8798156  70.1231718
  77.2061400  21.1671805  70.7073593  13.0711389   0.4093850  60.8701515
  13.4268451   0.6920332  60.0276470  12.6678061  -0.4392119  60.6872892
   2.2674801  43.7740564  69.4179058   2.3645927  42.8544044  69.1708469
   2.1309711  43.7544727  70.3651190  11.3682377   7.3814929  53.4864521
  12.0833230   6.8131083  53.2004023  11.3112235   8.0544782  52.8081656
   1.0425194  46.7996604  45.4189396   0.4100903  46.3243706  44.8800802
   0.7135638  47.6983626  45.4377890  39.2921595  59.2926957  10.3085417
  38.7291608  59.1582479  11.0708994  39.1467682  58.5190238   9.7639937
  48.7541513  75.1514460   0.5846114  48.8129274  74.2724826   0.9590430
  49.5635835  75.5829527   0.8582062  50.1724140  57.1320619  22.6497359
  50.0497357  56.2077655  22.4332709  50.5328814  57.5190999  21.8519301
   4.8680574   4.4223294   8.8050014   4.4475946   3.6328563   8.4641564
   5.4823178   4.6820274   8.1183624  73.7958068  81.7647898  56.2005949
  72.9550082  82.0155020  55.8179283  73.6529047  80.8786571  56.5331316
  77.4977515   8.3789736  38.1656241  77.4041395   9.2589289  37.8007317
  78.3438353   8.3939624  38.6130047  81.8432323  53.3426751  12.4074740
  82.7959720  53.4344961  12.3978324  81.6940920  52.4090304  12.5568003
  12.4932015  46.0287619  65.8491659  12.5985825  46.8629074  66.3066912
  12.7003050  45.3662395  66.5082645  51.1128426  26.5197420  69.2646599
  51.7818069  26.3149095  68.6113930  51.2540197  25.8785605  69.9612141
  38.3338193  37.4536561   4.3461651  38.9014880  36.8829684   3.8281912
  38.2308696  36.9957780   5.1804204   1.2199014  52.5871660   5.6265778
   1.0520023  53.2088019   4.9183364   0.4759162  52.6929225   6.2194819
   3.9290764  13.0839074  38.2486701   4.1572430  13.3291376  37.3519897
   4.2199184  12.1755898  38.3299375   8.3415121  78.2446458  11.8798537
   9.2041772  78.6380078  11.7483038   7.7323097  78.8628556  11.4762110
  11.4041388   7.1539646  47.7526331  11.3431036   6.3604021  47.2208738
  12.3331642   7.3837560  47.7342081  16.5106587  75.8570053   4.3539710
  16.8012730  76.5511491   4.9455256  17.1259610  75.8932282   3.6216302
  26.8147826  39.6458220  20.0352931  27.7117682  39.6844816  19.7034025
  26.4872789  40.5407238  19.9451816  22.6057029   7.6261592  45.2642727
  23.0961919   7.0037156  45.8011341  23.2164812   8.3481640  45.1163149
  37.2595978   3.1171599  61.1441469  36.4651179   2.6604259  60.8676910
  37.9424405   2.7835828  60.5621815  46.3473701  22.0416021  44.1533756
  46.2811613  21.5407586  43.3403540  46.9406176  22.7626848  43.9428473
  83.7864381  80.1753285  67.9287577  84.6534258  80.2267253  68.3311558
  83.9581877  80.1892743  66.9871998  70.9477798  68.1311943  20.6738371
  71.8164436  68.4438040  20.9266848  71.0693351  67.7703525  19.7956271
  37.2236204   5.5259579  36.2985373  36.6934371   5.3644872  35.5181098
  37.8407884   6.2073660  36.0320449  50.2591602  60.0754465   5.0837464
  50.6408993  60.8563234   4.6828217  50.3246776  59.4021358   4.4065518
  46.5055513  24.2675471  57.0664930  47.2743607  24.3520403  57.6304293
  46.2417650  23.3518505  57.1567678  35.7975984   8.8136292  49.4027901
  36.6933036   8.6010128  49.1406059  35.7680655   8.6137301  50.3384209
  20.2812338  23.8361740  39.8737550  20.7605338  24.3978429  39.2646337
  20.6852746  24.0060544  40.7247114  74.9334131   2.3219535  57.1516848
  74.1656409   1.8088278  56.8997717  75.6079457   1.6685468  57.3368788
  70.3803531  56.0354795   0.9952397  70.6518785  56.6430630   0.3072400
  70.7931415  55.2050747   0.7580370  78.4362227  79.5759953  49.0269947
  77.6888448  79.7450083  49.6006584  78.0446416  79.2951300  48.1999445
  14.5518470  54.6951485  53.5973740  14.0963089  55.4183865  54.0282345
  15.4255807  55.0391293  53.4116411  54.8551613  78.6384777  56.2985182
  54.4323376  77.8057359  56.0887718  54.5716021  79.2327496  55.6037760
  16.6535723  34.6141195  60.0417805  16.2614679  34.8552775  59.2025375
  16.0786343  33.9312935  60.3873634   0.8217939  73.8975687  40.9807587
   0.4427775  74.3938954  41.7061806   0.0943263  73.3762039  40.6413460
  72.0570079  30.0423040   2.6647420  72.6892368  29.3567719   2.4489588
  71.2702219  29.8057200   2.1735949  18.3882610  42.9914157   5.7727284
  17.6652519  43.2401638   6.3485903  18.2258872  43.4740983   4.9622435
   3.9571319   5.1170559   2.0895857   4.1253886   5.5839271   1.2710805
   4.5654879   5.5071516   2.7172513  69.7820568  19.6717441  51.5729284
  70.0471401  20.5594397  51.8136692  69.5044327  19.7440398  50.6597328
  56.5992403  31.8596864  42.8603315  56.9022512  32.0840096  43.7401581
  57.3762608  31.9510484  42.3088551  38.0852795   4.9714077  52.8941298
  37.3324013   4.3939015  52.7680635  38.3289933   5.2437913  52.0094585
  17.1443295   5.5678582  44.3582916  17.0004106   5.4742086  45.2999640
  17.0275521   6.5028787  44.1899729  43.0062675  17.7018082  53.5917854
  42.6817131  17.0624542  54.2259169  42.2771311  18.3099234  53.4701920
   6.3870418  35.6431150  49.2748213   6.2749135  34.8994756  49.8669910
   6.2131834  36.4110589  49.8191261  42.5330836  69.1145487  57.6844406
  42.2336489  69.8758180  58.1814718  42.0210523  69.1397602  56.8760967
  21.9371847  46.6279473   0.4087681  21.5816949  46.1217769   1.1392779
  21.2330476  47.2307749   0.1699729   1.5532583  47.4917038  31.5496058
   2.2954696  47.9708751  31.9180483   0.9571880  48.1740113  31.2407584
  30.2877331  24.1966248  49.6127653  30.9784126  23.6822557  49.1948891
  30.4090905  25.0826144  49.2713976  53.7462727  65.1435883  61.8655491
  53.7759739  64.5672686  61.1018705  52.9908383  64.8374707  62.3673916
  74.6864327   5.1587934   1.1515278  74.7918912   4.4185800   0.5538697
  75.4706736   5.6903858   1.0151190  74.8458521  65.0919320  14.7344012
  75.6006996  65.5866243  15.0533385  75.1971857  64.5457699  14.0311904
   6.4149102  78.5938139  62.3822021   5.5926665  78.1194437  62.2592402
   6.5893110  78.5313890  63.3213091  32.1133780   4.8089120  39.5923448
  32.3709369   5.5811077  40.0959396  32.9225445   4.5150363  39.1738749
  73.3512086  71.5038640  47.7111006  72.8255660  72.3038162  47.7080107
  72.7725607  70.8356280  47.3438692  32.6811528  31.1579299  53.4196377
  32.7167606  31.0817575  54.3731356  33.0868721  32.0042658  53.2316542
  84.0061314  18.1046259  54.7932482  83.7877650  18.4641576  53.9334297
  84.2007170  18.8719785  55.3313351  53.7196628  64.5706894   0.4150481
  54.2214862  64.2836334   1.1779399  53.1536094  65.2667095   0.7487673
  67.5847141  81.4515235  17.8992076  67.3237888  80.5391242  18.0243868
  66.7609898  81.9390561  17.9042430  35.1929212  19.2140234  45.8921909
  35.4249382  18.3843386  45.4750299  34.7376490  19.7064400  45.2091932
  20.3187346  13.3779705  38.9721322  21.1826348  13.1559312  39.3194151
  19.7112477  13.1450236  39.6742177  14.3291700  13.1430900  61.5882254
  13.9239609  12.4019563  62.0385122  14.2209113  12.9462934  60.6577492
  18.5870824   6.7866773   6.8158812  17.7856622   6.5283126   7.2710795
  19.2926726   6.4036293   7.3370785  16.6147733   3.8461304   3.7951735
  15.8733118   4.0723318   3.2336569  17.3153567   3.6150044   3.1852603
  78.9852220  73.5649140  49.6819258  79.8681933  73.4430177  49.3330193
  78.4117633  73.1675143  49.0265989  86.3487809  15.8952534  25.5781794
  86.2948451  16.5717292  26.2532353  86.2494917  16.3712204  24.7536612
  11.8939245  11.5763986  34.2699218  12.1172726  11.9512951  33.4179831
  11.4729810  12.2934115  34.7441912  21.0197234  18.5654354  56.1600685
  20.2824593  19.0003920  55.7317209  20.9297442  18.7963450  57.0846319
  24.5719934   3.1628343  34.7506642  24.2221475   2.4493992  35.2843761
  25.0410914   3.7192672  35.3724051  19.2673930  80.1838442  47.8403807
  18.6451968  80.1108846  47.1166515  20.0748499  79.7968937  47.5019836
  18.7895640  77.4553017  53.2874012  18.0597266  77.9607166  52.9294586
  19.5207413  77.6400799  52.6979351  46.3528244  81.4341094  57.7508444
  46.1022238  81.9753863  58.4994788  45.9627596  80.5790283  57.9322714
  44.8211185  16.1264970   1.8629355  44.2761628  15.4024746   1.5546364
  44.1969208  16.8137504   2.0959372  48.0306625  17.7484572  62.0387077
  48.4404707  17.6603174  61.1781693  47.4997950  16.9575989  62.1333122
  36.5942597  28.3100009  21.5474510  37.1432686  29.0284467  21.2333488
  36.0995150  28.6870337  22.2749853  23.8162780  14.5597863  54.8377752
  24.3729138  14.0371716  55.4150629  24.1882324  14.4308567  53.9652729
  17.2846758  32.1036410  46.0373354  17.5869858  31.7727304  46.8831110
  16.8002808  31.3727355  45.6534433  36.5319133   5.1120418  66.8800211
  35.6841660   5.4327780  67.1877337  37.1176720   5.8643502  66.9645882
  50.0654411  14.7706318  67.7138138  49.5494461  15.4480183  67.2766304
  50.6737232  14.4620991  67.0422268  23.4305501  39.5503354  70.4636288
  24.1619611  39.0294886  70.1319838  22.7004457  38.9333510  70.5137157
  68.8486550  23.9780188  69.7546673  68.4786246  24.2653489  70.5893850
  68.5555146  23.0715251  69.6620989  42.5702238  34.7436786  57.0715809
  43.3863735  35.2055049  56.8796349  42.4542189  34.1454554  56.3334036
  55.0614834   5.4210234  43.9624310  54.4633627   4.9955836  44.5768261
  54.8107433   6.3445318  43.9846754  55.6610632  36.4769983  56.3619184
  56.0447121  35.6879425  55.9792566  55.5009127  37.0524240  55.6139421
  28.7410979  66.4659788  10.4020972  29.0096696  65.5526759  10.3021807
  28.9884393  66.8801762   9.5753569  27.4047780  18.7951171  41.2585258
  26.4753795  18.6578882  41.0751820  27.6126862  19.6267366  40.8325958
  74.3954796  71.8379910  15.4247224  74.6707613  72.4715919  16.0872948
  74.1872269  72.3698569  14.6566200  63.9463250  65.0915005  21.4166159
  63.7327282  64.4844891  20.7079978  64.2012350  64.5272829  22.1466250
  26.2696004  21.4572740  36.5111017  26.3805938  21.9996738  37.2919464
  27.0272350  21.6661930  35.9646821  38.0624890   1.4588411  45.3398514
  37.7600861   1.0260749  44.5414162  38.9383149   1.7779598  45.1223040
  25.6495293  74.0584374  28.4568429  26.4463051  73.6043204  28.1826901
  24.9614628  73.6909396  27.9021001  68.4572751  80.3238311  57.7910566
  68.2582671  81.2588960  57.8388214  67.9506678  79.9344234  58.5037565
  28.1702852  24.2154169  58.6659193  28.4301472  23.4736228  58.1196165
  28.9804769  24.4938660  59.0928745  21.4230227  27.5335336  31.6366053
  20.7103968  27.5062752  32.2750831  22.1683621  27.1428537  32.0927501
  62.8016941  49.0186294  14.7034449  62.9591099  48.4922864  15.4872889
  62.1147339  49.6331848  14.9615855  14.5446837  27.8061652  36.2723684
  13.7848389  27.5423527  36.7912817  15.2942753  27.4412537  36.7426682
  43.9076948  62.6375723  61.7606401  44.7834349  62.8746128  61.4554882
  43.7168360  61.8091631  61.3207006  61.2634230   2.8881884  24.6329951
  60.5005932   2.9110768  24.0552425  60.8948421   2.8202531  25.5137706
  25.4480720   8.1879556  61.2150764  24.9196315   8.8480496  60.7664585
  26.1510372   8.6865056  61.6316319   7.5714153  15.3466153  26.0595322
   8.0631411  14.8320293  25.4194999   7.4196684  14.7428167  26.7866039
   3.5214528  21.2507915  28.5436273   3.6481246  20.8312416  29.3946052
   3.6331612  20.5432105  27.9087400  80.9319661  44.0873861  48.5223341
  81.7155634  44.3307924  48.0294275  80.2651582  43.9357948  47.8525448
  59.5556450  21.9663763  39.3745494  60.0644684  21.3774872  38.8172889
  60.0494194  22.0073318  40.1935339  84.3855220  61.6884298  44.0798569
  83.5094673  61.4750869  43.7585402  84.9336726  61.6939707  43.2951736
   6.6694291  79.6810156  36.2241983   7.2470172  79.1643859  35.6623125
   6.3888701  79.0700642  36.9055629  71.2422818  76.4413107  40.6661081
  70.5051405  76.1314053  41.1922359  71.1533886  77.3943735  40.6671906
  52.3629634  57.2625269  12.9010386  51.7298047  57.8193690  13.3541102
  53.1376950  57.2744288  13.4630770   7.7646649  34.0535545  45.1347494
   7.6396275  33.1910038  44.7390175   6.9310558  34.5033908  44.9969912
  47.8196335   4.9448171  55.3327656  48.0302095   5.3073609  54.4722700
  47.9368114   4.0003949  55.2299643  50.2216196  29.5533895  49.3784666
  49.6366978  30.2763844  49.6051407  50.4844332  29.7320008  48.4755516
  31.8409753  33.4012389  66.0100508  31.1891127  33.8315320  65.4567385
  31.4999580  33.4955144  66.8994617  71.6801747  13.4759016  11.1124892
  70.9514709  13.8524885  11.6058535  72.3693093  13.3468551  11.7641635
  45.7114271  56.6639807   1.0052723  44.8280815  56.9278766   0.7478041
  46.2894169  57.2073545   0.4696412  28.2404113  14.3484879  55.2041769
  28.8508344  14.8964560  54.7108746  27.4651814  14.2909002  54.6456671
  39.7720695  24.8736167  68.0208778  40.0792360  25.5991125  68.5645103
  39.9995160  25.1308370  67.1273804  44.3147182  18.2100439  60.9390593
  44.7054052  17.5007319  61.4494276  43.3726645  18.1158817  61.0801268
   5.7331762  37.2786254  12.6849932   6.1400662  36.4334173  12.4944872
   4.7941551  37.0938224  12.7027506  72.4774599  49.4704294  48.1540155
  72.2307158  49.3833828  47.2332668  72.9726362  50.2886724  48.1929541
  19.2953070  52.1579773  40.2413702  19.5705565  51.2615425  40.0493336
  20.0733097  52.5727684  40.6140566  54.6211433  11.0455132  49.4070244
  54.5995092  11.4725697  48.5506439  54.1479111  11.6439331  49.9851036
  21.0802460  25.9192348  17.7420664  20.5657864  25.1148438  17.8093064
  20.5391383  26.5061688  17.2139144  21.6972470  38.6900401  61.7789173
  22.6363039  38.8622379  61.8478489  21.4522672  39.0378761  60.9214640
  49.8096907  53.4844143  68.7042236  49.5429087  53.4975440  69.6233988
  49.0090633  53.2698304  68.2254934  74.3480102  57.6280941   9.0109725
  75.1203815  57.0752026   8.8927216  74.3607990  58.2212700   8.2598347
  20.9108782  19.0824199  40.0361729  21.7453933  19.0741849  40.5049467
  21.0150599  19.7653794  39.3736434  15.5424106  46.1860037  66.3131666
  14.6289134  46.0778141  66.0484982  15.8962309  46.8267059  65.6962872
  16.3641652  63.8509686  61.6778517  15.4821261  63.9204855  61.3126087
  16.9396170  63.8363905  60.9130812  33.7229396  75.4395057  30.2255148
  34.2251388  76.1097004  29.7619814  33.6406008  75.7762291  31.1177439
  37.7520847  33.4720969  69.2625523  38.1776166  33.0847692  68.4976149
  37.0484185  32.8608251  69.4803381  76.5932838  67.5678827   4.6998686
  76.7204134  68.3454801   4.1563458  75.9007160  67.8146889   5.3127808
  29.8012042   3.6560100  49.5923233  29.3847299   2.8288031  49.8342133
  30.7185054   3.5443187  49.8419476  56.0781717  16.2271523  64.8224545
  56.0775185  15.4231310  64.3030548  57.0009327  16.4753568  64.8784733
  34.6553048  73.6688025  69.9223757  34.1758927  74.0993912  70.6301832
  35.5655678  73.6632575  70.2183867  39.9689364  31.6999388  66.4341021
  39.8107767  31.1172295  65.6913567  39.1573215  32.1994185  66.5237331
  36.6329432  10.8777964  54.5823288  36.6285324  11.0529101  55.5233669
  35.9092689  11.4011598  54.2379236  69.1045427  41.7955875  60.9725809
  69.1939116  42.5165844  60.3493547  70.0003624  41.6099501  61.2541389
  15.4224906  15.8335895  20.4993243  15.4982219  16.1594123  21.3961691
  15.8801589  16.4853210  19.9682707  84.6954719  38.8259158   5.2159686
  84.0892641  39.3811040   4.7255463  85.3478090  38.5547343   4.5700974
  79.8363248  45.0702454   6.1406083  79.7237484  45.9746070   5.8478827
  80.2773372  44.6354042   5.4107804  10.9508252  23.1420565  31.6406822
  11.3733792  23.7243629  32.2720289  11.4236510  22.3140502  31.7247820
  36.4613867  37.9962730  39.7312570  36.7468786  37.1479607  40.0705099
  36.3706899  37.8589106  38.7883162  45.8671379  32.4175620  65.3420115
  45.2736378  32.8785014  64.7491121  45.6567383  31.4918280  65.2196026
  65.4606144  71.4629723   2.5732417  65.6219665  71.2800123   3.4988350
  65.9595505  72.2604396   2.3962111  52.2172634  74.8601915  13.7124343
  51.7811815  74.9459101  12.8646655  52.5323168  73.9564850  13.7294287
  56.6456739  48.8044997   2.4832959  56.4336769  47.8794803   2.3582835
  57.0556037  48.8416048   3.3474774  67.2256772  60.9384395  17.3982138
  66.3879243  61.3986875  17.4489207  67.5623433  61.1490680  16.5272803
   4.3905784  53.8156176  65.7002306   3.7583114  54.5049477  65.9034443
   4.9996044  53.8239622  66.4386415  58.5717527  44.0875627   3.7137885
  58.0465786  43.9835359   2.9203124  57.9843036  43.8320737   4.4250245
  10.3838692   4.3321390   5.3132577   9.9232230   4.5443124   6.1250586
   9.7148857   3.9362640   4.7547097  84.7044833   2.4229116   4.9969668
  85.3612026   1.8610496   4.5855517  84.3324168   1.8845577   5.6955189
  42.8632204  39.8345018   2.5660653  43.6116592  39.3375497   2.8963847
  43.2536201  40.5548540   2.0711798  42.5733995  32.6254249  67.1649075
  42.8207159  32.2404051  66.3241768  41.6267443  32.4944854  67.2190905
  59.5011330  20.6344461  58.1509304  59.8110056  20.6347919  59.0565872
  58.5924673  20.9297967  58.2085800  40.6983328  56.3653517  51.2050772
  41.6432810  56.5043592  51.1420202  40.5090809  55.7016993  50.5417633
  38.3369064  18.4634662  66.8558931  38.7044835  19.2674780  66.4889002
  39.0698671  17.8479242  66.8661880  57.3871183  35.5340981  50.3129387
  58.2506371  35.9365845  50.2203703  57.1252060  35.7331371  51.2118340
  61.5089941  23.2322741  43.6465597  62.0672274  23.6042571  42.9637432
  60.6584311  23.6512160  43.5151768  46.2224579  38.9622521  69.9775696
  45.6254005  39.3548441  70.6144571  46.8461227  38.4663129  70.5079699
  46.9820547  42.0945740  54.8083162  46.8946934  42.8547668  55.3833818
  47.7355862  42.2985888  54.2544270  45.7829265  66.4474465  17.4527640
  45.8568470  66.1870362  16.5346427  45.1481775  65.8352639  17.8250022
  52.7543163  30.2350807  40.5213785  52.4628592  29.7757673  39.7337794
  52.2540903  31.0511732  40.5216503  67.7708525  60.1795919  56.4716911
  68.1326574  60.0526793  55.5946350  68.0946356  61.0387475  56.7423344
  63.7471286  76.3577821  17.5450701  64.6658985  76.3359620  17.8126807
  63.5427300  75.4511048  17.3161883  80.0494281  54.8697664  27.9413027
  80.8158485  54.2963626  27.9473872  79.3600837  54.3526270  28.3579630
  45.1535360  60.7579090   5.5554194  44.7953157  60.8718087   6.4357228
  46.1013285  60.7243420   5.6850094  38.3194718  10.0291462  19.1605277
  38.9649615   9.4078464  19.4975180  38.6738572  10.8890552  19.3867964
  72.2155380  40.9765673  66.0138702  72.6846409  41.2247038  66.8104887
  72.1503687  41.7887163  65.5114794  25.4317927  30.3120518  25.7143164
  25.5541706  31.2605238  25.6736231  24.4945455  30.1849508  25.5671811
  33.2392128  68.1303472  44.3861198  32.4520596  68.1869073  43.8444376
  33.0244263  67.4785776  45.0534248  61.1527053  72.9952719  43.0303092
  60.7797948  72.6307203  42.2276492  60.7908265  73.8799025  43.0822844
  50.8743858  37.2429919  48.2562208  51.2880993  36.6458631  47.6329184
  51.5909767  37.7930641  48.5726929  72.6294374  48.9440632  68.7101507
  72.2882986  49.6494198  68.1603098  71.9871473  48.2398224  68.6221790
  44.0464632  73.2448222  10.0731463  43.6118714  73.9264013   9.5604891
  44.6518115  72.8314497   9.4575877  63.8851706  49.2360915  11.4744753
  63.6885683  48.4453549  11.9767851  63.3097498  49.9049093  11.8456931
  56.4833832  16.2485170  15.7763469  56.6532946  15.4955685  15.2102816
  56.2491560  15.8648205  16.6214192  69.4089214  72.8756906   3.9358706
  68.8100759  72.7185537   3.2058568  69.0099088  73.5973503   4.4219060
  32.2155786  13.9026213  67.6401329  31.7170715  14.3994009  68.2889271
  32.8393579  14.5343697  67.2823286  23.6422181  13.5307062  46.1737156
  22.7815533  13.6145055  46.5841579  24.2628527  13.6408865  46.8940639
  48.5002565  42.0671368  65.4053831  48.3370161  42.9341459  65.7767105
  48.9074612  41.5742731  66.1177778  77.6134014  44.6050167  65.5303717
  77.1802616  45.1335955  66.2006140  77.7299356  45.2029657  64.7920561
  55.5422544  54.8947573  70.0127316  56.2388992  54.5623636  69.4466639
  55.3346109  55.7580805  69.6552563  80.7231561  75.4166939   1.8806214
  81.6470138  75.2280523   2.0453496  80.3215973  75.4241373   2.7494902
  60.4832411  63.1018066  35.8041477  59.5922470  63.4266233  35.6743407
  60.5145121  62.8506851  36.7272902  41.5857396  16.5417976   9.3967814
  40.7380710  16.1249179   9.2421813  41.8408284  16.2486333  10.2715487
  46.6766439  21.7976541  16.9027896  47.1224437  21.1146850  16.4017386
  46.9265018  22.6140041  16.4699168  49.0506124   9.3673521  53.9202404
  48.2183027   9.5048147  54.3725681  49.2323160  10.2045751  53.4933090
  65.3711081  44.0924501  44.5964956  65.7480431  44.2350578  45.4647255
  65.2445316  44.9728489  44.2427874  51.5576124  47.8139544  66.7868948
  51.0573912  47.3740005  66.0995436  50.9216833  48.3851862  67.2176123
  83.6357403  45.6311035  49.0839052  84.3445206  46.1918116  49.3992996
  83.7040997  45.6723595  48.1300402  79.2769146  47.3085785  55.2855921
  80.0912380  47.1648121  54.8034716  79.4226789  46.8876791  56.1328411
   5.6471199  20.1984637  66.6810703   5.6537527  19.5525306  65.9746933
   5.3395456  21.0042422  66.2659216  56.3570213  74.5956945  58.2390165
  56.3409615  75.5319977  58.4372759  57.1341848  74.4799185  57.6923513
  40.4998589  65.7645178  45.7614279  40.9570217  66.5098238  46.1509848
  39.6736455  65.7125425  46.2419510  76.8317652  55.0263453  52.5364876
  76.2613726  54.7247839  53.2435560  77.5284529  54.3712711  52.4948788
  60.4345322  40.4884815  61.9645262  61.2238073  40.0071335  62.2126913
  59.9233675  40.5428886  62.7719831  40.8082676  56.4289904  56.0076618
  40.2304745  55.9033155  56.5608788  41.0735559  57.1603680  56.5652800
  81.8495885  65.1968338   5.4735846  81.3884584  65.5859544   4.7305007
  81.2308733  64.5611312   5.8331770  83.7670994  44.8675203  53.9007330
  83.4119225  44.7419405  53.0207777  83.3223343  44.2092848  54.4347239
  72.1059847  56.6385174  24.7651243  72.5245428  56.7914343  25.6122708
  71.5334845  57.3954821  24.6407199  67.4237680  57.6604795  41.7788267
  67.4038172  56.7221975  41.9671249  66.5304327  57.9582834  41.9505787
  40.6565366  36.0081310  12.4470133  40.5703244  36.5979929  13.1959242
  41.0030160  36.5601558  11.7459864  16.6869253   2.1976416   7.8882760
  16.5600246   1.6883128   8.6887205  16.7206615   1.5430682   7.1906936
  70.3596401  49.9158239  64.2728806  71.0174084  49.6988058  63.6122179
  69.9111891  50.6847143  63.9208364  19.1853869  62.1702671  50.5216360
  19.5910823  63.0264330  50.6581116  18.7885237  62.2290754  49.6525717
  28.8396335  60.6296206  43.9434624  28.2896686  61.1273909  44.5484352
  28.2564521  59.9607229  43.5847139  44.6458054  48.1200218  36.6120625
  44.4990349  47.2371054  36.9513988  44.2274284  48.6953783  37.2525001
  45.8315468  42.5177670  45.5561924  46.3855743  41.9918823  46.1330223
  46.4385128  43.1177187  45.1227427  31.9114385  34.5509452   7.8902669
  32.2342191  34.8678703   8.7338299  30.9943709  34.3298072   8.0524773
  69.9413673  41.6880293   4.0873427  69.3546716  42.4405666   4.0117688
  70.7967559  42.0232822   3.8187356  67.5724697  62.9436731  33.4612107
  67.6977539  63.8799000  33.3062291  68.3742094  62.5370789  33.1323934
  55.7838440  44.3614435  46.7723846  55.5820894  44.7700787  47.6141357
  56.5575314  44.8293972  46.4582920  59.6439123  37.2765040  46.5197182
  60.0774574  37.9660964  46.0169935  58.7302065  37.3121715  46.2367058
  71.3419008  62.8470087  30.5296946  70.7497835  63.2515860  29.8956966
  71.8268156  63.5810709  30.9068513  66.8784285  69.4967031  40.5099583
  67.5939369  68.8694525  40.6140757  66.3221645  69.1149616  39.8309302
  76.8346508  41.7912502   6.5863366  76.6646262  42.3615188   5.8365864
  76.4272173  42.2409839   7.3265881   3.6802000  70.1520707   1.0484070
   3.7518590  69.6100857   0.2626891   4.1740268  69.6742870   1.7148060
  48.8966036  63.6304903  40.2617502  49.1003370  63.0337763  39.5415711
  49.6424866  64.2294884  40.2947855   4.4819460   2.5874919  22.6606078
   3.5798798   2.2957773  22.5286479   4.9428973   2.3053903  21.8705554
  30.4984031   2.6863021   4.5617241  29.5767818   2.6942415   4.3033118
  30.5623612   1.9749183   5.1989598  79.7984695  25.7453632  49.2754745
  79.5096970  25.5742621  50.1718903  80.6980610  25.4195261  49.2473269
  70.5388538  80.7646252   3.8371701  71.1549989  81.4881875   3.7229247
  70.6046716  80.2633907   3.0243582  56.5549598  24.4861908   6.5817351
  56.2675700  25.0554056   7.2956223  55.7614551  24.0261764   6.3079352
  80.1586954  69.6433236   1.9361968  79.6188060  68.9438178   2.3042244
  79.6693031  69.9464418   1.1714453  44.5434461  22.8162260   9.5659918
  44.1179977  21.9591732   9.5398039  45.4335342  22.6513834   9.2548699
  36.4759636  63.9398479  68.8970423  35.9471178  64.2222500  69.6432304
  36.5513039  62.9914236  69.0021324  47.7871990  63.3355188  42.9120064
  47.4493837  62.4437904  42.9952574  48.1896162  63.3591175  42.0438290
  57.5679255  54.8942995  40.4824781  57.1006441  54.3828154  41.1429834
  58.0091047  55.5825090  40.9804392  45.8913660  55.4871082  51.5927029
  45.2570295  54.9630499  51.1036110  46.5401506  55.7489443  50.9394407
  42.1324587  58.3871841  57.2883987  41.7295027  59.1026640  57.7802849
  43.0331516  58.3525467  57.6105642   8.4911442  42.4789095  40.9520721
   9.3378192  42.4815464  41.3985777   8.5783881  41.8057775  40.2771568
  34.4079099   5.0290842  18.7557501  33.7448392   5.0258703  19.4460864
  34.0243373   5.5599517  18.0576987   0.9942327  28.7832040  20.8346171
   1.2304101  28.1752319  20.1340289   0.0385580  28.7450332  20.8728118
  80.1956081  63.0696011  65.2944231  80.1130676  62.1772051  65.6306458
  80.8652687  63.4727335  65.8469343  28.9613288   5.9459632  31.5614271
  28.7987846   6.8366378  31.8720961  28.0963081   5.6150191  31.3196683
  30.8456454  32.4044818  22.8056902  30.7972846  32.2513361  23.7493128
  30.0963674  32.9691238  22.6159663  70.7426739  44.8551035  45.3991842
  70.7936382  44.9985933  44.4541740  70.9490585  43.9272547  45.5120325
  76.1799288  56.8096495  33.4408164  76.7602634  56.0495758  33.3991766
  76.4288235  57.2570086  34.2496133  46.9275427  27.3535681  48.2002831
  46.2087297  27.0597124  48.7599182  46.9468832  28.3037472  48.3143902
  73.9010612  79.9448516   8.4082121  73.1919471  79.7627570   9.0248437
  73.5634605  79.6520688   7.5617261   4.0974658   8.8294928  48.5212183
   3.7221998   9.3091243  47.7827358   4.1471237   9.4753688  49.2259216
   7.4679852  75.4858065  39.0073729   7.3475116  76.4020252  38.7578535
   8.3625197  75.4453135  39.3456054  31.8746781  73.1111240  38.4936094
  31.6296029  74.0362024  38.5136700  31.9160056  72.8944445  37.5621724
  18.9884942   4.4982283  47.8085232  18.4634489   4.2415660  48.5665989
  18.6657947   5.3692763  47.5775099  37.8088842  11.5540046   6.8652958
  37.6195607  10.6237478   6.9877953  37.0974622  12.0050973   7.3198552
  60.0216246  76.2755013  53.5083961  60.6757021  76.4815617  52.8405952
  60.5283546  75.9189415  54.2379999  66.0540835  33.1669181  50.9509850
  65.3213207  33.3947795  51.5231466  66.4237277  32.3740237  51.3394690
  42.4872193   8.6575002  14.0223879  42.3459611   7.7208967  14.1604228
  42.7101693   8.9964313  14.8893637  74.1560213   2.0500987  42.0530462
  73.2081024   1.9496386  41.9659424  74.5213834   1.4416926  41.4107180
  67.0055000   1.2364619  48.6731768  67.6436082   1.5080970  49.3329239
  66.6960780   0.3829043  48.9763880  70.8779860  36.2291408  43.0334568
  71.2834597  36.1348414  43.8953924  70.0623465  36.7006278  43.2027483
  11.4327957  56.7849398  65.0965214  11.6661407  57.4913740  65.6987906
  12.0959713  56.8286324  64.4076633  75.6609631  40.7935858  45.8904982
  75.9478951  41.0655737  45.0187635  75.6898308  41.5950441  46.4130545
  76.8381254  78.0211260  10.5712123  76.9515506  78.2041575   9.6385474
  77.7048151  78.1659247  10.9508414  43.5693312  42.1688271  47.0100164
  43.9049149  41.5623713  47.6701880  44.2693520  42.2263193  46.3597155
  56.7426920  40.2495623  63.6245394  57.6056242  40.1861906  64.0338850
  56.7699766  39.6147275  62.9086685   0.8629141   7.9284210   8.9255280
   0.1338825   7.3142929   9.0126748   1.6340981   7.4226207   9.1817946
   0.9415581  77.3318577  67.5879908   1.1219646  77.6241446  66.6945457
  -0.0136803  77.3039246  67.6425695  43.4075785  46.7913485  39.9175429
  43.7273932  47.2981787  40.6639194  43.0151081  47.4427176  39.3362331
  38.9079428  61.8156719  47.6636839  38.4477115  61.1042213  47.2184229
  38.2372022  62.4839878  47.8040075  78.0531216  29.5479965  63.6528730
  78.3309555  28.6387920  63.5415602  77.2253513  29.4888043  64.1298676
  48.6638246   6.2681312  26.9722743  48.7740359   5.9731264  26.0683627
  47.9058633   6.8519659  26.9429488  47.5040436  62.7885437  48.5306931
  47.1319294  62.0693827  48.0202341  48.2661390  63.0716467  48.0254221
  73.2983541  15.7248056  51.7512465  73.2952690  16.6360629  52.0442200
  72.6190519  15.3020060  52.2766209  47.8992114  12.8153104  30.4390711
  48.2379756  11.9222660  30.5018801  48.6520181  13.3381910  30.1631827
  66.2986271   5.8950084  57.0777845  66.2908308   5.0727980  56.5877485
  66.8343488   6.4848655  56.5474033   2.9919904   2.8858321  28.2472944
   3.4104770   3.5787623  27.7364588   3.4423202   2.0850127  27.9787397
  69.4589853  43.5017204  37.2748423  69.6253443  42.8928804  37.9944730
  69.4102716  42.9457712  36.4971662  37.8203082  77.5674009  56.0048628
  38.5649347  77.3222017  56.5540791  38.2147121  77.9847240  55.2390146
  65.3917551   1.9583766  58.7242031  65.2299881   2.1592201  57.8024006
  64.9923277   1.0984886  58.8556576  64.4102335  28.8777900  44.9249649
  64.4078159  29.6348977  45.5106354  65.0119209  29.1211438  44.2214108
  63.0492783  68.1032896  46.4312601  63.8904858  68.5468292  46.3222742
  63.2267952  67.4043989  47.0607567  33.6314092  48.2612438   3.8262314
  33.3684907  48.6729354   4.6494050  33.1912456  47.4112720   3.8322300
  61.1676788  37.4168348  62.1352577  60.7407904  37.0845819  62.9249430
  60.5515432  37.2208667  61.4294195  26.0029221  56.6827822  41.4367199
  25.3953815  56.4291525  42.1315575  25.5282044  56.5015268  40.6255341
  51.9904375  25.7324791  45.9077072  51.3569546  26.4484000  45.8588123
  52.8436613  26.1659312  45.8887529  14.5201240  13.0239982   1.4577431
  15.1701579  12.8915424   2.1477742  14.5999751  12.2490902   0.9015269
  36.8336463  47.1299219  38.5070848  36.6206050  47.2933149  37.5883079
  36.2220883  47.6802921  38.9962935  70.3487587  53.8938379  58.3199883
  70.5762243  53.0589867  58.7292767  71.0018158  54.5095015  58.6527014
  47.3362637  43.5190487  50.1723814  47.0782518  44.2467833  50.7381248
  46.6441536  43.4713221  49.5128870  45.3756714  45.2208424  44.0259218
  45.6144476  44.9133158  43.1514788  46.0740232  44.8946762  44.5935011
  17.3581928   8.4817736  62.0016766  18.1460231   8.9272540  61.6900730
  16.8517345   8.3078521  61.2082767  50.7974243  63.6975813  26.5020657
  50.8187866  64.1343498  25.6505919  50.4119968  62.8401470  26.3218212
  26.7577443   4.6792955   2.4862952  27.0078740   5.3264541   1.8268675
  26.1172566   5.1318330   3.0351348  47.0327759  53.1716394  44.6398973
  46.3047409  53.5244131  44.1282797  47.7614832  53.7658978  44.4608068
  65.4801369  38.4179068  56.2896156  65.2050781  38.0687213  55.4418850
  65.2054548  37.7543879  56.9224834  17.4064326  56.8038273  59.7800064
  17.4693775  56.2264967  60.5409002  17.8806221  56.3416529  59.0887976
  13.2174152   5.5948870  52.5757313  13.5845893   6.4207499  52.2605038
  13.2817548   5.0026839  51.8264723  52.7867079  46.5249205  34.6723747
  52.9586649  47.3439407  35.1369929  53.4565639  45.9217119  34.9943447
  56.2538862  63.6474943  69.0532303  56.8724251  63.9498949  69.7182083
  55.6410408  64.3751621  68.9476061  44.7570038  66.0936308  52.4908066
  45.1009226  66.2863588  51.6185665  45.5357504  65.9625244  53.0317307
  17.5920766  12.3427050  60.7033396  18.2619184  11.6628783  60.6300402
  17.8466600  12.8475039  61.4757347   5.0030654   4.4434970  57.2154331
   4.1744750   4.0628188  57.5065517   5.6618112   3.7885897  57.4464798
  61.8890953  61.4393616  19.5628333  61.5566254  61.8484974  18.7638950
  61.8369722  60.4993200  19.3900836  49.7524629  11.8864603  16.3402266
  49.5296798  12.1393032  15.4443068  49.0863166  11.2422437  16.5799613
  74.0779066  71.2163925  70.1023149  74.3200874  71.0163021  69.1981363
  74.6096659  70.6206751  70.6301308  50.7202435  77.4363756  59.1007328
  51.6358423  77.2647095  59.3208265  50.7350206  78.2861614  58.6604214
  30.5737529  43.1774635   2.5516791  31.2611852  43.1179256   3.2150979
  31.0453258  43.3106250   1.7294116  40.7980792  11.0755389  58.4770536
  40.7055871  11.1995356  57.5324345  41.2679760  10.2462523  58.5648823
  51.0910654  30.5748272  68.5638285  51.8226576  29.9724936  68.6987352
  50.3731441  30.0165772  68.2651997  81.1729050  57.4327278  49.8796034
  82.0474911  57.7543592  49.6607828  80.6380367  57.6561022  49.1178608
  63.4343958  46.9469166  69.0921879  62.6216125  47.1315718  69.5628452
  63.3460522  46.0366392  68.8096523   5.3991312  28.9469569  44.8867846
   5.1195377  28.7255709  45.7750654   4.6872991  29.4837706  44.5384216
  40.4829917  37.7785034   0.9643883  40.0821338  38.5282774   0.5246348
  40.7479081  37.1965713   0.2520604  64.0452766  65.0371075  26.5162969
  64.0807152  64.4602919  27.2793579  63.1215763  65.2760363  26.4393592
  10.1188749  11.3385623  44.1562700  10.4520458  10.4443209  44.2307425
   9.6612924  11.4932769  44.9826574  41.0060058  27.1969432   0.3348059
  41.5559564  27.2771329  -0.4445224  40.7718120  26.2694377   0.3682799
  32.4876666  48.9516830  24.2167592  32.1133447  49.6102476  24.8019171
  32.5094724  49.3774462  23.3597398  68.8549252  31.2053175   3.8778014
  68.9743884  30.7986373   3.0195660  68.2026811  30.6570549   4.3139405
  29.0022319  27.0711940  36.5418386  29.8929828  26.7329734  36.6335607
  28.9521354  27.3709624  35.6341743  82.9321194  55.2669525  67.4607992
  83.5361862  55.4585505  66.7434311  83.4064674  54.6463871  68.0140781
  82.8170967  66.7435408  17.8617656  82.6394176  65.8344030  17.6206708
  83.1632137  67.1400881  17.0622754  83.7364538  64.5422191  16.1280150
  83.7279828  65.3486938  15.6125063  83.1148155  63.9666290  15.6824870
  85.9030477   9.2679541  21.5224743  86.1084453   8.5403483  20.9354281
  86.0298435   8.9099543  22.4011016  26.1615634  62.6888895  42.6183224
  26.6753054  62.7225065  41.8113708  26.0684419  61.7545414  42.8042221
  86.7194557  45.4958725  66.1030626  86.0900593  46.0654593  65.6607389
  86.7162704  44.6894264  65.5874348  58.4851027  56.8467331  42.4186468
  57.7815866  56.7487812  43.0602837  59.2471457  57.1062613  42.9364920
  38.0161796  14.8660106   3.3348221  38.2062087  13.9749307   3.6282582
  37.2089944  15.1017446   3.7921090  25.6581855  74.1680861  39.7433496
  25.1459765  73.5470581  40.2612305  26.2035322  74.6227741  40.3852844
  24.1851840   4.5124597   6.2951274  23.5790525   3.9891738   5.7707114
  24.1475091   4.1200704   7.1673913  20.0640473  20.3919429  15.9472460
  20.6821237  20.7622261  15.3170867  19.9646649  19.4790287  15.6771559
  55.7949066  57.3223448  43.5030985  55.0779629  57.1612597  44.1165113
  55.5654716  58.1488323  43.0782366  75.9140587  64.3882847  70.1653194
  75.6910372  63.5887909  70.6420803  76.8485546  64.3020058  69.9769020
   5.6765359  23.6995166  68.5539293   6.6061347  23.5911696  68.3530998
   5.2257484  23.1762355  67.8912067  24.1068683   8.0545444  21.0497469
  24.8992524   8.2820816  21.5361495  23.4324727   8.6324806  21.4067072
  72.2253172  16.5870612  49.5526838  71.4317075  16.0660403  49.4304228
  72.6927559  16.1483042  50.2634764  51.8025780  44.2864609  52.5716305
  51.6018057  44.3972111  51.6422987  51.3971758  45.0426149  52.9960251
  45.8926807  15.4961414   6.7406125  45.6068406  16.3575334   7.0447917
  45.8116565  14.9316330   7.5093741  45.1854801  22.1837521  68.6824894
  45.5957651  21.4237428  69.0951395  44.6027851  22.5360990  69.3552065
  56.1292887  50.3081942  42.0168543  56.3370943  49.3827343  42.1456003
  56.0798883  50.4126453  41.0666561  15.9322979  67.5911474   2.7683765
  15.7290508  67.5877714   1.8330094  15.7674743  68.4922409   3.0460399
  19.1646045   6.8202822  69.9853849  19.3130010   7.0820086  70.8940697
  18.8239616   5.9277861  70.0457859  40.2319527  74.7252893  52.1816587
  40.7013273  74.8887300  51.3636065  40.8961439  74.8271513  52.8633547
  38.2113403  68.7462570  18.6541266  37.6703113  69.5332600  18.5897250
  37.7711147  68.1065180  18.0945105  76.2368107  68.7453461  56.6504478
  75.5857706  69.3875551  56.9331884  77.0259380  68.9716196  57.1426964
  77.3632332  32.7464647   9.7600646  77.4584420  32.1019477   9.0588088
  76.5438398  32.5088901  10.1941008  70.8739805  60.5828238  55.4208469
  70.1264572  60.4316139  54.8424244  70.7198334  61.4528513  55.7889748
  37.4311528  21.3874740  17.4102683  37.7729020  21.4551992  16.5187258
  38.2063232  21.2465353  17.9538531  70.0305978  16.2349837  62.1268606
  70.0507394  15.7302134  61.3138247  70.8187191  15.9631102  62.5971651
  76.2415592  35.3678839  68.1753683  76.8822900  36.0787623  68.1567383
  76.6028396  34.7043460  67.5876427  23.1274304  21.4844913   9.8941893
  22.2465406  21.6043825  10.2489943  23.1285796  21.9886751   9.0805335
  42.8330312  45.1463337  18.4502978  42.7359853  44.2793960  18.8442988
  43.7593160  45.2001876  18.2150836  48.8486767  74.7812462  65.2189779
  48.3431482  73.9784479  65.3462267  48.6420107  75.0553322  64.3254471
  84.0943853  63.6886670   6.1151642  83.2532350  64.0318085   5.8135838
  84.7422878  64.1171934   5.5558629  62.4630294  51.6630382   7.3233981
  63.1243167  51.2754936   7.8967661  62.7796683  51.4847488   6.4378542
  48.5965953   9.8942346  28.7338442  47.8535829   9.2949457  28.6630148
  48.5106597  10.2803201  29.6055026  62.0362139  69.7219467  39.7790194
  62.0042276  69.1624784  40.5550385  61.4170074  69.3210363  39.1690302
  65.3103352  67.0872641  38.9655590  65.9420252  66.9101191  39.6625614
  64.6547747  66.3955402  39.0549588  43.2549429  56.8506384  40.1956129
  43.0884933  57.6615810  39.7150970  42.7458954  56.1873341  39.7296429
   7.9781616  69.3732119  46.7831421   8.7783885  69.1317797  47.2495937
   8.2709831  69.5774698  45.8950186  75.2557603  52.6551499   4.7750039
  76.1469165  52.6687791   5.1241297  74.8028795  51.9952919   5.3000874
  82.8877831  64.8904037  65.7765293  83.5984612  65.1019049  65.1711893
  82.7963161  65.6722927  66.3210630  64.1173840  60.7366180  64.3988895
  64.8602009  61.3379002  64.4528627  63.8723326  60.7411242  63.4735966
  59.1478634  46.4572668  61.1780310  58.8779640  46.1076593  62.0272398
  59.6509743  47.2431087  61.3914824  67.1408359   6.6831534  35.0719929
  67.2162835   6.8508857  34.1326284  67.7894727   6.0011714  35.2463746
  20.3701305  78.7759113  55.1775503  19.8814607  78.2939434  54.5103645
  20.6784868  79.5622826  54.7272539  12.3380321  12.1720832  54.2040634
  13.0006784  12.8624289  54.1807079  11.9153303  12.2167151  53.3464146
  66.2546015  39.5561886  52.8828812  65.9331083  38.8047338  53.3810711
  67.1226835  39.7308874  53.2463980  23.2736478   4.2360134  16.0953421
  23.0615363   4.8537035  16.7951293  23.6793027   4.7742099  15.4156203
  26.0627341  74.4997931  65.3212166  26.3232303  73.6112356  65.5637836
  26.3170195  74.5814276  64.4020271  38.6075211  76.6355944  49.3721581
  37.6701212  76.8268871  49.4024897  38.7151575  75.8741951  49.9421787
  56.9865227  48.4165478  61.6105700  57.1060753  48.7349653  62.5053024
  57.8652859  48.1650019  61.3264370  83.7835026  73.7964582  57.4891376
  83.2482338  73.0073929  57.4048805  84.5827007  73.5969257  57.0015955
  19.0023599  33.1907672   4.0545125  19.9286208  33.3299942   3.8573308
  18.8637195  32.2554512   3.9055199  39.5656524  47.5421447  29.0973372
  40.2884708  47.3769016  28.4919734  39.2482362  48.4132404  28.8592810
   3.3135177  49.8986864  55.8980417   2.6734020  50.6101322  55.8798599
   3.9325477  50.1155901  55.2009153   6.4050776  40.0465012  60.8849287
   7.3562562  39.9733210  60.8065987   6.1894727  40.8617401  60.4320192
  61.3888168  65.1387358  26.1442924  60.7261992  65.4003668  26.7836070
  61.0776234  64.2987633  25.8068991  52.1640062  64.8494005  47.8732395
  52.5912809  65.1379538  48.6797190  52.2864819  65.5771875  47.2636843
  77.3009674  13.8817637  57.0805550  77.1285288  14.8127215  56.9397640
  76.4450828  13.4631007  56.9888592  82.4898911  55.5027103  58.6025810
  81.7296696  56.0559368  58.7821102  82.1257496  54.6248150  58.4888697
  67.6185838   0.6568854  56.9647694  67.0177666   1.4004176  56.9157171
  67.5271742   0.2188628  56.1185980   8.3637033  44.8996276   7.2847123
   9.2900429  44.7808761   7.0748896   7.9232750  44.1728229   6.8442530
  17.8641695   9.8258727  25.7079959  18.7565416   9.8023265  25.3625250
  17.3206514   9.5019286  24.9897480  78.1197071  67.4777460   7.3036647
  77.5348091  66.9989634   6.7163867  78.3647013  68.2612038   6.8113202
  14.2867177   1.6037028  41.3192987  13.3373111   1.5420859  41.2141180
  14.6383947   1.3739913  40.4591894  78.0838855  58.3420772   0.7985396
  78.6948808  59.0777320   0.8400054  78.5391720  57.6817436   0.2761311
  33.3154855  53.8635082   2.9644866  33.1027017  54.4602127   3.6820502
  33.1104980  52.9937000   3.3074994  24.2430625  27.2889585   7.0418019
  24.1268096  27.5266618   7.9617018  24.8165164  26.5228433   7.0630164
  84.8456852   8.0026381  63.0970526  84.8071186   7.2584670  63.6978436
  84.2317621   8.6387770  63.4640074  85.0778000  43.3934634  36.8809295
  85.1523964  43.8056224  37.7416205  84.9553339  44.1243975  36.2751532
  71.8519060   8.2218211  50.7742119  72.1192972   7.6992171  50.0181627
  72.6572601   8.6477416  51.0678673  60.2523422  65.2813148  41.2070608
  60.7197523  66.1100721  41.3115978  60.1787901  65.1656580  40.2597284
  74.2588711  30.3059030  67.3999786  74.1369915  31.2028694  67.0888042
  73.3899069  29.9097538  67.3351860  58.6483335  35.5364656  63.0439520
  58.5582352  35.7181382  62.1084785  59.5216799  35.1544070  63.1307125
   5.9267992   9.1097968  60.4445457   5.8967441   9.2459433  61.3915396
   5.6646961   8.1969302  60.3253794  49.7515297  61.9609547  30.5844593
  50.4647446  62.0987463  29.9611044  49.3544817  61.1327553  30.3148937
  58.9056730  74.5687532  56.4216232  59.8436260  74.4805050  56.2522459
  58.4860802  74.1611242  55.6639862  59.3014050  66.9628572  51.2308836
  58.6314440  67.3630428  50.6765938  58.9055729  66.9337511  52.1019173
  53.7240219  72.1509790  50.2645588  54.6257734  72.2531319  49.9601936
  53.4783745  73.0200577  50.5817127  84.1117803  23.9896910  51.8875551
  84.7007076  24.7422641  51.9426346  84.2194358  23.5394900  52.7253866
   3.8223117  16.1510413  65.5422163   3.2951635  15.8290713  66.2734318
   4.7270196  16.0634177  65.8423233  21.6420644  10.6322997  42.9676485
  22.5587123  10.8949702  43.0513096  21.6594928   9.6775573  43.0339050
  25.1674407   8.0317347  30.6673479  25.4412406   8.0738490  29.7511101
  24.2598766   7.7295058  30.6324720  61.6502986  38.7079830  13.0941100
  61.9089923  37.8973169  13.5324282  60.8480773  38.4806175  12.6240248
  35.1772437  45.4705066  -0.1671081  35.7569776  45.6309814   0.5774684
  34.4273362  46.0456199  -0.0150733  54.0023265  34.1085929   9.3527407
  54.1069827  33.2823724   8.8808961  54.5181117  33.9954729  10.1511187
  68.8454477   2.0093863  17.8252912  69.7208301   2.2538321  18.1255984
  68.2515303   2.4905722  18.4014463  30.2156873  20.6662600  62.2596312
  29.5081993  21.0705130  61.7573643  29.9236432  20.7187312  63.1696796
  38.9190531  57.5453472  68.9486170  39.1858959  57.3530817  69.8475409
  38.5833430  58.4410143  68.9847994  72.9044437  66.4280081  35.7294512
  73.3743811  66.9595242  35.0868964  73.3906507  66.5521908  36.5445638
  54.7513191  23.5724299  48.2843065  54.5880500  24.3905776  48.7535667
  55.5483643  23.2227748  48.6826754   0.4791309  36.1368942  36.7554092
   0.2146675  35.5046606  37.4236703   1.3692238  35.8766103  36.5183377
  40.6608248  80.8580399  51.8608093  40.1949263  80.4443550  51.1341524
  40.5412054  80.2563286  52.5955629  48.8521290  47.7463770  59.9757814
  49.6529341  47.4488544  60.4075432  48.2942915  48.0529356  60.6906796
  45.6638622  73.9712477  67.0262527  45.5691671  74.0724373  66.0791397
  45.6534767  74.8664474  67.3649931  45.4319954  59.2947054  37.6497507
  44.8091173  58.9157963  38.2699847  45.5359650  60.2013922  37.9384303
  53.8515601  39.6465320   5.1774449  53.3014331  40.2731056   5.6475586
  54.7019992  39.7001857   5.6134409  57.9278755  70.6032896  29.8739552
  58.6037827  71.2800360  29.8366094  57.1411180  71.0316896  29.5367312
  22.9453931   9.1286344  16.0493655  22.2847638   8.7512178  16.6301913
  23.6502633   9.4041843  16.6354174  57.0987988  47.6653099  50.6714344
  57.4620676  48.2724571  50.0267363  56.4884996  48.1962442  51.1831713
   2.4405282  13.7757819  30.7973385   3.3715671  13.9626735  30.9176326
   2.0191520  14.1503566  31.5708804  62.6095104  68.8287449  55.1522017
  61.6864014  68.7208509  54.9231672  63.0825901  68.6109543  54.3490839
  65.8804417  78.2039118  37.2712278  65.2271032  77.5573349  37.0041752
  66.4963055  78.2385015  36.5392756  46.4703131  64.8594809  40.2022886
  46.5477371  65.3213120  41.0371256  47.2624588  64.3246794  40.1500607
  71.8157291  76.2131691  59.5295429  70.9046936  76.1251736  59.2493582
  72.3272085  75.9047365  58.7815523  74.5686857  17.2293322  54.6359682
  75.4639379  16.9343417  54.4694042  74.0433447  16.4297812  54.6047735
  10.3017848   3.4848063  53.8727570  10.5138963   3.8923304  54.7125006
  10.0928968   2.5770228  54.0930462  42.1580362  79.1480446  60.9184265
  41.2708616  79.4595623  61.0976124  42.6410484  79.9342060  60.6637001
  22.1693271  80.0522329  16.9880862  22.5447505  79.3070699  17.4571414
  22.7706951  80.2039267  16.2589831  68.1054227   6.6202014  22.7226090
  68.4424869   6.2972396  21.8869567  67.9027311   5.8286040  23.2211351
  80.4005051  32.3261881  18.4870327  80.1192951  32.9415846  19.1641128
  81.1081123  31.8275404  18.8955426  53.7088029   5.2286475  33.9556789
  53.1165640   5.3210585  33.2093906  53.1322066   5.2225726  34.7197008
  20.8157970  60.4699373  52.0635128  20.0657226  60.9659863  51.7355680
  20.4330780  59.6762609  52.4374533  29.9478286   7.6411097  42.9366779
  30.7991355   8.0786078  42.9470396  29.5521682   7.8670447  43.7784863
  61.4963055  50.0529194  58.5398436  60.7150602  49.6175146  58.8808966
  61.9936132  50.2982807  59.3200445  19.5725435  14.0924685  12.1986687
  19.9091857  13.2810920  11.8184423  19.4661468  13.8948291  13.1291795
  25.6787818  13.5581725  52.9093170  25.0058025  13.7471049  52.2553825
  25.5317920  12.6425879  53.1466532  67.0352745  78.7168741   4.9974564
  66.6897440  79.6060801   5.0758713  66.4917183  78.1957197   5.5883700
  46.0777378  44.2622328  56.2159634  46.0782671  45.1416492  56.5939236
  45.8650446  43.6861086  56.9501829  38.2602344  40.2198047  18.8462252
  38.2796083  39.3664951  19.2794985  37.8850780  40.8112449  19.4986720
  73.6578600  71.8499758  40.2859873  73.1338493  71.5873577  39.5292372
  73.9036600  71.0251905  40.7049746  58.8888311  52.2947025  61.3881874
  59.7956371  52.1067190  61.6302538  58.7017059  53.1392717  61.7979717
  83.6380919   7.3215932  15.9621138  82.9779895   7.7841634  15.4458518
  84.4743856   7.6352996  15.6179709  43.3139548  17.1524591   5.1722998
  43.7378297  17.2767515   6.0214848  43.5627399  16.2668151   4.9077696
  58.9590883  70.4576302  41.5028477  59.1293859  69.8340750  40.7968616
  59.6827412  71.0820007  41.4506721  61.3668776  53.8152170  67.4388456
  62.1578646  53.8377428  66.9002676  61.6809416  53.5985518  68.3167124
  21.9590545  70.3116512  43.9434290  21.6834903  71.2070084  43.7468815
  21.1507177  69.7999430  43.9121103  50.4106903  78.1892633  55.8727360
  50.8310843  77.7994919  56.6392756  49.8408127  78.8692856  56.2319660
  22.3191905  59.1963577  44.7857857  21.9286704  59.7755766  45.4401731
  21.5833402  58.9235926  44.2377377  84.5762976  33.3885164  12.5330348
  83.8892754  32.7500362  12.3418040  84.1332634  34.2360992  12.4936575
  28.9372335  22.5402135   4.2087454  29.6383987  21.9267721   3.9890046
  28.5224710  22.1621103   4.9841446  51.7857019  11.1358111  48.3722019
  52.5245325  11.5588801  47.9347372  51.9544379  11.2643855  49.3055964
  59.4483504  20.6712551   5.1208729  60.1165805  21.3196201   4.8987908
  59.1461787  20.9275503   5.9922165  42.6166663  64.4564838   3.8747782
  42.8094802  65.3871269   3.9885850  42.0938954  64.2245788   4.6423525
  56.9014549  47.6957846  43.0636835  57.4633360  46.9519186  43.2809162
  57.4653101  48.4616137  43.1723070  19.9011280  34.1933227  33.3443546
  20.7093384  34.0200830  33.8270688  20.1727821  34.7494435  32.6141715
  46.5680027  49.1383934  40.8701086  45.7376051  48.7123585  41.0826302
  46.4727926  50.0296545  41.2059927  62.4408436  75.5534458  66.6997576
  62.8986740  75.8080482  67.5008821  62.0429039  74.7085381  66.9095182
  42.7218628  80.4179859  42.0125675  42.2020960  80.5711365  42.8016281
  42.0951700  80.0741959  41.3759327  63.4514713  76.0235834  69.0636110
  63.3901548  76.9707584  69.1874361  63.3860588  75.6617689  69.9473810
  74.6835518  54.7302675  47.4471712  75.0254393  53.9754248  46.9680548
  73.9169216  55.0057745  46.9445705  64.3289232  81.4032841  63.6076880
  63.3910751  81.5011311  63.7723064  64.4747019  80.4572487  63.6078310
  69.1666977   8.1673949  50.4043388  69.0158455   8.7659686  49.6727753
  70.0753013   8.3261149  50.6602287  35.7516694  75.1086617  65.2680635
  36.3276887  74.4501066  64.8798132  35.0104356  74.6077538  65.6084919
  58.2496357  59.3216419  44.4827223  57.3531723  58.9900160  44.4316864
  58.5522938  59.3345499  43.5747242  54.6107912  24.6671557  65.4903841
  54.2259264  25.3229213  64.9089336  54.7657585  25.1357174  66.3105488
  81.2878323  57.2999334  24.0450501  81.5935421  56.9928789  24.8985648
  80.4432964  56.8662500  23.9229202  68.7375450  62.2120810  63.4710884
  69.4938898  62.6735258  63.8333654  68.7360048  61.3661385  63.9189816
  15.8345407   3.3900969  54.1502762  15.5042690   4.2823069  54.0448713
  16.1611408   3.3602755  55.0495386  79.0278514  23.1741066   5.9588809
  79.7437413  23.0737705   5.3314538  78.6055191  23.9965219   5.7108874
  55.5177784  59.4635296  60.8053684  55.0988340  60.1150513  61.3677168
  56.3189888  59.2245817  61.2714148  79.8285675  69.7343302  45.4471302
  80.1985741  68.9835453  44.9827480  79.8190689  70.4370070  44.7972155
  56.1853886  66.4160013  37.3275518  55.7173109  66.9336796  36.6724586
  56.4514208  67.0529079  37.9907346  64.8239088  57.4256849  59.3495035
  65.2007103  56.6481590  59.7614622  65.3025246  58.1581450  59.7376585
  22.8190177  25.0244563  14.6927822  23.4069866  24.9692672  15.4460955
  22.1405929  25.6431620  14.9632847  46.9288540  49.9053574  38.1331706
  46.5009642  49.3903208  37.4491525  46.7268181  49.4401836  38.9449763
  13.6565202   0.6025832  50.8390427  14.1925376   0.7648223  51.6153145
  14.1832536   0.0087683  50.3041029  32.8948770  14.6257467  27.9363055
  33.3619771  14.0293521  28.5214228  31.9726119  14.5141000  28.1669421
  20.7340932  61.1225319  35.3604484  20.2129698  61.9099998  35.5171490
  21.6211581  61.3656998  35.6254387  27.5414031   1.6476195  68.2999372
  27.9468387   0.8557837  68.6532736  27.4882167   2.2433894  69.0472412
  73.3948517  45.9348869  62.1139669  73.9204073  46.3910437  62.7711916
  74.0349150  45.4648829  61.5795135   3.8507988  68.4647703  19.3252861
   3.5266353  69.1380405  19.9234974   4.6830704  68.1857872  19.7070265
  57.9443107  31.1345262  18.1331153  57.2411380  31.7571516  17.9483981
  58.0510650  30.6449146  17.3175711  54.8156261  52.3981333  62.0676279
  54.0122414  52.4079180  62.5879335  54.8135900  51.5417862  61.6399622
  43.9422178  78.2088661  27.5844049  43.3712387  78.6908627  28.1826472
  44.7771406  78.1464481  28.0483460  57.1127129  68.2744980  49.7542906
  56.3958025  67.6436281  49.6889210  56.7312956  69.0239620  50.2115250
  78.5966102  54.9394526  14.0254397  79.1916553  54.2002966  14.1511626
  78.9535610  55.4087176  13.2713790  74.5320892  65.0937319  61.5575933
  74.2910671  64.7520304  60.6965590  74.1341782  65.9637022  61.5899944
  29.7740684  11.6141100   1.1518950  30.6451449  11.2368745   1.0288281
  29.6146426  12.1147461   0.3517813  53.1044245  80.5820847  55.3989553
  52.3135138  80.0716209  55.5725098  53.2564640  81.0706806  56.2079048
  65.6089687  56.8419170  34.5998144  65.5626822  56.4779568  33.7157226
  65.0851917  57.6419640  34.5571923  47.9215431  45.1733017  64.0187645
  48.0797482  44.8437309  63.1341267  47.2326565  44.6065617  64.3658638
  70.6603289  76.2794924  47.5137615  70.7286310  75.9864664  48.4224415
  69.8804426  75.8378458  47.1776628  62.7383423  43.6975002  61.4211845
  62.3073530  42.9293919  61.7960024  63.2854605  43.3461905  60.7187080
  62.0351315  80.9136581  67.6523161  61.2764883  80.9198475  67.0686626
  62.7365351  81.3128853  67.1376514   8.2245958  72.8137922  48.9743185
   7.7673620  73.2061100  49.7181320   7.6768023  72.0707464  48.7212706
  68.1849623  78.9550447  29.0275860  67.8263617  79.7986603  28.7519908
  67.6514673  78.3064651  28.5682797  62.5911045  58.1647635  37.0663881
  63.2771635  58.4890604  37.6498175  62.9711628  58.2299566  36.1902928
  72.6767302  70.6134319  53.2900906  72.2932005  71.4648676  53.0798626
  73.6206198  70.7721186  53.3013105  72.7185440  60.3834057  39.6174526
  73.0557394  61.2763023  39.6900821  72.6781321  60.2185297  38.6754274
  21.4136594   3.9639800  70.0383234  20.5018848   4.1185324  69.7913122
  21.6658586   3.1824534  69.5465422  73.2713548   7.4248736  48.5373735
  73.5917656   6.6337054  48.9705276  74.0054647   8.0373805  48.5838079
  83.9900168  21.7041082  10.5646128  83.7073096  21.1004610   9.8776526
  84.6707853  21.2261028  11.0382170  60.0817490  32.3287439  55.3115320
  60.4797649  31.5095186  55.0171089  59.4879770  32.0671892  56.0152769
  54.5793772  64.1978550  36.1607838  54.4786549  63.6022377  35.4182673
  54.5243406  65.0723648  35.7755136  85.6868744  47.1910048  49.6062565
  86.5459538  47.1380186  49.1874504  85.8066273  47.8173780  50.3200817
  47.2209072  55.7668495  31.2263680  46.9833231  55.3096533  32.0330644
  46.3963842  56.1336422  30.9072161  11.5707542  48.6236858  28.9781141
  11.4359905  49.4530058  28.5195279  11.1443474  47.9709196  28.4228683
  44.8136473  46.9258213  61.6736031  43.9395618  47.2661304  61.4828348
  45.3894377  47.3907471  61.0665321  52.4960868  30.5848353  61.6779757
  52.4422590  30.1523536  60.8257484  52.0832125  31.4373915  61.5404177
  80.9097958  49.7985744  70.1156664  80.4390335  49.0523481  70.4868269
  80.9482956  50.4361200  70.8286047  51.9218493  57.1757030  40.8884382
  52.6164103  56.5277195  40.7704258  52.3677683  57.9416323  41.2500191
  81.9303886   2.1376364  40.0895596  81.6241352   1.7179244  39.2856431
  82.7327625   1.6668265  40.3148794  58.4851646  78.0657864  68.2772779
  58.1878662  78.8967657  68.6478376  58.1202078  77.3995972  68.8597107
  83.3631992  67.4159384  38.2744312  82.5614738  67.0227337  37.9296923
  83.8288593  66.6882229  38.6865401  56.6628075  62.5389099  59.9235487
  57.0298052  62.6630592  59.0482569  55.7186413  62.6414824  59.8041439
  31.4955753   3.4281390  44.7780037  31.7177337   2.4985068  44.7264719
  31.4620632   3.7172930  43.8661385  74.3185840  38.3762235   6.5996213
  74.6117244  37.4694366   6.6892476  74.7235904  38.6796732   5.7871432
  32.8622097   0.3176158  46.0837650  33.7743610   0.3364890  46.3733482
  32.8281730  -0.3951223  45.4457378  25.2859729   3.4808390  40.5646420
  25.6391948   2.6897090  40.9715509  25.1109260   4.0699332  41.2985086
   1.3151695  65.8084583  53.8835049   1.2927296  66.0226727  54.8161554
   0.4402305  65.4693222  53.6945391  61.5063143  61.4449310  60.2828979
  61.0908985  61.1498594  59.4725895  60.7867002  61.7977190  60.8062840
  82.9026691   9.8340934  59.0853739  81.9761125   9.5939486  59.0775585
  83.3446018   9.0973704  58.6632729  22.1585132  68.9599180  60.0365686
  23.1139042  68.9766455  59.9801302  21.8931915  68.2883167  59.4082499
  69.8215723  79.4271660  43.3470917  69.3719339  79.5791197  42.5158501
  70.2984285  80.2402592  43.5135889  39.0941572  62.3840857  33.8895392
  39.9321437  61.9706392  33.6820006  38.9500737  62.1824598  34.8141026
  59.0853024  77.0789289  57.4777031  58.8975143  76.2626505  57.0143890
  58.8698721  76.8908644  58.3911896  20.4029792  18.8044589  25.1332951
  20.6359189  18.6925261  24.2116427  19.4502634  18.7138789  25.1522589
  17.5991583  73.2307243  27.2600508  17.5573230  72.5014162  26.6415119
  17.3590040  73.9986324  26.7415190  74.6076059  45.9090281   9.3993497
  73.7163687  45.8048964   9.7326362  74.5801592  45.5315781   8.5201401
  52.7668223  64.6040744  19.1527552  51.8153892  64.5215530  19.2174716
  53.1060538  63.8537807  19.6408362  51.0015917  58.4069967  59.3110704
  51.8288279  58.2705355  59.7729063  51.1576509  59.1755152  58.7622070
  79.1530172  26.3086074  40.8241796  78.5898582  25.5377333  40.7546759
  79.7786943  26.0867541  41.5137720  58.7001371  60.6162119  54.2825747
  58.6933899  59.7771311  54.7431564  59.2437935  61.1845493  54.8281622
  82.3795605  60.2671909  38.4107399  82.2986507  60.1517296  37.4639821
  83.3195496  60.3688145  38.5601664  70.8685732  64.2778015  46.3186836
  71.4345217  63.8531971  45.6739759  69.9822187  64.1490984  45.9809780
  81.7846378  44.3247051   1.7256350  81.4586480  44.9141521   1.0455460
  82.4928172  43.8392372   1.3025183  21.2701696  75.4326512  12.8539557
  21.6154569  74.6076896  12.5127120  20.3870958  75.4917528  12.4893756
  38.5665450  40.4541702  22.8275103  38.0580220  40.9914703  22.2201056
  38.9030442  41.0756988  23.4730334  51.7429551  55.6319450  68.2891922
  51.1657723  54.8708652  68.3512447  51.1605175  56.3562129  68.0602174
   0.3426069   4.9582999  55.4711819   0.6686014   4.0599387  55.4171896
   0.5862802   5.3522628  54.6335363  16.1638778   1.3788646  52.1179533
  15.9315818   1.8192523  52.9354668  15.8735937   1.9794791  51.4314890
  64.7931099  80.4413128  41.3522148  64.0656948  79.8323059  41.2249279
  65.0822163  80.6577301  40.4657507  85.2261861  37.1445531   7.1486897
  84.8256572  36.3578338   6.7787070  84.9872740  37.8437633   6.5401978
  64.7906033   1.5389769  40.1111650  64.4571416   0.8261626  39.5662522
  64.2018787   2.2723525  39.9328279   0.1595109  16.9961875  58.2883978
   0.4189962  17.8287356  57.8937244   0.0840229  16.3936084  57.5485134
  16.2137502  14.8348754  62.9294443  15.7502693  14.1329520  62.4725723
  16.3783353  14.4833129  63.8044024  37.2989068  53.7737388  20.1456732
  37.2508893  52.8783531  20.4806609  36.8099961  54.2944259  20.7829184
  16.0869632  55.5596847   0.6189723  16.7569385  54.8797054   0.5483861
  15.7097564  55.4347915   1.4898009   0.0451892  20.1394789  58.2254505
   0.4950469  20.1817076  59.0692949   0.6799262  20.4855006  57.5980663
  74.5274734  66.4199114  69.2316341  75.1896954  65.7678223  69.4607115
  73.7090397  66.0606718  69.5741844   0.8991378  59.5165103  43.2345247
   1.4865154  59.9132483  42.5912428   0.7994407  60.1850932  43.9122343
  73.0542890  18.1436484  42.9954195  73.0281822  19.0999835  42.9641628
  73.9872257  17.9296344  43.0031729  50.3463731  53.3171959  19.2976470
  50.7215676  52.7694435  19.9871630  50.6746755  52.9356975  18.4834475
  85.2487461   1.2318747  53.6722422  85.6329290   0.4100936  53.3667564
  85.7188980   1.9106524  53.1880522  75.3955070  20.6775229  32.4020314
  75.2591316  21.5604346  32.0583797  76.3458387  20.5958789  32.4822593
  63.8307571  70.6751299  48.2250452  63.2906008  71.3166857  48.6864233
  64.5504332  71.1880922  47.8574038  28.5012859   4.8554461  57.0730829
  28.6355823   5.3056853  56.2391281  28.6255401   5.5354922  57.7351475
  23.4340081  13.7843294   3.3110566  23.2443175  14.4411106   2.6410670
  22.6066051  13.3180875   3.4304518  18.7977451  12.9284518  63.3957863
  19.2008918  13.1638758  64.2314148  19.3598741  12.2377436  63.0448294
  14.7111362  13.1195872  30.0236654  13.9101976  13.2268088  30.5367303
  15.3307193  13.7351268  30.4153943  52.3129115  35.0647897   4.8267788
  51.5854964  34.4780607   4.6197695  52.6016841  34.7904176   5.6971592
  69.4463245  11.9325393  32.7334428  69.3867866  11.1534827  32.1804929
  69.4097606  11.5945285  33.6282277  12.7645733  78.9849901  21.2540054
  12.5548221  78.3251286  20.5930781  13.2783653  79.6409750  20.7829046
  20.1172727   8.5007994  53.2567883  20.7419675   7.8270476  53.5251951
  20.6450218   9.2941802  53.1658697  20.1845640  65.6605094  51.1109209
  20.5835193  66.4553206  51.4649630  19.3041223  65.6468241  51.4862442
  37.3650584  56.7922897  35.2106280  36.8392406  56.4133949  34.5062251
  37.6635394  57.6321048  34.8615450  11.2322563   5.5461447  38.9575005
  11.7284769   5.5262797  39.7757912  11.7702049   6.0699694  38.3638263
  68.8639784  58.8177299  17.2463036  69.1288614  58.6670923  16.3389039
  68.2552814  59.5549393  17.1988845  86.0492698   8.6635630  42.5937319
  85.2087967   8.9091246  42.9804277  86.4486591   9.4957679  42.3404408
  60.5214119  67.9611969  44.7837114  61.1830044  67.9773426  45.4752827
  59.7613621  68.3971024  45.1691294  29.4253621  73.1535167  10.4753012
  28.6652742  73.6688060  10.7454390  29.0523372  72.3803443  10.0518698
  84.7406189  79.8830296   5.7857127  84.8332111  80.8250596   5.9279627
  85.3810016  79.4874265   6.3770146  29.3516971  74.3734503  29.9529028
  29.2114879  74.1158342  30.8640599  28.7115433  75.0683069  29.7992396
  46.8303714  21.2090845   0.5232615  47.2796712  20.4172391   0.8187956
  45.9746156  21.1725254   0.9505553   5.9963276  75.5179930  57.5165272
   5.2728702  75.6885910  56.9134140   5.9585049  74.5748043  57.6752377
   0.8161729   4.9630873  32.9826140  -0.0566727   5.3539412  33.0227733
   1.3468116   5.5011790  33.5700774  81.3783828   3.1814235  42.7138281
  81.6814605   2.7243560  41.9293118  80.6822626   2.6241534  43.0618095
  19.5028108  10.7611602  44.6859932  18.9931291  11.5566867  44.5323849
  20.1710170  10.7687609  44.0006638   4.4414752  24.3489211  62.2962523
   4.4725936  25.2920954  62.1359396   5.3515094  24.1044181  62.4644375
  45.4175901  64.6498108  49.9684334  44.7326803  64.1576624  49.5157480
  46.1535025  64.6544933  49.3563509  36.9513648   4.9542182  39.1636682
  37.4508708   4.1425746  39.2528725  37.0676273   5.2075904  38.2479620
  24.5896087  43.4877605  20.9506888  24.8283324  42.8537674  20.2744574
  23.8577304  43.9760131  20.5735964  51.1861467  76.5490818  47.2221279
  50.4708290  76.5761185  47.8575945  51.9578123  76.8220425  47.7183723
  66.8196774  58.9457273  36.3108587  66.9182682  58.2378197  35.6741667
  66.8359947  59.7451401  35.7846379   6.0165113   7.0005553  48.8052702
   6.2535709   6.8669074  49.7229719   5.3344768   7.6717322  48.8293743
   7.1873754  19.9305671  39.6920967   8.1104082  19.9578898  39.4400978
   6.8629306  19.1085379  39.3243408  30.4583488  28.1332798   6.8764205
  29.5124707  28.2646579   6.8109221  30.6554065  27.4748439   6.2101883
  62.3424578  74.9747562  39.6436572  61.9221926  74.2925930  40.1673555
  61.7099476  75.6931353  39.6340418   3.8886589  19.1232913  59.8908329
   4.5593875  18.6909240  60.4194307   3.2986349  18.4168856  59.6279764
  35.5632925  55.7949686  41.5088892  35.7626915  56.2732220  40.7040596
  36.2521148  55.1332474  41.5711880  51.2863677  16.5848296  52.3823595
  50.5188697  16.2834018  52.8684855  51.8572944  16.9667952  53.0489779
  73.6117172  51.9991016  29.1757226  73.4098244  52.8150654  29.6336222
  73.9725256  51.4272165  29.8532152   8.6219018  33.1865828  65.1747274
   9.0655035  32.6049655  65.7921219   7.7803987  32.7619593  65.0080013
   8.8156319  72.4983597  53.2189989   8.9297700  73.2950115  52.7007818
   7.9665315  72.1529531  52.9433966  45.8823285   3.0597038  29.1728777
  45.7633672   3.9924593  29.3518824  46.0959230   3.0200595  28.2406516
  78.1121675   5.6597655  58.5136652  78.4560339   6.0095923  59.3356180
  78.3775512   6.2984126  57.8519011  76.9806147  75.7319689  67.9368258
  76.1360502  75.7477474  68.3870411  77.5883436  75.3676987  68.5804176
  80.3723899  14.8851817  68.0867815  81.3210765  15.0000232  68.1419039
  80.0521652  15.7097190  67.7209663   1.3557571  20.3772204  60.7016420
   1.1246532  19.9502890  61.5265989   2.2395700  20.0640147  60.5092430
  44.7217975  21.0835809   2.1283192  44.4064269  20.6388635   2.9150815
  44.4545589  21.9952650   2.2451300  30.2642427  33.2910986  40.6194300
  30.2454791  33.2821626  41.5764041  31.0776649  32.8409071  40.3915972
  29.0521464  59.5514888  11.6796298  29.3580136  60.0707550  12.4232859
  29.7624383  58.9322300  11.5116019  54.6677685  60.9575176  26.8030453
  55.0714493  61.0872364  27.6612091  55.3320360  61.2503386  26.1791563
  28.2225881  35.7046003   8.9342780  28.9534602  35.9926195   8.3873696
  27.5295625  35.4849119   8.3116335  36.9022260  29.8961038   5.8384604
  37.2977815  29.0591259   5.5950780  36.1014733  29.9434585   5.3161759
  67.6687002  63.2003498  36.3435292  67.7528095  63.2007933  35.3900337
  67.8446722  64.1056299  36.5999150  25.2394137  47.7614708   0.8459324
  25.9968171  47.2555847   1.1402983  24.9551282  47.3225326   0.0442214
  37.8671393  60.3687877  15.1207442  37.4853072  59.7409172  14.5073790
  37.3476920  61.1642093  15.0036521  10.1269008  54.5970869  31.0617495
   9.5609905  55.1618576  30.5354285   9.5600178  54.2771196  31.7635274
  86.9455624  50.0721025  57.4329853  86.5903759  49.6425915  58.2111883
  86.1800289  50.4416227  56.9929314   0.5770733  80.1706123  53.1449556
   0.4081394  80.7236195  53.9077711  -0.1645420  80.3334808  52.5621080
  77.8181601  75.6439734  54.2645264  78.7490082  75.8574867  54.3290854
  77.3762751  76.4929819  54.2767811   0.4001150   0.0604076  16.2388415
   0.4834113  -0.4849225  15.4565997   0.9461174   0.8252592  16.0568614
  73.5666275  52.3987293  69.9781132  73.0348778  51.6795683  70.3191233
  74.3594170  51.9752312  69.6489239   2.3269075  12.5556319  25.9470940
   2.5459188  11.6322081  25.8223939   2.6858848  12.9932826  25.1751947
  52.3534236  55.4464836   7.8163333  51.5654597  54.9033756   7.7969069
  52.0253692  56.3414115   7.9041333  59.3327556  75.8125228   6.7106385
  59.2027793  76.7332668   6.9377179  58.6329875  75.3508110   7.1725649
  50.6064939  79.9443817  60.9020376  50.5788422  79.2713022  61.5820599
  51.3438940  79.6928978  60.3459644  13.4883398   4.6050494  48.5559988
  13.4028905   4.3552821  47.6359177  13.0812591   3.8854163  49.0383339
  62.9411697  75.7465076  44.4260073  63.3270836  76.6130686  44.5539665
  62.0262575  75.8508062  44.6873236  27.9849610  69.1494960  12.5351328
  28.0863032  69.0339107  11.5903563  27.4525533  69.9399871  12.6239771
  64.8080063  76.6692162  41.9280148  65.1829910  76.2109232  41.1759567
  65.3995037  76.4648724  42.6523113  63.7756220  21.9653647  28.4776354
  62.9931609  21.5072863  28.7844801  63.4588043  22.5404589  27.7811217
  41.6057491  33.3580995   9.8421299  42.2093201  33.4579444  10.5783141
  42.1077347  32.8767681   9.1844344  13.7687160  63.3909988  38.8506413
  14.4507839  62.7594662  38.6222172  13.2961513  63.5398674  38.0316448
  45.9055758  72.9588461  56.4652586  45.1659203  73.5662413  56.4504910
  46.1288357  72.8758144  57.3923492  73.0820942  67.5561523  61.6679955
  72.4395275  67.4094629  60.9738588  73.8063574  68.0058908  61.2327862
  84.6839372   0.8779185  56.3550711  84.9015991   1.1602824  55.4667425
  85.2115480   0.0911467  56.4923477  37.7869973  37.8037471  10.1518435
  37.8251824  36.8763990   9.9177641  36.9938359  38.1263132   9.7239680
   3.2176155  27.5692313   5.5040950   2.6345294  27.5049536   4.7477144
   4.0427488  27.8938430   5.1435256  15.0329242  55.3982181   3.3011241
  15.8352075  55.2854557   3.8108916  14.8316846  56.3311500   3.3744711
  80.5951730   8.8193839  58.5006380  80.6469194   8.3076232  57.6933908
  79.6755306   8.7645762  58.7604332  45.4879842  63.8823242   3.4044308
  44.6435056  64.3171424   3.5228343  45.2946458  63.1329746   2.8411049
  49.4742537  64.2967987  47.3788977  49.0784550  65.1642513  47.4631691
  50.3470278  64.3937254  47.7598286  11.2412486  48.2017726   3.3926148
  11.3121305  48.7608642   4.1663308  12.1268735  48.1812305   3.0300135
  51.2264633  80.6172276  47.1607256  51.4031458  81.0154152  48.0130577
  50.2841139  80.4493427  47.1655178  84.3673611  23.3828974  43.5671186
  84.1992378  22.8412533  44.3382120  84.8022556  24.1626000  43.9123106
   1.2931007   3.9583438  24.4335866   1.3990015   4.3605273  23.5714579
   1.3648361   3.0180209  24.2696619  43.5344982  68.2883167  50.7825708
  43.1939125  69.0683222  50.3445959  42.9991674  68.2036591  51.5715504
  33.3931583  21.0610335  64.6646404  33.6963409  21.9583457  64.5263243
  32.4929470  21.0595458  64.3392992  68.0320883  61.1258078  51.2229919
  67.6209116  61.8552065  51.6868305  68.7123346  61.5350533  50.6881857
  24.2751241  62.9733944  52.7914095  24.6903992  63.4107685  53.5346985
  23.5440445  62.4898052  53.1759787  40.0022771   0.9349787   6.4263053
  39.5131232   0.2293837   6.8495125  40.7353951   0.4940951   5.9968895
   8.5048630  64.7582817  20.4184747   9.4290115  65.0056458  20.3871250
   8.3790447  64.4135666  21.3025403  73.9929581  68.1854391  49.6561909
  73.9455748  67.2322655  49.7300100  74.9291039  68.3744383  49.5918131
  64.9344478  49.6271343   6.1378140  65.0932345  49.2030830   5.2944893
  64.0477309  49.3582077   6.3779301  58.0482721  47.3608303  54.0646744
  57.4009466  47.9069948  53.6186886  57.6272345  47.1145821  54.8882771
  35.7663083  79.8157501  56.1472368  35.4846048  80.0422859  55.2609158
  36.5582919  79.2932892  56.0206461   1.6654732  67.6067972  62.2446537
   1.2266208  68.4484196  62.3684025   2.3290397  67.7786398  61.5765285
   5.1231855  28.6157935  51.1506701   4.3664926  29.1478675  51.3967514
   5.6444114  28.5559027  51.9512749  12.0879638  59.4609947  27.0877928
  11.3529097  58.8657779  27.2349543  11.7284762  60.3318901  27.2567362
  27.2322116  34.4126625   3.1518693  27.8009162  34.2889995   2.3919291
  26.3870320  34.6648998   2.7800126  57.8809309  62.3544359  57.5323296
  57.2631979  61.7499828  57.1209097  58.7397909  62.0666218  57.2228765
  35.1135287  49.5458812  15.3315253  35.0632653  48.8401146  15.9761996
  35.9947286  49.4730682  14.9648947  57.2297859  72.1278715  55.9632111
  57.8893375  71.6515112  56.4674997  56.4279079  72.0453024  56.4793587
  71.1033630  27.3600745  41.3329268  70.7886791  28.2522011  41.4789200
  72.0573235  27.4384546  41.3398457  26.8565392   7.7173746  45.9260416
  26.4775109   7.8823125  45.0626945  26.1510253   7.9206729  46.5401649
  65.8410842  71.3439030  29.9154687  66.5626872  71.7731405  29.4558215
  66.1786890  71.1864383  30.7972050  35.2852352  65.0867898  10.6361091
  35.8940514  64.7047920  10.0039291  34.4246395  64.7707207  10.3609586
  48.8123632  62.6614744  51.0304213  48.8425207  63.4032173  51.6346931
  48.3668876  63.0023641  50.2548075  13.7846363  10.3277612  41.9360781
  12.9667437  10.3229463  41.4388227  14.4611239  10.5058181  41.2827063
  70.6250412  74.0652759  38.8791013  69.7194368  73.9738483  39.1753316
  70.9894210  74.7561909  39.4323611   3.4831762  20.2833080  31.1237693
   3.7462908  20.9483290  31.7599726   2.5782576  20.0746584  31.3557601
  54.5853917  40.4846703  10.6127829  54.7566334  39.8066893   9.9591441
  54.9615494  40.1378791  11.4217753   2.7923435   0.8491152  49.1677809
   2.3298526   0.7945651  48.3315039   2.5810117   0.0281829  49.6123505
  26.8549776   0.9655321  34.7964907  25.9446096   1.2358151  34.6764517
  27.2807550   1.1831398  33.9672804  25.8787227  18.1503165  50.9479237
  26.1502266  17.7958870  50.1012278  26.1710596  17.4986792  51.5852118
   3.9953740  67.3430271  30.7688069   3.8736328  68.0720503  31.3770294
   4.6649917  67.6502318  30.1576829  63.6036959  29.2928796  60.8997946
  63.0970135  28.9976173  61.6563158  63.8018050  28.4908145  60.4163950
  20.4420090   7.5846303  48.9614439  20.4485226   8.1845367  48.2155895
  21.0620499   6.8963122  48.7206125  49.7005415  38.6192608  64.7030544
  49.1625404  39.4011402  64.8273563  49.4469643  38.2885551  63.8413334
  23.7098002  25.9241748  28.5254622  23.4374189  25.8962750  27.6082587
  23.1531072  25.2782893  28.9603853  26.3563895  14.0790868  64.3946743
  26.2867141  14.7425890  63.7082767  26.5763521  14.5734739  65.1842499
  81.6164285  61.5893252  45.7344532  81.1968166  61.0616452  46.4139462
  81.7613489  62.4405343  46.1475801  20.8699965   8.4954071  29.3746877
  20.0952816   8.7847817  29.8566747  21.3274360   7.9148054  29.9828672
  64.5565182  68.0479057  36.5871429  64.8699576  67.7866287  37.4530077
  65.2485353  68.6120779  36.2421012  33.6081440  72.0209945  24.3865204
  32.9289514  71.3733096  24.1982794  33.9016110  71.8096454  25.2727699
  42.6722765   7.0188355  36.6970325  43.4186363   7.2864366  37.2332907
  43.0445337   6.4187098  36.0508847  30.3006649  23.5914326  38.4664845
  29.8860073  23.4244132  37.6200819  29.6463990  24.0856600  38.9603519
  10.3448709  30.4152066  69.2979670   9.5914873  30.9721524  69.1018677
  10.9517415  30.5695827  68.5740137   8.2657894  67.5022549   4.9520266
   7.7867587  66.9098289   5.5315018   9.0968450  67.6566107   5.4011989
   7.5423916  66.3591368  36.8548274   7.5225600  66.7495579  35.9810948
   6.6395815  66.4232607  37.1663642  68.0803424  81.2133941  31.1247730
  67.4129695  81.2215432  31.8109083  67.6294411  80.8637611  30.3562188
   8.1119579  21.9280744  57.0228148   8.1979662  21.2549925  56.3476896
   8.2359022  22.7538610  56.5548992   3.0812367  75.6088896  57.8507185
   2.3465474  75.9814859  58.3381939   3.6108549  76.3658030  57.6000834
  12.8704413  68.3751399  42.0831728  12.5465926  67.8241808  42.7957726
  12.2383126  68.2478506  41.3757515  14.1586264  70.4560263  60.1200151
  14.7879847  69.9296958  60.6130838  14.6575125  70.7895465  59.3742895
  53.1360036  73.6938030  64.3041658  52.7593193  73.0068923  63.7541723
  53.9190123  73.2945932  64.6833229  74.4926149  49.7002060  45.6226587
  74.7830326  48.8361842  45.9148169  73.6794347  49.5313127  45.1467943
   6.1711633  12.2230089  55.1408672   6.1272049  13.0130148  55.6795597
   5.4842854  11.6557670  55.4911041   2.6238879  70.6119258  42.1426916
   3.5509046  70.3797669  42.0881414   2.1689041  69.8809273  41.7245245
  15.6384142  71.5326316  47.9837847  15.2641209  72.3102076  47.5696468
  15.9472330  71.8403150  48.8359547  63.2645071  72.1988005   8.2698590
  64.0214050  72.2981239   7.6923883  62.8525281  73.0627877   8.2754844
  67.9976064  58.7768609  30.3771138  67.6166946  59.2154605  29.6163440
  67.8794438  59.3980200  31.0957432  43.7369490   6.8129003  56.9219923
  44.0687466   5.9308869  57.0899010  42.7907991   6.7408657  57.0478630
  18.9327431  33.2266259  56.2976265  18.9082897  32.4601269  55.7248116
  18.3603632  33.8635850  55.8699608  74.0475927  27.8468609  41.1247253
  74.6358369  27.5701761  41.8273258  74.6087025  28.3319116  40.5196524
   4.1192182  70.0136454  68.9643908   3.5128172  69.9662084  68.2252979
   3.6346444  69.6325130  69.6966219  82.9661174   7.3948216  37.1220613
  82.8579496   6.9557250  37.9657006  82.0910836   7.3871666  36.7341328
  37.1215916   5.3043818   1.6693114  37.2368813   5.9269136   2.3872213
  36.9159842   4.4755360   2.1017140  85.0880677  57.1086843  34.5351553
  86.0146004  57.3405368  34.4717908  84.6574146  57.6629860  33.8843703
  19.4631632  56.5411837  27.0594859  19.6195515  57.2240622  26.4072204
  19.2365511  57.0192821  27.8571701  74.5402307  59.7583444  62.0804787
  75.3347463  59.7672350  62.6142406  74.8307759  60.0422222  61.2137461
  82.0629120   4.4619751  38.3280325  82.0856857   5.2082157  38.9270639
  81.8139839   3.7199724  38.8791227  82.3102886  78.5649876  27.9473472
  82.8670436  78.6672140  27.1754622  82.8955466  78.2178060  28.6205244
   3.5632354  41.5130138  69.0658140   4.3168211  41.0453701  68.7057447
   3.8120556  41.7086792  69.9691582   1.8917449  81.4064250  14.3698025
   1.4183911  82.2378687  14.3402982   2.1714719  81.3222852  15.2813423
  21.6424084   6.3207471  52.9252768  21.2616158   6.0097432  52.1039963
  21.2368631   5.7750881  53.5990906  82.0713669  54.4836552  22.5091362
  81.1269480  54.6395356  22.5070548  82.2896010  54.3474133  23.4311128
  13.7089499  49.0032513  23.5975695  13.2161387  49.6133978  23.0488491
  14.3087109  48.5674293  22.9921174  59.9659290  52.5482040  37.8436022
  60.4491057  51.7362695  37.6901966  60.4855170  53.0162864  38.4971743
  32.9601049   0.9898335  53.3796644  32.4518013   0.3954240  52.8278160
  32.3034883   1.4598665  53.8936281  12.7588761  18.8915825  26.3474107
  13.1802285  19.5464301  26.9040680  12.2272849  19.4024503  25.7369542
  18.2283123  75.8140994  33.2962203  17.4623211  75.7828177  32.7230620
  18.0175742  76.4894457  33.9409924  55.4647064   8.6618280  40.2830791
  54.6496248   8.4516507  39.8273420  55.5585623   9.6089810  40.1814699
  48.8497788  75.8256937  69.3805122  49.7292286  75.5536039  69.6427488
  48.9951015  76.5392823  68.7592983  80.4937093  12.4319601  14.8502839
  81.3227127  12.4129987  15.3284311  80.3922109  13.3454657  14.5830083
  35.9090281  14.7128272  63.7354422  36.2018585  15.5622041  64.0656567
  35.6896949  14.2128634  64.5216751  52.4321986  63.3869834  51.9915485
  52.4571526  64.0734858  52.6581240  52.8840044  63.7677963  51.2384987
   8.1465286  26.8768525  49.8271036   7.7854949  26.1147976  50.2800465
   7.8163522  26.8019676  48.9317799  75.8427940  21.4529061  51.2649345
  75.0369595  21.2232733  50.8021927  75.7772790  20.9938002  52.1022892
  46.5187254  52.7604895  48.7957888  46.5433242  52.2559755  49.6088629
  46.2424102  53.6363130  49.0656286  82.0496793  21.4643884  43.3671999
  82.2623436  20.7718658  42.7415657  82.7229736  22.1299124  43.2258320
  23.4177740  69.4702883  46.1790657  23.1143053  70.3573711  46.3719940
  23.0673416  69.2812760  45.3086042  67.6764713  12.2229791  46.2688065
  66.8193434  11.8201232  46.4076233  68.3006654  11.5798390  46.6049385
  54.6240083  28.0132105   5.2170081  55.4810754  28.4392621   5.2048344
  54.7638265  27.1809365   4.7653431  54.9365274  11.5086700   8.1829876
  54.7544090  12.4063541   7.9050870  55.4932467  11.1519577   7.4908490
  13.5470855  -0.1997157  44.5020342  13.5557723   0.7479302  44.3674135
  14.1836810  -0.3481412  45.2012825  29.5973452  80.0203080  39.7985578
  30.1968392  80.1000891  40.5404949  30.1628407  80.0666081  39.0276480
  22.0489176  41.7178590  25.1634812  21.9624813  42.3720724  24.4701099
  22.8163155  41.2034328  24.9130917  54.0741873  12.3615932  47.0618582
  53.2807732  12.5443554  46.5585470  54.7848558  12.7102065  46.5236616
  29.5853209   1.3968688  17.9070294  28.8711429   0.8311956  18.2006216
  29.6122837   2.1031429  18.5525382  77.3559159  66.8178375  52.8695726
  76.6942936  67.3648722  53.2929420  78.0378348  67.4327512  52.5992060
  32.4849892   4.5149121  53.0678844  32.2757888   5.4485643  53.0402851
  32.6020408   4.3230921  53.9983368  25.7843018   4.0090856  51.7628431
  25.1299405   4.6858165  51.9362783  25.3313065   3.3746332  51.2074184
  76.7341811  30.5456121  60.6457043  77.2811502  29.9414069  60.1437187
  76.8959481  31.4014060  60.2486134  18.5441363   1.7569064  23.7139893
  18.9573920   1.2609188  24.4207048  18.5790002   2.6671568  24.0080309
   8.5375293  51.2840755  46.6181517   8.5434636  50.3811724  46.9358921
   9.0247448  51.2514717  45.7948732  59.4068829  19.3054916  17.3558516
  58.6571399  19.0810611  16.8047232  59.8806945  18.4807326  17.4631304
  14.6878552  19.4876134  37.7149129  15.2540338  20.1141644  38.1655860
  13.7990546  19.7853339  37.9088926  27.9333258   6.5367442  59.1158915
  27.8643012   7.4817646  58.9802313  27.6747751   6.4062279  60.0282192
  73.7009226   5.3995621  50.1022959  73.4998189   4.5266959  50.4397774
  74.4880233   5.6648159  50.5780554  14.5415934  80.2742031   9.3236262
  14.3665465  80.0663809  10.2414501  15.4861601  80.1533134   9.2266130
  45.7158422  11.4465320  59.3236542  46.4206123  10.8029056  59.3962669
  44.9643373  11.0271072  59.7426510  35.4762697  13.9386392  25.7853937
  34.8706198  14.6716273  25.6751800  36.3454008  14.3369091  25.7381988
  62.9611633   6.3633937  52.4159098  62.2721098   5.8242935  52.8042507
  63.5232971   6.6012901  53.1532288  36.3329895  76.1401899  33.2153392
  36.5494641  75.9478880  34.1276932  35.3844269  76.0224731  33.1643081
  26.8615890  22.3727536  30.8451223  26.6343307  23.0188155  31.5138459
  26.1411953  21.7428136  30.8660650  62.1620218  75.6225778  21.9391341
  62.8911773  76.2083031  22.1428103  61.8425218  75.9245755  21.0888667
   5.4434144  21.0554838  49.1265106   5.6235969  20.6820226  48.2637835
   4.4885206  21.1040521  49.1717958  29.7679575  77.4857909  56.7155218
  29.6229895  77.6566721  55.7849216  28.9631613  77.7809531  57.1414471
  67.3326395  10.1847899  11.5681934  68.2527850  10.0856113  11.3237989
  67.3316441  10.8886528  12.2168887   4.8533615  56.5876920  17.4700785
   5.6637510  56.9678528  17.8091621   4.7373851  56.9967730  16.6125035
  19.5136412  60.6954152  38.1108141  20.0144060  59.9939902  37.6943183
  19.7225674  61.4760477  37.5977898  83.1709773  76.6064812   8.4440005
  83.2596571  76.6953282   7.4950671  83.2710296  75.6686069   8.6071372
   5.0632127  42.1545036   3.3438531   5.1121243  41.6873462   4.1778821
   5.9740194  42.2351749   3.0607408   2.4390014  74.7661234  67.6425886
   2.2979840  75.2150852  68.4761238   1.5593084  74.6382148  67.2876120
  52.1598434  11.8529701  27.5393057  52.4613047  11.3091230  28.2670307
  51.6386557  11.2605417  26.9974351  36.4278960   8.4858078  52.0396805
  35.7546210   9.0261543  52.4531507  36.9123769   8.1047976  52.7720356
  34.7526431   3.0416209  63.7848377  34.1088796   3.5462803  64.2819500
  35.3566289   2.7055308  64.4470119  23.7087870  26.3376856  61.0686970
  22.8959751  26.8432212  61.0693121  23.5978007  25.7066035  60.3576088
  80.8617693  47.3308427  48.2538366  81.2317163  46.7696125  48.9352989
  81.2643868  47.0201070  47.4429274  75.8620141   9.2746991  53.7228584
  76.4725731   8.9139795  53.0799484  75.3506432   8.5208225  54.0167999
  23.8512373  19.0138328  54.1628170  22.9818273  18.9622629  54.5599318
  23.6907625  19.3366504  53.2761002   2.1852907  70.1642008  55.0282288
   1.8010982  70.9384877  54.6170044   2.9303535  69.9413938  54.4701338
  80.8339531  61.7726047  30.9508252  79.9517805  61.4191110  31.0650468
  81.2002284  61.7927677  31.8349457  17.7688909  12.5992584  48.8214588
  17.8511286  13.2676983  49.5016479  17.5670075  13.0910861  48.0254841
  86.0397893  79.2898698  60.5151415  85.1922256  78.9810259  60.1950169
  86.2550575  80.0298722  59.9474382  59.5021639  80.0289885  23.5744572
  58.8193251  79.4287863  23.8739920  60.3186542  79.5462670  23.7031221
  17.8709114   1.5821455  57.2020960  17.2031415   0.9256896  57.0036459
  17.4290597   2.4208765  57.0696926  74.3676696   9.4698656  34.8030758
  73.8909565  10.2140546  34.4354367  73.6904536   8.9281166  35.2081895
  13.8296664  15.5516434  49.2490625  14.6557736  15.8104348  49.6574783
  14.0689754  15.3167224  48.3525276  29.7400689  11.1552858  52.9408884
  29.4839883  11.9444489  53.4182549  30.6242704  11.3424087  52.6256084
  12.8737410  46.4766819  52.0188904  12.6124247  46.1752517  51.1487865
  13.0067500  45.6726534  52.5209665  79.9597866  47.9769189  62.4601555
  79.4074565  48.4244425  61.8191481  79.9847633  48.5704739  63.2106876
  27.8966578  78.0271907  30.9167838  28.7582072  77.6101006  30.9154773
  27.6680477  78.1017406  31.8432879  41.2110090  21.9588614  44.4123650
  42.0954657  21.6136646  44.2907047  41.1811972  22.2224951  45.3320599
  23.6444879  33.4139228  28.4825969  24.2662930  34.1408539  28.5166597
  24.1372919  32.6616454  28.8103986  42.0115852  10.6712794  37.7677941
  41.4046526  10.8206332  38.4927464  42.8341436  10.4251230  38.1909132
   7.9488238  73.7072779  45.4138803   7.5110300  74.1162724  44.6673632
   8.8593968  73.6117656  45.1346588  22.9680403  75.3798313  46.9210196
  22.7162131  76.2100864  46.5166759  23.9220723  75.4241926  46.9849348
  73.3477289  78.9037834  56.6876936  74.0429479  78.3381827  57.0238495
  72.6743251  78.2977490  56.3786936   1.6990622  50.5811746  38.5973907
   2.1755179  49.8956353  39.0656424   1.2974795  50.1295001  37.8551292
  81.4950234  77.5508214  40.3550863  82.2036130  77.5716601  39.7118902
  80.7679326  78.0010269  39.9250984   7.9454464   6.5099460  29.2030334
   7.4386603   7.0406961  28.5884571   7.3182839   5.8708161  29.5412827
  12.2958255  11.7783463  39.5500183  11.7737174  11.7724669  38.7477732
  13.1663752  12.0583081  39.2671800  22.0966983  19.1311002  70.7855320
  22.3667741  20.0356483  70.6271648  21.7104840  18.8478601  69.9567747
  65.4214706  63.2903200  64.5223647  65.4447069  64.2192417  64.7521406
  64.8279776  63.2437711  63.7728094  32.6179028  22.6159596  69.8077106
  33.2557487  23.3045793  69.9952936  32.8009248  22.3597360  68.9037848
  44.7917080  15.4970598  55.4150820  45.1668978  16.1310887  54.8039579
  45.4710484  15.3722060  56.0777569  19.4868255  24.9160528  11.7627656
  19.2432344  25.2799869  12.6139104  18.8584423  24.2091012  11.6158509
  16.8641877   8.1837195  44.1201735  17.4640560   8.8855314  43.8674879
  16.5548849   8.4347939  44.9905348  33.6049517  70.5578942  31.1071205
  34.3028410  71.1754698  31.3257146  33.2902821  70.2423985  31.9542813
  56.3733594  39.4696340   6.2427468  56.6246740  38.8828279   5.5294938
  57.1890966  39.9015191   6.4962811  20.2147444  63.2134230  37.3816872
  19.5101889  63.6639864  37.8473353  20.6437310  63.9013381  36.8727922
   5.2746981   2.6489121  32.2992325   5.9209031   2.4720576  32.9828787
   4.4741207   2.8661984  32.7768230  77.3888332  65.5245371  60.9508848
  76.6113693  66.0226459  61.2032127  77.1184629  64.6087081  61.0171413
  31.1175060  14.2839944  33.5628510  31.3178635  13.4491563  33.1396079
  31.2666798  14.9397421  32.8816938  50.6319332  29.3225336  35.8727670
  51.0139942  29.8789358  36.5514970  51.1916590  29.4586849  35.1083040
  70.7214538  76.6205909  20.7749362  70.9239856  76.0938670  20.0017733
  71.5130035  77.1368553  20.9270949  44.2126179  27.7722430  59.8822927
  44.8656273  27.8484464  59.1865921  43.6731911  28.5577488  59.7915506
  69.3586159  37.4336481  54.5001602  69.5226145  36.9641066  55.3180075
  69.2283249  36.7435479  53.8497639  16.8827780  73.1101699  38.1834030
  16.4522560  73.9296062  38.4271359  17.1642311  72.7306570  39.0158582
  40.6106091  15.2937222  43.0267191  40.1358032  15.7404041  42.3258162
  40.0483799  15.3891671  43.7954998  67.3581545  52.9323973  21.5948290
  66.8260566  52.2687341  21.1559004  67.5406210  53.5811247  20.9150500
  42.4527788  30.7109547  43.9426327  41.6807985  30.8549666  44.4899321
  42.1391726  30.1582098  43.2268381  11.1477172   9.7081965  51.7681837
  10.9580982   9.6443522  50.8321285  11.9620752  10.2091527  51.8139696
  10.3425988  76.0941071  45.8360100  10.2367004  75.4874123  46.5687704
   9.8389538  76.8672849  46.0905075  25.2941036  18.0713511  66.8354940
  24.8759031  18.0647218  67.6964808  26.0473418  18.6527598  66.9395590
  61.4477015  28.3433843  39.6744657  62.2194195  27.8266883  39.4427156
  60.9823132  27.8049135  40.3145409  60.0757456  16.2010002  46.9520521
  59.4972086  16.6146910  46.3114405  59.4956827  15.9473407  47.6699781
  42.1834803  37.0471811  43.3886147  41.5558577  36.3245130  43.3971262
  43.0399799  36.6203284  43.3677244  26.2301064  30.0640249  37.9285336
  25.7512021  29.6259642  37.2249818  26.5920234  30.8497572  37.5188112
  32.6148200   8.8224858  45.1286745  31.9085908   8.8261950  45.7747841
  33.3130097   8.3129400  45.5399275  72.1878473  77.8538420  12.4621005
  71.3800422  77.5002004  12.8344149  72.7544490  77.0904543  12.3505683
  60.7578799  78.3169282  35.4879498  60.5920297  78.6334274  34.5999455
  60.6779272  77.3653627  35.4219055  22.1214084  76.6124584   9.1218562
  22.4851487  76.9486715   9.9409289  22.7557997  76.8719794   8.4537024
  46.7889841  69.5562191  41.4674044  47.0619400  70.0280173  42.2542524
  46.5561922  70.2444048  40.8441544  50.8575201   5.3248125  33.0701804
  50.1505995   5.6208265  33.6436510  50.8386660   4.3703368  33.1398392
  73.0908650  79.4840060  34.3148017  73.2486445  78.9998237  35.1252985
  73.6872000  80.2312447  34.3622422  83.1335002  79.0004293  12.9554868
  83.8476163  78.8012351  12.3500180  82.3377568  78.8464878  12.4462485
  27.9733133  28.2959151  65.5575705  28.1647944  28.3125639  66.4952755
  27.3148155  27.6081324  65.4597569  57.8669731  37.2037210  19.7434229
  57.3262779  37.2685029  20.5306239  57.9394571  36.2634774  19.5793528
  80.7277113  80.8630666  50.4567289  80.8543641  80.3325478  51.2433290
  80.1437766  80.3406052  49.9069214  12.6482638  56.7449791  22.6920128
  12.9246291  56.5608604  21.7942643  12.9223784  57.6490075  22.8463650
  77.8503831   7.9940099   8.1518550  77.0987101   8.3457965   8.6287875
  78.2338484   8.7543268   7.7147002  56.5804958  39.4576788  49.6525335
  56.2122488  39.5203733  50.5338383  55.9541416  38.9190626  49.1689968
  36.3858008  22.2677493  52.2195005  35.9159493  21.5866947  51.7382145
  37.0536089  22.5764084  51.6071320  66.6845481  29.6023871   5.1251692
  66.6052047  28.9809610   4.4014544  67.1847884  29.1313376   5.7915825
  10.8237410   0.6954356  68.2167339  10.6746256   0.3042667  69.0775394
  11.4659655   0.1205754  67.8004217  52.5863028   6.9048125   9.9951613
  53.4693336   7.1575058   9.7256511  52.2017431   7.7102494  10.3410161
  13.1623721  12.0484614  27.3474121  14.1036856  11.9563007  27.4946022
  13.0647588  12.9175091  26.9582319  45.9098148  24.7774029  53.2080793
  45.0322104  25.1534104  53.2763338  45.8759499  24.2311883  52.4227571
  34.0415764   8.5969383  59.9759197  33.3025217   8.7021887  60.5750418
  34.3597579   9.4877166  59.8292685  39.7067785   0.7420295  32.8131104
  39.1361237   0.9012625  32.0612931  40.0831795  -0.1226610  32.6492095
   3.3442074  29.1645408  22.2690320   2.5426170  29.0762067  21.7533946
   3.5384616  30.1016521  22.2511292  74.3236780  29.6394420  37.0627570
  74.4068098  29.5895696  36.1104798  74.1524458  28.7381220  37.3357606
  27.4406314  24.4278669  65.8087397  27.5847197  24.6115994  64.8804522
  28.2765675  24.0771556  66.1160469  83.8726846  31.6605319   5.5888886
  83.8117782  32.6018168   5.7516903  83.0313675  31.3116135   5.8832879
   8.8248309  59.4388730  37.3464751   9.7165616  59.7022683  37.1191669
   8.3011516  59.6827371  36.5832424  36.8721557  30.0990057  64.7321796
  36.1922550  29.7493243  64.1562557  37.2615528  30.8177423  64.2341661
  37.3125839  36.7878199  43.3580446  36.8788719  37.6374030  43.2784557
  37.1291733  36.3466382  42.5286150  70.1591722  58.4269382  14.7976870
  69.7175876  57.7240814  14.3210024  69.9811784  59.2140664  14.2829222
  60.8553187  26.6394259  11.2971396  60.7041494  25.6975068  11.2186045
  61.5021817  26.7205645  11.9980139   3.7692984  76.7605699  30.8026361
   4.0288933  76.6461731  29.8884392   4.4609245  76.3285441  31.3038707
  34.9363089   9.3249196  56.7074490  34.5385551   9.3066102  57.5779057
  35.8780670   9.3595999  56.8751383  44.1828871   8.7076062  61.8475628
  44.6276331   8.5809636  61.0094738  43.3529711   9.1254222  61.6175699
  11.6300448  59.3264014  62.0491171  11.6610058  58.6369092  61.3858843
  11.0077413  59.9652846  61.7015505  42.7246952   9.2453820  51.7730379
  42.3925161  10.0536692  52.1636295  42.8926992   8.6701149  52.5194120
  14.6287332   0.8328838  18.1939501  14.7727952   1.4692659  18.8942999
  15.4196153   0.8842964  17.6572032  25.8842039   5.3993267  22.7437449
  25.6037855   6.0420656  23.3952689  25.2803683   4.6651840  22.8562093
  30.3086193  56.0113437  42.5658798  30.4214867  55.0727541  42.4157381
  29.9239405  56.3393647  41.7530727  43.1810904  16.0008657  44.1612577
  42.9325008  15.8069515  45.0650454  42.3529005  16.1909711  43.7205839
  19.3312033  78.3769304  10.7502210  19.5423516  78.9414943  10.0066388
  19.5614680  77.4959714  10.4550612  19.1900814  28.5271716  54.8943377
  18.6769688  28.5354352  54.0863323  18.6915064  29.0753317  55.5002928
   5.4767787   2.9776296  64.2596245   5.9730989   2.9451141  65.0774479
   5.5299634   3.8925612  63.9833927  71.3732862  35.0589061  66.9171143
  72.2182798  35.5032182  66.9864273  71.3240671  34.5139956  67.7025366
  27.0030546  15.7190764  51.7228746  26.6689038  15.0208437  52.2859430
  27.7260613  15.3146958  51.2433243  77.6574854   9.6122104  21.5822673
  78.5294597   9.7974944  21.2336087  77.0682738  10.1474226  21.0506558
  14.2808207  25.0431894  67.0184457  14.4633492  25.8915733  67.4223765
  14.4418486  24.4066785  67.7149787  13.1683691  36.4178235  54.4296932
  13.0120858  37.3611934  54.4728613  12.3638304  36.0259683  54.7694016
  33.0119491   7.6238656  10.5257058  32.4434829   7.2152042  11.1784506
  33.8995361   7.4553746  10.8419788  49.4992352  27.8017020  38.0520439
  49.8240900  28.0589390  37.1891832  48.5743666  27.6003551  37.9095149
  83.6894170  48.1868102  12.4396891  83.4450904  47.3893883  11.9699473
  84.2256157  48.6771091  11.8165202  47.2215319  20.8281064  57.8344488
  46.7091131  20.5195212  57.0871639  47.6510715  20.0418472  58.1713820
  54.1068888  20.2081537  47.8640175  53.5615873  20.7881284  48.3955288
  54.7140169  19.8112810  48.4886169  63.6180639  21.7052746  56.0227060
  63.6443329  22.6372957  55.8061934  63.8401604  21.6691685  56.9530821
  45.1334572  27.6285172  33.8789344  45.8231497  27.2190928  34.4013619
  44.3674040  27.0707822  34.0143180  25.1307925  78.2176594  46.3581800
  25.7059916  78.9719282  46.2299061  25.5598553  77.7027185  47.0415306
  29.5968779  68.4850604  61.2620068  30.2122792  69.1642136  61.5381670
  29.8475512  68.2872779  60.3596354  37.1642232  25.3780007  43.3933067
  36.9749188  26.1353302  42.8393650  36.5193176  25.4300475  44.0987301
  42.2010231  15.7172275  48.8571596  42.8332043  15.4322481  48.1973362
  42.6530313  16.4103353  49.3383312  31.5776213  59.2595560  27.8668571
  31.8646487  59.8941524  27.2102475  31.3699158  58.4719808  27.3640490
   6.0370263  77.6005430  59.4513369   6.1560591  78.4757508  59.0824556
   5.9741743  77.0256571  58.6885881  23.4583624  66.0084898  26.6079831
  23.5795267  65.5579180  27.4437690  23.4277686  65.3054566  25.9591079
  79.9456056   6.1416215   9.1616673  79.2531284   6.4585037   8.5817618
  79.8075708   6.6163988   9.9812789  36.6266068  72.4293400  55.1029062
  36.4001616  72.5655485  54.1829062  36.0499390  71.7210073  55.3891706
  45.2827978  33.2203269  62.6118088  45.9457350  32.7180338  62.1380424
  45.6266880  34.1134357  62.6300287  53.3579016  30.1642203  51.7654037
  53.9571285  29.4520974  51.5417099  52.8313208  29.8169088  52.4853468
  35.1153994   4.4245309  33.8985658  35.8919978   4.6614382  33.3916116
  34.4994283   4.0857953  33.2488966  19.3021047   2.2915561  52.5762320
  18.5089374   1.9859800  52.1360683  19.6447051   1.5150389  53.0188131
  21.3848996  18.9192533  27.5301456  21.2916970  18.1970048  28.1513548
  21.0518336  18.5690260  26.7039251  21.9156313   7.4382979  42.5538349
  22.1462035   7.3954225  43.4818602  22.7485442   7.5888151  42.1068096
  33.9861226  11.0219479  49.5298052  34.7670937  10.4911482  49.3730688
  33.3860803  10.4351151  49.9900293  50.7430506   8.1395525  69.4430876
  51.6993475   8.1762463  69.4626856  50.5419445   7.4951488  68.7644625
  36.9490361   3.0356553  31.1635542  36.6215539   3.8149571  30.7144713
  37.4907279   2.5927138  30.5104017  28.3381963  28.6534214  68.2914972
  28.3024406  29.5528865  68.6169481  28.7481380  28.1582260  69.0006971
  36.4956260  39.2643070  42.0484591  37.4160767  39.4081330  41.8286514
  36.0927629  38.9896584  41.2247467  22.2429276   1.6361381  56.1049557
  23.0365896   1.9375253  56.5471077  21.7535639   2.4374196  55.9186697
  86.5099675  62.8366167  32.5650907  86.3881022  61.8949611  32.6861978
  85.8341843  63.2378156  33.1115222  22.7114876  52.3553235  33.9509177
  22.1104010  51.6733200  34.2505836  23.5818156  51.9716794  34.0584850
  16.5447434  77.3566468  62.2004128  16.8593081  76.6061164  61.6964483
  15.6628378  77.1071113  62.4764776  21.0673046  23.1601143  33.8332701
  21.5006113  22.7162004  33.1042862  20.2143955  23.4181190  33.4836817
  43.1167507  32.1007180  63.9601564  43.7509871  32.5174403  63.3767939
  42.8003550  31.3431478  63.4680080  52.8165736  61.9638615  69.3636031
  52.6118102  61.3878661  68.6270338  53.7647095  61.8877798  69.4707756
  23.0419310  73.8541276  37.2883296  22.4805506  74.5939321  37.5202155
  23.0975159  73.8857687  36.3332701  35.7948518  22.5545335  42.7461004
  36.6740513  22.2511435  42.9723549  35.9070706  23.4828711  42.5415754
  22.2024435  44.2769079  10.2869505  22.8457111  43.8576378   9.7154231
  21.5725893  44.6757506   9.6865935  22.1919155  27.8511143  34.8866582
  23.0625200  27.6182628  35.2092433  22.1252728  28.7941551  35.0365353
  23.1342610  79.4433078  56.3045168  22.9676445  78.5945521  56.7145014
  22.2633513  79.7996641  56.1291313  11.6118105  74.6394737  38.3403444
  10.9889086  74.3227560  37.6861930  12.2003373  73.8993109  38.4887648
  49.1141462  23.5821724  49.1062689  48.8469267  23.0439758  48.3611727
  49.6259212  24.2917347  48.7178898  41.6485071  18.0629790  61.2424088
  41.2354994  18.2665336  62.0815897  41.1625290  17.3067701  60.9134626
  51.3290167   9.9776411  29.5774436  50.4868555   9.7556329  29.1803145
  51.1207008  10.6610799  30.2144289  30.9395742  31.1886239   6.7585731
  30.2731895  31.8671560   6.8669945  30.5241656  30.3905630   7.0853263
  19.2235434   6.2681067  60.1248026  19.2427659   5.5583453  59.4828510
  19.3456006   5.8317930  60.9679890  69.5537607  60.3976216  12.9822058
  69.1678898  60.1330842  12.1471304  70.2964536  60.9501292  12.7385325
  23.8051772  23.3095813  39.7511744  23.1700516  23.8885188  39.3296552
  23.7817883  23.5602975  40.6746578  65.7519579  26.4526939  20.8329391
  66.3796139  27.1010256  21.1522341  65.9745026  25.6507540  21.3057995
   6.2673386  77.9535566  38.4629035   5.8764561  77.2390498  37.9599905
   5.5244621  78.4993533  38.7207270  33.5863900   1.9412164  58.9413023
  34.1497946   1.9317502  58.1675339  34.1929960   1.8891694  59.6799183
  38.6022806  24.2096519  33.8210011  38.4720087  24.5069242  34.7214937
  37.7386332  23.9056730  33.5418153  77.0385270  17.9020023  47.5599384
  76.3770912  17.4876428  48.1140518  76.8688123  18.8401735  47.6451588
  22.3230322  77.8209449  69.4065332  23.0190237  78.3082665  68.9656878
  21.7264946  78.4957046  69.7306824  15.0817450  69.5904166  11.4857697
  14.7624882  70.4701800  11.6865790  14.4877728  69.0065927  11.9575560
  78.9825622  14.5552647  59.4634628  78.3752601  14.7391093  58.7467909
  78.6818407  13.7212133  59.8242331  44.4071913   2.2746092  40.3222179
  44.5605326   1.6444477  39.6182156  43.6142397   2.7409697  40.0577116
   5.1334842  67.8668792  51.9253302   4.2100795  67.9117806  51.6772509
   5.1260193  67.5063295  52.8119993  31.8459558   3.2335556  36.4018822
  31.5514231   2.4343848  36.8386960  32.7820301   3.0960578  36.2566495
  25.9029794  19.8157525  45.2188110  25.1150322  19.7244263  45.7545662
  25.6360555  20.3822494  44.4948912  16.4943957   7.1201414  30.1265645
  15.7794189   7.6563931  29.7838187  16.4027226   6.2814313  29.6744657
  55.2168814  59.9045719  12.4389071  54.9610726  60.7991983  12.2143168
  55.3972093  59.9357309  13.3784480   3.1715377  76.5183271  14.8182178
   2.8370007  77.4151627  14.8193324   3.5414298  76.4017595  13.9431036
  46.9136858  11.0427082  16.6375303  46.8603373  11.9721699  16.4150703
  46.9202709  11.0254824  17.5945520  20.9209212  81.1245667  53.6522913
  20.8298787  82.0130361  53.9966249  20.1547726  81.0055671  53.0909586
   5.3168496  60.9215624  35.2284193   5.4859742  61.8511648  35.3816080
   5.0729736  60.8716185  34.3041563  13.0563295  28.1882715  53.0167437
  12.6632953  28.7332988  53.6984301  12.7450705  27.3035908  53.2082939
  73.2343906  72.3957027  31.7336679  74.1028089  72.2201777  32.0959830
  73.1693143  71.8149729  30.9755468  85.3915507  62.6779444  38.0575943
  86.1011941  63.1055302  38.5369778  85.3682167  61.7875321  38.4081006
  45.3813744  11.0205662  38.3711195  46.2342548  11.2071276  38.7635732
  45.5465841  11.0197866  37.4282861  63.1140292  77.1346576  49.3879032
  63.6428404  77.9232053  49.5094872  63.1362808  76.9744653  48.4444618
  39.6311569  15.4717720  48.9406824  39.4841313  14.7385776  48.3431530
  40.5809164  15.5908215  48.9445877  69.1580288   4.8696400  30.7486910
  68.8455860   5.7647850  30.6170554  68.3609120   4.3519737  30.8620829
  49.4475690  37.8217210   8.5878510  50.2497856  38.3241631   8.7300820
  48.7760190  38.2999762   9.0741868  42.3997211  30.0890899  55.7878160
  42.5011253  29.4708943  56.5115452  42.6349497  29.5859027  55.0082684
  39.8930907  30.0604081  52.8795433  39.5807123  29.4043350  52.2564697
  39.9979186  29.5799971  53.7007952  25.7215508  62.1019108  47.6917267
  25.0249871  62.7475602  47.5726986  26.1371191  62.3475392  48.5182858
  81.1993406   3.4546205  48.6192799  81.4839290   3.2239270  49.5035982
  81.5860919   4.3156329  48.4601784  20.5388570  11.0499251  57.2834492
  20.5898905  10.1713407  57.6598978  21.2637591  11.0855734  56.6593695
  71.3631064  69.8867447  59.1267395  72.1941608  70.0295312  59.5797205
  70.7005471  69.9572081  59.8139668   5.4813755  27.3981929  17.5203335
   5.4086697  28.2312274  17.9861665   4.7338670  26.8856239  17.8281248
  35.0805855  23.4584880  54.3758345  35.6010556  24.2614484  54.3513441
  35.4639983  22.9037237  53.6965275  37.3965287  25.3166103  48.6130381
  36.6338873  25.8949327  48.6007071  37.0669723  24.4786692  48.2882595
  71.9542209  63.1447341  25.0856585  72.5164501  63.8742043  25.3464312
  71.9212667  63.1973125  24.1304774  63.3682728   0.4359975  65.1281786
  62.4250841   0.3289593  65.2513361  63.4510279   0.8740924  64.2811537
  34.8673964  17.1161795  19.8541629  35.4250717  17.8115046  19.5052314
  35.2439880  16.9142461  20.7106876  50.8457756  22.6241326  65.0156212
  51.1160755  23.4976149  64.7324324  50.0908136  22.7793145  65.5832338
  49.7561646  13.5157347  48.7335014  50.2312469  14.2442942  49.1331625
  50.3939772  12.8027153  48.7014723  40.3270626  11.7639983  55.8570194
  40.0056744  12.6364613  55.6295347  40.0679207  11.2131596  55.1183367
   9.6629580  59.7901256  65.4401875  10.2626212  59.6344120  64.7105360
   9.3068655  60.6632120  65.2754116  44.9721241  11.7637837  56.4369106
  44.8862934  11.8149686  57.3888826  44.3590117  12.4199152  56.1055279
   2.6322788  26.9746711  18.1439967   2.1935695  27.2310771  17.3328108
   2.0088428  26.3939287  18.5802264  52.0889282  19.0690398  43.0207539
  52.6590014  18.4415245  42.5763750  52.1478081  19.8635805  42.4902153
   9.0632313   0.9205168  57.6798534   8.5374612   0.2028473  58.0330515
   8.8694429   1.6633278  58.2516146  33.6659582  79.3329226  39.3075109
  33.6322316  79.9282929  40.0562620  34.5777567  79.3637786  39.0178561
  68.6185876  72.5276114   1.4802880  67.9888264  72.8447367   0.8329386
  69.2053167  71.9568731   0.9840626  59.7282076   2.5811207  37.1545362
  59.4736338   3.4298643  37.5165558  60.2526617   2.1741650  37.8441501
  51.8887758  31.4629960  31.8551254  52.1173859  31.1639881  32.7352190
  52.7173567  31.4529181  31.3759756  75.9004464  51.4839535  63.1138312
  76.3956609  52.2825151  63.2962971  75.0935521  51.7915945  62.7009004
  50.4634571   9.1096085  46.9309235  50.7107782   9.7747666  47.5732851
  49.5596361   8.8862526  47.1532965   3.6761530  57.1074564  52.2681093
   3.6385067  56.4407975  52.9539490   2.7933486  57.1208174  51.8983650
   3.7556489  32.2215039  46.9706392   3.5022553  33.0709941  47.3317289
   3.6398157  32.3188312  46.0254717  43.5515070  37.8237629  58.4475279
  42.7229834  37.5054312  58.8059235  43.8629818  38.4590721  59.0921974
  66.3277245  10.1508331  49.4754410  65.8971310  10.4707575  48.6826849
  65.9256983   9.2976296  49.6386862  74.2172951  76.5070088  50.3236341
  74.4509143  76.8437667  49.4586182  74.7452551  75.7147653  50.4228306
   5.0595605  33.2240844  32.6876521   5.0761932  32.5121379  33.3272505
   4.9596506  32.7849603  31.8430114  28.6974096  14.6959102  49.8767424
  29.6304536  14.8188281  49.7019482  28.4466219  13.9532459  49.3273878
  68.4617464  65.2155210   4.1330428  68.2991783  65.4105403   5.0559563
  67.7683894  64.6010711   3.8923449  33.1355333   6.4940804  34.2795491
  33.6104298   5.6706178  34.1672421  32.6523423   6.3821763  35.0982285
  56.5471665  52.6854493  17.6248736  57.3086421  52.3714508  18.1125159
  56.6549317  52.3159029  16.7484850  33.6043270  62.5296325  39.2769909
  32.8699597  62.7043361  38.6884212  33.8215645  61.6102845  39.1225767
   5.1710200  24.1402841  44.5316887   4.6939948  24.2185497  43.7055206
   4.6004719  23.6104226  45.0884247  46.6041517  30.0936079  48.7976551
  47.3018980  30.6899643  49.0692043  45.8369446  30.6557965  48.6900854
  48.5572910  38.3937669  59.8697233  48.5451698  37.7678585  59.1456223
  48.9565086  39.1809177  59.4992495  46.3774971  54.6678378   3.1166167
  47.2450427  54.6924724   2.7128977  45.8438424  55.2475216   2.5730986
  58.2860136  42.5526619  57.8677607  58.3036184  43.5044861  57.9675341
  58.9863539  42.2388744  58.4398556  46.2975645  14.9239898  28.8969374
  46.8615246  15.0463700  28.1332588  46.8070316  14.3652070  29.4838262
  47.3434544  10.6841588  51.6149521  46.5387821  11.1429334  51.8563175
  48.0412292  11.1877549  52.0341587  20.9323668  15.0287354  21.0355186
  21.8636799  14.9392831  20.8333206  20.6950808  14.1965246  21.4446068
  16.3767250  54.0583546  58.7878847  16.1022814  54.6052034  58.0517721
  16.2721737  53.1609685  58.4716558   3.3466102  17.1255529  31.0856199
   3.5275032  17.0766830  30.1469398   3.6821319  17.9821765  31.3499188
  27.1878958  13.3457386  41.8151999  26.3130713  13.1000221  42.1160984
  27.1657801  13.1994271  40.8695030  25.2538323  32.7912402  41.6984177
  25.2599740  33.0353236  42.6239538  26.1776066  32.7782178  41.4480162
  69.0282011  26.7218637  54.3366098  69.2684889  25.9591770  53.8104916
  68.5792303  27.3039269  53.7235355  75.6966085  71.2167580  46.3101196
  75.6860811  71.5737755  45.4220533  74.7931129  71.3038451  46.6139984
  24.1727710  19.7957909  57.7318478  23.5428977  19.2362368  57.2775412
  24.9369740  19.2354882  57.8670597  17.7296185  22.8378201  55.6210184
  18.6423576  22.7779198  55.9030628  17.3200822  23.4234428  56.2578487
  31.1617136  19.7456026  54.9030685  30.6217933  18.9559686  54.9376440
  30.5375290  20.4664135  54.9870968  51.2801075  18.2850099  49.1017771
  51.6151619  17.3937082  49.0040493  51.7155552  18.7818658  48.4091330
  36.1560297  17.7756703  33.4760046  35.5205369  17.0734107  33.6146045
  36.9801736  17.3216546  33.3002543   8.0348643  63.4411318  39.3722510
   7.1586712  63.6339981  39.0386009   8.2649144  64.2071814  39.8980618
  84.8919120  12.0228267  67.7353144  84.9169045  12.6163149  66.9847298
  84.8151372  11.1506176  67.3485470  33.5285974  27.4162340  54.2296553
  32.6900077  27.8753328  54.1824389  34.1207981  28.0415440  54.6474075
   1.3607272  77.0342509  60.2749634   1.3770111  77.9657940  60.0554323
   0.5224546  76.7224274  59.9339437  65.1776123  13.8919640  57.9598856
  65.6608009  13.2254601  57.4714804  64.5330095  14.2258155  57.3359776
  80.9158031  35.3130175   0.7005543  80.5601446  35.7812847  -0.0547367
  80.9030620  35.9565215   1.4090533  46.1197996   4.3107757  49.2779493
  46.8852043   3.9882377  48.8021755  45.9801149   5.1939738  48.9363623
  37.0503759  35.5073714  41.1665583  36.1942506  35.1306415  40.9631968
  37.6788783  34.8867893  40.7976532  76.1525051  56.2911572  19.0551657
  76.2261383  56.7164232  18.2007880  76.2289611  55.3562154  18.8647265
  46.7643437   0.5283708  12.5157637  45.8916125   0.4396505  12.8987784
  47.3467956   0.1047105  13.1462283  41.3170910  32.8221083  47.8430176
  41.1393118  32.6970410  46.9108248  41.9984293  33.4939265  47.8688812
  60.6418649  58.7681617   1.4906640  61.0777871  59.4535615   0.9842772
  60.3231541  59.2155387   2.2745699  57.8039090  75.9837558  17.9376406
  57.2370474  75.2271773  18.0876154  57.5726263  76.5981509  18.6342425
  35.3903961  34.9301267  38.4174752  35.0647855  35.8033752  38.1991982
  34.8017764  34.6201396  39.1057086  33.8036799  20.1879358  53.3771276
  33.0074739  20.0816703  53.8977003  34.4809675  20.4064918  54.0172434
  16.1022719  59.6566851  33.5409641  15.2449473  59.2316539  33.5650134
  16.5613945  59.2290838  32.8180575  43.3966923  23.5434866  59.8054552
  43.9826393  22.9965115  59.2822742  43.0334473  22.9472065  60.4602337
  46.2429905  23.8164544  50.6203365  46.0010004  22.9046178  50.4583931
  46.9321299  23.9984632  49.9814367  53.8376729  58.0791785  10.6892104
  54.3081276  58.8273598  11.0568137  53.0867831  57.9592599  11.2705988
  35.7951832  16.5858543  45.3477430  36.3665080  15.8178747  45.3426504
  34.9716949  16.2742484  44.9722481  63.0401087  40.2149963  50.0309706
  63.7153673  39.5778346  50.2639580  62.5419855  39.7913098  49.3319798
  14.9044452   4.9390764   2.0712466  14.5102344   5.8088750   2.0058198
  14.1680751   4.3347234   1.9777245   9.6045679  39.5658793  12.9640669
   8.8972133  39.3771784  13.5807318   9.9315065  40.4252261  13.2302756
  70.0482368   5.2277911  25.1600814  69.9582243   5.5041677  26.0720801
  69.1596842   4.9936771  24.8919463  36.8138909  26.2368274  70.1905966
  36.5155196  26.7861938  70.9154463  37.4689746  26.7698073  69.7400093
  16.8299731  75.3999306  45.8716202  16.5992602  75.9943850  46.5855026
  17.4935587  74.8211087  46.2469244  17.7794957  32.1620226  20.4594159
  18.4680462  31.5522337  20.1942968  17.0376337  31.6014814  20.6867194
  18.9861401  71.8918748  35.0033617  19.7260817  71.7288829  34.4184232
  18.5988720  71.0282249  35.1460671  43.6837292  26.3327932  53.7461329
  42.9068995  25.7920194  53.8887072  44.0447521  26.4690781  54.6221018
   5.1677173  64.5359303   7.5464291   4.4140810  64.0725972   7.1809334
   4.8356718  64.9373891   8.3494277  46.7468119  34.7968388  59.3249416
  47.5621700  35.1931906  59.6320772  46.1407328  34.8962951  60.0591087
  42.8709412  11.3998806  44.9037218  42.4453354  11.0216784  44.1342688
  43.7081766  11.7290771  44.5767689  85.9277731  79.9943496  27.6570821
  85.5440432  79.1640229  27.9391098  85.4179055  80.2443638  26.8865252
  29.8401976  35.8905411  61.6743469  29.0922022  36.2177348  61.1746645
  30.5460882  35.8218694  61.0315180  41.9165667  78.0481214  55.7050991
  41.7688759  78.5154630  56.5272951  42.8522070  78.1549327  55.5336189
  30.3615260  32.2346711  68.9022732  30.1068473  31.5320754  69.5003796
  29.6556139  32.8772354  68.9732027  52.1411943  21.8791986  54.5750904
  52.7040243  21.9825006  55.3424168  52.3883867  22.6015615  53.9977503
  77.2783176  53.4780194  28.1330676  77.4751846  52.5418701  28.0999369
  77.0630685  53.6451818  29.0506453  63.1984234  54.4252348  32.2511864
  63.3971214  53.6158323  31.7804193  63.9640141  54.9810505  32.1056843
  31.3490367   7.6474911  64.1149092  32.2752118   7.8887516  64.1299105
  31.2713265   7.0413542  63.3781672  76.8977499  32.2208643  66.9200134
  76.8116474  31.3635755  67.3369932  76.1749649  32.2561264  66.2934542
  41.4127684  13.3032739  59.8741770  41.2500906  12.4861813  59.4028711
  41.8653440  13.8594830  59.2401123  64.1989088  33.2024527  48.6206865
  64.9221468  33.2697582  49.2440844  63.8968515  34.1034842  48.5060787
  63.8925076  21.0239959  49.7179890  64.7818375  20.7619357  49.9559975
  63.3609009  20.7841229  50.4769945  59.1390959  65.2098038  11.1931223
  59.3425647  64.5701815  11.8755621  58.1856457  65.1803138  11.1138148
  46.1620474  26.7436123  65.1949072  46.7122364  25.9795046  65.0226736
  46.3898897  27.0067191  66.0865831  56.3363075  33.9548635  61.6556454
  56.8192387  34.4605184  61.0019398  56.9875765  33.3598948  62.0272589
  45.1298761  13.6496425  61.0096741  44.4681358  13.1434679  61.4809704
  45.8553791  13.0378520  60.8848238  50.3356695  18.1519949  65.6086349
  50.9839010  17.5156856  65.3067446  49.6691465  17.6244724  66.0487509
  71.9599412   7.1385610  38.3319831  72.8444360   7.3408145  38.6369324
  71.3895868   7.4218130  39.0466118  46.2494326  27.7040529  57.9944992
  46.5888071  26.9017673  57.5977755  45.8991575  28.2056665  57.2583485
  57.0927286  42.4223995  53.2045555  57.4713850  42.4407244  54.0834808
  57.6477003  43.0105257  52.6923561  39.2869258  20.1132679  52.8547907
  39.6688557  20.5865812  52.1156454  38.5683727  19.6102333  52.4715519
  46.9812965  31.5701723  68.3378744  46.5348530  32.3256874  67.9556274
  47.9077768  31.7182922  68.1483316  54.4155440   5.5797643  12.3463530
  54.3621764   6.3509817  12.9108042  53.6600814   5.6567258  11.7636103
  53.9001036  63.5813236  45.7647562  53.4553766  64.2337179  46.3058949
  54.5925283  64.0705204  45.3203773  86.2436589  35.5671329   3.8179106
  85.5539926  36.1143465   3.4422106  86.0688504  34.6913452   3.4734339
  76.2254238  56.7725134  43.8453579  75.9195757  57.3899698  44.5097637
  77.0253897  56.3992500  44.2154408  76.5826559  47.3280287  52.6161861
  76.8025684  47.7237415  53.4595585  75.6374693  47.1829891  52.6588631
  54.4416666  61.9181347  34.3150067  53.8667488  61.8709946  33.5511470
  54.1020298  61.2513590  34.9119115  74.2750645  63.0454206  53.6785793
  74.5881510  63.8979483  53.3762455  74.3030357  63.1048775  54.6335220
  81.3578129  21.0156751  45.9222460  81.7502785  21.0273886  45.0492764
  80.6535053  21.6623020  45.8769083  47.6777887  51.8896866  66.9814062
  47.0884752  51.1890507  66.7020273  47.9196548  52.3368645  66.1703825
  70.4252291  53.4556341  22.9096651  71.0391092  54.1797447  22.7870011
  70.0529909  53.3073378  22.0403695  62.5039721  51.8570614  39.8806310
  63.3176184  52.1550083  39.4738841  62.1537447  51.2092447  39.2691517
  52.3277235  54.3612385  48.8515377  51.9514513  53.5961294  48.4165049
  52.6353168  54.9168301  48.1353426  52.9702616  59.7660780  40.5558395
  53.3363008  60.2330494  39.8047161  52.0344114  59.9652767  40.5288458
  60.9548235  59.9419641  29.2727494  61.8981314  60.0186300  29.1295052
  60.5616283  60.3881931  28.5227418  20.8183527  78.1514883  46.1697483
  21.6035342  78.3014631  45.6432247  20.1605511  77.8563166  45.5401421
  68.6757088  57.2662640  33.8260627  69.2718697  57.9401159  33.4993315
  68.3789730  56.8074894  33.0401230  25.4998597  73.9741833  22.9931021
  24.7717865  74.1931886  23.5746312  26.2479170  73.8585300  23.5789871
  35.3582845  20.3692693   3.1316990  35.6810985  21.1717624   2.7217860
  36.1286960  19.8043985   3.1918473  69.8989344  41.6924095  51.2158251
  69.3063116  41.9757366  51.9120693  69.6128368  42.1811485  50.4441309
  36.3261867  62.8653765  54.9995422  37.2281146  63.0307579  55.2741432
  36.3851070  62.7275038  54.0541601  24.9128383  68.3427622  26.0894866
  24.4183868  67.5512840  26.3023467  24.3579620  69.0609099  26.3938136
   2.1707107  76.6225338  23.8352776   2.2842075  77.2960138  23.1646276
   3.0571033  76.3057470  24.0090108  78.5273790  22.5461984  29.2391229
  77.8229284  21.9292974  29.4376540  78.7283659  22.9586697  30.0791836
   1.7673542  48.8895130  66.8808317   2.0313026  47.9752827  66.9844723
   0.8462765  48.9038467  67.1409178  32.5319290   8.6542618  32.5305438
  31.6273737   8.3426142  32.5008035  32.9095578   8.2208025  33.2958794
  71.4522219  12.4083877  51.7259932  71.7467260  11.9276226  50.9524536
  72.2238159  12.4488032  52.2910118  26.1509555  75.1455309   2.8215451
  25.9365505  74.4040705   3.3876700  27.0980018  75.0851847   2.6962132
  54.4514322  35.5038881  67.1103001  53.7352657  34.8802757  66.9901133
  54.9709702  35.4291487  66.3098478  69.1035795  53.1287575  36.6647387
  69.4725609  52.5197887  37.3044562  69.0020800  53.9496994  37.1463847
  57.7549982  44.8596382  51.7531967  57.3908234  45.7057714  51.4930677
  58.6114264  45.0714540  52.1245432  29.1198685  33.7132263  37.2221470
  29.2189171  32.7977681  36.9606948  29.9419357  33.9264989  37.6636815
  49.2888689  56.6523933  47.9713535  49.9493790  56.9821644  48.5806227
  48.9963770  57.4278402  47.4924374  63.3620214  57.5560093  30.7589531
  64.0883732  57.2879887  31.3218164  62.5769186  57.2976923  31.2417746
  63.3261871  47.8594780  40.9273052  64.0256119  48.4324694  41.2415075
  62.5854397  48.0475330  41.5036345  48.1493568  45.3797960  58.6647892
  47.3280287  45.6475115  58.2525063  48.4845781  46.1786652  59.0718031
  72.0595686  55.4351081  22.3125929  72.5658886  56.0642447  21.7987341
  72.2421352  55.6674196  23.2230563  30.4090738  62.1075916  60.4245615
  30.5228305  61.2895012  59.9408007  29.5266938  62.0485449  60.7908297
  77.7076101  50.7801723  26.4541435  77.7709579  51.3627052  25.6972623
  76.7688942  50.6252623  26.5592551  83.4694290  54.7555971  34.9755883
  83.9829731  55.5467987  35.1384139  83.7677288  54.4484043  34.1195035
  73.0825329  38.6619687  17.9516816  72.8411579  37.8500319  17.5058937
  72.3185396  39.2290258  17.8468168  66.7883110  20.0355172  55.2306366
  67.4146938  19.4047105  55.5855513  66.9201136  20.8251047  55.7554293
  29.9194622  55.1211739  12.9486406  29.3171835  55.3182459  12.2312462
  29.6313858  54.2690659  13.2759905  42.5329018  49.4109297  35.1013136
  41.8797207  48.7624454  35.3640985  43.3712482  49.0194082  35.3464937
  58.8479328  80.4028320  28.1315494  58.4183598  81.0665894  27.5919890
  58.2294083  79.6725607  28.1505227  57.6900816  60.8912182  31.8393230
  57.7757263  61.6790485  32.3761845  58.5916615  60.6218719  31.6637158
  14.6401169  51.5153551  15.7844019  14.3737175  52.0097399  15.0092614
  14.2641498  50.6447744  15.6541252  77.7711058  15.6772077  69.5332241
  77.6246262  16.4365971  68.9692211  78.6741590  15.4158139  69.3532228
  51.4248371  50.3042173  55.8950186  50.9313440  50.9167385  55.3495741
  52.2202969  50.7812977  56.1313963  79.5497036  45.0188732  33.2101154
  79.0434837  45.0366831  32.3979235  78.9718008  44.5929480  33.8432431
  37.5281224   8.7379951   3.0220313  38.3777318   8.9871711   3.3857770
  37.3404822   9.4117326   2.3685021  76.7638254  63.0758095  35.4062176
  76.3792181  63.3755350  34.5825267  77.1348906  62.2180891  35.1991796
  46.2401485  65.0174809  31.8880534  47.1754456  64.8579359  31.7615700
  45.9371185  65.3483343  31.0425115  10.1818240  76.2789679  54.8442125
   9.9553478  77.1680403  55.1171494   9.9216592  75.7281637  55.5825615
  28.8693851   6.0054152  45.0615358  28.3505577   6.7717688  45.3060007
  28.5011619   5.7241481  44.2239618  64.5363712  36.7151284  44.2980385
  63.6379004  36.4030099  44.4055462  64.5200729  37.2155976  43.4822607
  50.7715702   6.2843281  40.7429409  51.2509203   5.4739600  40.5704355
  50.3036833   6.4640647  39.9274588  69.5520544  39.3054271  64.5604801
  70.4056120  38.9857244  64.2681503  68.9597750  38.5659385  64.4241190
  11.2933629  15.3647177  48.2691669  12.0500463  15.2755969  48.8485813
  11.5211338  14.8476451  47.4965143   4.1678383  60.3645945  54.1902590
   4.3489315  60.2380180  53.2589102   5.0064899  60.6373692  54.5624161
  32.9950001   7.1064067  52.3981762  33.7376453   6.7014986  51.9501114
  33.3877518   7.5854152  53.1279278  51.6616535  29.2220378  54.1335583
  50.8502340  29.7246981  54.0616846  51.5249872  28.4640646  53.5651970
  76.5956211  44.9302387  40.0173855  77.4808121  44.5705462  39.9600196
  76.7242575  45.8779526  40.0564432  60.2332830  29.1108322  37.4926662
  60.1929951  29.9923158  37.1217251  60.9006023  29.1689849  38.1764317
  53.8241482  28.3903265  46.6867495  54.4859934  28.6026502  47.3448658
  54.3072319  27.9282928  46.0016346  67.0191765  44.8496437  36.5842295
  67.8279734  44.9136019  36.0763049  67.1319580  44.0617657  37.1159816
  31.3664104   0.1179328  40.3263187  31.1302330   0.3886106  39.4390845
  31.6408398   0.9267624  40.7584238  79.9899244  65.6553888  61.4117908
  79.1113234  65.3485060  61.1879396  79.8665524  66.5697432  61.6666889
  34.6331326  72.2343021  67.3825469  34.6494786  72.5776844  68.2758846
  35.4066293  71.6731387  67.3274656  67.9786587  41.2426090  63.4241629
  68.5122871  41.7111158  62.7823114  68.6037254  40.7001495  63.9050579
  43.6265087  53.1866169  44.8656940  44.0996981  53.8636494  44.3820047
  43.2699299  53.6420727  45.6283474  64.5724916  25.7086420  29.3689466
  64.7363853  26.6435051  29.2448401  65.3760242  25.3755784  29.7684932
  56.8023157  50.2368450  63.7494612  57.2673464  50.5863762  64.5095968
  56.6670275  50.9955454  63.1817532  33.9843464  60.0462341  47.1186590
  33.9983058  60.4936075  46.2725544  33.4989262  60.6373453  47.6941490
  80.2402782   7.4813336  22.8769493  80.1306534   8.4055108  22.6530933
  79.7977114   7.0098263  22.1712232   9.4910250  24.0058202   5.2900023
   8.7758622  23.4878702   4.9205441   9.4479690  23.8365812   6.2311406
  29.7894805  78.6724951   2.3661513  29.8268550  78.6528565   1.4098830
  30.6203502  79.0676309   2.6302571  57.9336214  50.6431293  39.1104722
  57.0013428  50.8423901  39.1964245  58.2632732  51.2996197  38.4968090
  68.7066078  40.0068092  54.1896582  69.4000292  40.3739691  53.6413956
  69.0215635  39.1330171  54.4210005  53.9828491  48.9090586  48.0745316
  53.5762453  49.6172476  47.5751638  54.8499537  48.8065863  47.6822758
  57.7672577  34.4927406  56.5283203  58.3840370  34.9037957  57.1339989
  57.7142143  33.5830021  56.8212223  67.1564436  74.7347546  29.7689819
  67.6757097  74.0065241  29.4279838  67.4914789  75.5041122  29.3084693
  38.0251831   6.0147994  50.2003479  38.4532207   6.5449851  49.5281076
  37.4524444   6.6283076  50.6605768   1.7638447  50.2381420  51.9758224
   2.4596073  49.9011898  51.4113665   1.6970589  49.5963144  52.6828051
  81.4624405  56.8774939  31.2127566  81.2705040  55.9429455  31.2903309
  80.7291889  57.2316360  30.7096028  80.7592575  16.6154807  60.0620747
  81.6503421  16.3271754  59.8643875  80.2095930  15.8638804  59.8402691
  83.7880802  43.9532900  41.5534544  84.0807343  43.4825134  42.3338127
  83.3866692  43.2800484  41.0040474  75.0549078  52.2487068  23.6758876
  74.9691010  53.1990337  23.6001086  74.1563177  51.9224691  23.6275029
  13.3465340  59.5627356  38.1791997  13.8323070  58.7590075  37.9940939
  13.7189056  59.8839045  39.0004325  42.5194359  34.2314768  61.7279100
  42.4649096  34.7283340  62.5442410  43.4577703  34.1071081  61.5854454
  38.8337612  79.0617800  69.6693945  38.9827323  78.2930899  69.1188002
  37.9553294  79.3593502  69.4326639   7.8690197  68.1614399  59.3037796
   8.6342003  68.0083179  58.7494421   7.1256496  68.1223917  58.7020302
  74.3549967  45.8919001  21.1527324  73.9565802  46.7443323  20.9770775
  74.2342281  45.7602835  22.0931172  68.2794189  69.0225506  43.4566355
  68.0391741  69.6032047  42.7345896  69.2250824  68.9056921  43.3655357
  26.4596408   4.8979800  61.8670607  26.5968650   5.4232161  62.6554298
  27.3406929   4.7411292  61.5274000  29.8413501  10.1045723  10.1041789
  30.0007949  10.7864112   9.4515700  28.9243541  10.2207870  10.3528590
  54.6952820  52.9942179  49.8276234  53.7799644  52.9904032  49.5476007
  54.9432802  53.9187241  49.8231030  25.8478522  63.0975437  62.6378345
  25.9625292  64.0060472  62.3590851  25.4127026  62.6732302  61.8983555
  44.4611120  58.0609703   5.2363282  45.3169203  58.0276537   4.8088771
  44.3719816  58.9697552   5.5233884  74.0668583  40.2779055  21.1114168
  74.3871307  41.1745310  21.2100196  74.6534729  39.8836637  20.4659033
  43.1372023  55.1076508  46.9129372  44.0427208  55.4179239  46.9106483
  42.7204895  55.5796051  46.1919403  66.2502146  72.0295715  35.1079488
  65.4988527  71.6390562  35.5542517  67.0123672  71.6538906  35.5486465
  67.8680992  73.3930349  65.9015799  67.9494524  74.1577864  65.3316975
  67.1661806  73.6219120  66.5108061   5.5154754  32.1529269   8.8099396
   5.9221794  31.9178510   9.6439457   4.6129085  31.8439031   8.8880807
  48.1700913  48.5471266  69.7242554  47.7885548  47.6707714  69.6726175
  48.5654752  48.5852801  70.5951410  84.0284729  76.2671280  52.2223091
  84.4795132  76.0842896  51.3980722  84.6178150  75.9309769  52.8975201
  79.0351915  18.0987227  19.0777838  78.9240646  18.3910227  18.1731057
  79.5737267  18.7776065  19.4843960  50.2845240  74.4933271  35.1731396
  49.7001314  74.8351049  35.8498263  49.7116756  73.9920378  34.5928121
  77.6351404  72.2857666  47.7489567  76.9760370  71.7434359  47.3157167
  78.3199692  72.4022865  47.0904255  70.6435490  55.7231426  64.8750544
  71.5522575  55.4570436  64.7347975  70.1901245  55.4580832  64.0748119
   9.2196991  57.9614115  55.1208782   8.3870270  57.7943373  54.6793222
   9.1851856  57.4205112  55.9098434  80.4025785  31.8267764   4.1874404
  80.6486313  31.1109819   4.7733826  80.0880710  32.5169523   4.7713704
  68.8083696  58.9743376  59.0694952  68.7616253  58.9637756  58.1134939
  68.5434580  58.0927801  59.3319941  79.0264273  78.0661106  24.5536566
  79.5624304  77.9966259  25.3436589  78.9870882  79.0052366  24.3727493
  62.9675388  59.2075968  53.9221287  63.7961340  58.8549376  54.2466211
  62.3984861  58.4426069  53.8372993  14.1551766  29.3407030   7.0844740
  15.1077495  29.4030923   7.1547408  13.8771949  30.2155990   6.8133349
  69.3455839  68.0416584  51.3587570  70.1088858  68.3077765  51.8713808
  69.6695900  67.9820204  50.4600382  26.0514015   8.5825675  39.5210934
  26.8816322   8.9906161  39.7669768  26.3008731   7.7348273  39.1532087
   1.8248266  80.7728960   1.9533295   1.1258119  81.0349871   1.3542313
   2.4502319  81.4968945   1.9230265  18.4262126   0.6542628  42.6303816
  18.2374710   1.5923350  42.6556015  17.5776809   0.2352755  42.7741480
  54.4280767  75.4183960  40.7009602  54.4818258  76.1577559  41.3065100
  53.8563728  75.7259750  39.9975562  44.6191597  35.2239466  65.1581669
  43.7075377  35.0114202  65.3581905  44.5788574  35.6891084  64.3225670
  54.4578552  33.6412883  16.7932558  54.7153902  33.4858751  17.7019656
  54.2325544  34.5711303  16.7638409  17.8057521  21.2678569   5.1518577
  17.2787612  21.9651454   5.5421174  17.2182649  20.8459704   4.5248815
  67.0524216  59.1571665  49.8957491  67.2667646  59.8183823  50.5538321
  67.8327942  59.1068649  49.3437338  18.4847690  64.3907022  33.1765342
  18.0154564  64.6280479  33.9763093  18.3251240  63.4524250  33.0746388
  81.8883705  71.0410261  39.1493583  81.1455345  70.7189369  39.6599317
  82.2661018  71.7360449  39.6883368  45.8252573  54.4413996  67.9352379
  46.2986088  54.2698431  68.7493277  45.9387970  55.3799534  67.7853966
  61.7262650  57.9890156  42.9737568  61.2621403  58.8221931  42.8923035
  62.0060825  57.7825403  42.0819569  84.4787312  58.7964582  20.4863572
  83.7475109  59.3669844  20.7231259  84.3842125  58.0356455  21.0594726
  68.9831877  57.7978516  19.7522497  69.8140240  57.8868723  20.2191710
  69.1794729  58.0786085  18.8584495  73.9870834  48.1911612  60.0925970
  74.8400688  48.2462931  60.5234194  73.8318634  47.2524500  59.9879026
   5.8862736  52.6319313  45.9961414   6.7511608  52.2996235  46.2364817
   6.0551502  53.5047483  45.6413174  73.3922148  13.1622481  41.0197926
  72.7080297  12.6243591  40.6212950  73.6238718  13.7964618  40.3413105
  51.2727356  74.3617916  31.0520053  50.5167484  74.2516470  30.4753041
  51.1085749  75.1877928  31.5069842  68.0107784  67.5894403   2.3891471
  68.1269884  66.8115473   2.9346848  67.7052736  68.2639265   2.9957461
   2.5784351  33.0142498  52.3964310   3.3548977  32.4674797  52.5163746
   1.9411518  32.4364567  51.9765997   7.3141521   2.1745246   7.3399132
   6.9337314   2.5926345   6.5674531   6.6178220   1.6086905   7.6733655
  44.6976185  52.0050049  40.0720453  43.9965725  52.5001669  40.4958105
  45.1811886  51.6070986  40.7959700  69.5318508  77.8347015  56.6588306
  70.1549292  77.5526142  55.9891796  69.6541500  78.7823486  56.7157888
  76.6681337  46.7028379  34.4017267  76.9242764  46.3983774  35.2723169
  75.9780741  47.3455000  34.5661664  69.2625666  48.5969114  31.1098909
  68.3647490  48.8551092  30.9013653  69.4696569  49.0767479  31.9118285
  47.6110792  48.9329720  50.7405186  47.4963379  48.8915825  49.7911215
  47.5669146  49.8666763  50.9466314  21.4373024  80.0884222  31.7597580
  21.0766514  80.6540533  32.4425626  21.1050471  80.4585171  30.9419155
  80.9580898  54.3884373  31.3904691  80.9535217  53.9066839  30.5633473
  81.6485119  53.9720249  31.9063687  55.6926537  39.7680855  55.3632259
  55.6978941  40.6976414  55.5915499  54.7873354  39.5889544  55.1091766
  69.1725874  55.6414700  44.1112852  69.8652840  56.1951923  43.7510109
  69.2343235  54.8262739  43.6134148  52.3876190  55.7174873  61.2249613
  51.7486906  55.1355553  60.8134317  52.5213289  55.3475332  62.0975971
  67.5640297  81.2050915   8.6608428  67.5920105  81.3418674   9.6078074
  67.8389549  82.0434093   8.2895362  11.3688042  43.1699610  39.5478749
  12.2395279  42.9901361  39.1932774  10.7729294  42.6842928  38.9775276
   9.3933576  23.6627238  29.2556834   9.7881502  23.5358088  30.1183915
   9.5514959  24.5848029  29.0532160  49.1419601  43.3251095  53.5808802
  48.5329342  43.6789513  52.9327154  49.9385309  43.1382418  53.0841064
  83.8735525   0.2069800  11.2504613  83.2520286   0.6279605  10.6565642
  84.4092361  -0.3473146  10.6829798   3.2100536  81.5759373  59.9299479
   3.4361984  81.1846638  60.7737446   3.9733173  82.1054935  59.6992397
  69.2201042  71.9525433  57.8295279  69.9090147  71.5911388  58.3872223
  68.7301493  71.1875486  57.5279331   7.3064567  52.2180748   9.2026222
   8.1350567  52.5846577   9.5112973   7.5432445  51.3661575   8.8360167
  81.5524292  28.9217257  54.3476343  81.4656830  27.9965830  54.1178226
  80.8979893  29.3650055  53.8077831  69.1280309   1.1894076  33.5152459
  69.5544664   2.0071166  33.2588482  68.1932036   1.3951056  33.5106158
  20.9971851  11.4821093  52.9750824  20.4423135  12.1607535  53.3595276
  20.8877462  11.5900176  52.0303011  68.8065004  24.5441103  64.2995644
  67.9315901  24.3385863  64.6289873  68.8110065  24.2054343  63.4042931
  62.0187330  60.5751276  31.9096732  61.2420654  60.3685522  32.4296236
  61.6946554  60.6428242  31.0115528  37.6606124  57.9443278   1.0168213
  38.5777992  58.1138064   1.2319607  37.4417156  58.6073615   0.3620667
  51.3422060  51.5355730  20.7785773  52.0234013  50.8633900  20.7979059
  51.2850237  51.8446922  21.6826844  34.4245094  17.0127528  52.7744532
  34.6751064  17.9234069  52.9298544  33.8492721  16.7941802  53.5076427
  60.5228472  66.7895603  36.4677525  59.8579931  66.7281818  35.7818723
  61.3542700  66.6826725  36.0056400  19.1420223  74.2938042  36.6645765
  19.2339374  73.8356686  35.8291745  18.4276630  73.8384151  37.1101546
  68.3831739  42.4858904  56.2818861  68.8276148  43.3229351  56.4162922
  67.6310110  42.6999950  55.7299471  51.2852573  42.0723534  64.9363804
  50.3400135  41.9295835  64.8876953  51.5402842  41.7015839  65.7811975
  60.3688145  40.9762716  67.0661926  59.7003937  41.4469814  67.5640631
  60.8408213  40.4645967  67.7231741  55.2392054  63.4147310  55.4665899
  54.3122816  63.2202482  55.3279400  55.5842161  62.6368046  55.9047985
  81.1188602  52.2787476  53.5410357  81.6418457  53.0687428  53.6775017
  81.4998436  51.6334486  54.1365719  14.9244819  19.1181535   6.2870831
  13.9921413  19.0521736   6.0806460  15.3270087  19.4348974   5.4784579
  48.5083804  19.2293043   6.6687960  47.9424224  19.2349739   5.8968539
  48.0663047  18.6459226   7.2856135  49.0368304  54.0136165   2.0167441
  49.8703704  54.4767494   1.9334168  49.2751155  53.1507129   2.3556370
  16.7758411  10.0650733  49.2847300  17.4648612   9.6440356  49.7987413
  17.0519346  10.9791129  49.2173243  74.8491812  44.1904020  36.3717270
  75.7217836  44.3323183  36.7386889  74.9327230  43.3862305  35.8593225
  83.2459641  46.8695927  27.9369640  83.3262825  47.8184366  27.8396297
  82.6143074  46.6125393  27.2652793  84.1674423  53.9127064   9.4141203
  84.3068409  54.0545368  10.3504360  83.2449341  54.1263342   9.2742413
  77.2554350  69.7580767  23.7512445  76.6974115  69.8260546  22.9765058
  76.6420984  69.6898031  24.4829440   2.5176900  13.1990187  34.5747662
   2.0181983  12.4285739  34.8452401   3.3094877  12.8420203  34.1724706
   9.0568298   3.3288329  47.4556303   8.4776777   2.9782145  48.1323004
   9.0703767   4.2721980  47.6172304  12.7068799   6.5042441  22.8541446
  12.3519367   7.3382132  23.1619430  13.1221336   6.7147582  22.0177913
  67.8187466  55.5736542  58.5389900  67.3752975  55.8778763  57.7471352
  68.2681513  54.7727489  58.2691431  62.8557110  47.0650721  66.3105583
  63.3931541  46.9126225  67.0878267  63.4491682  47.4844170  65.6875038
  71.1200714  47.0455599  51.7911911  70.9601307  47.6182365  51.0410643
  70.5392885  46.2979221  51.6498804  71.9537258  75.6020975  23.1662035
  71.6045856  74.9381065  22.5716901  72.1723509  76.3409328  22.5982618
  82.6484585  49.6954346  28.0524373  82.7330589  50.3202581  28.7726259
  82.1871948  50.1800299  27.3678660  84.5426559  37.8557539  67.6048851
  84.3667507  36.9228005  67.4828625  84.6195698  37.9629898  68.5529470
  55.9549904  61.4739227  45.9594107  55.0818014  61.8446922  46.0870838
  56.3669825  62.0481539  45.3138447   6.8594020   4.1760485  30.6582332
   7.5527233   4.5674269  31.1896110   6.2800020   3.7547438  31.2930751
  62.6447773  55.2136421  38.4051871  63.5101080  55.5334282  38.6604691
  62.4094296  55.7422590  37.6426840  83.9770595  78.5486008  10.4097457
  84.9092571  78.3402230  10.4715342  83.5683338  77.7337672  10.1178164
  50.8320317  24.8866052   5.2034564  49.8944841  24.9138803   5.0124449
  51.0272012  23.9559192   5.3128476  48.7456083  58.9537287  26.8909168
  48.6079693  58.5100460  26.0539985  49.5543957  59.4507885  26.7683268
  78.0780506  20.6945205   6.8773699  78.8081884  20.2643967   6.4322627
  78.0590820  21.5774345   6.5081328  78.1465387  32.8784108  20.2752852
  77.8205204  32.8903985  21.1751747  77.3657990  32.7382231  19.7395384
  71.9136953  32.2791433  59.2938852  72.4951982  31.6226292  58.9103794
  71.1375380  32.2680545  58.7338066  66.2335062  64.5275354  44.8187304
  67.0024204  64.2471504  45.3151083  66.2068319  65.4773092  44.9346781
   1.1896087  66.7563438  38.4427381   2.0112659  67.1475124  38.7395549
   1.2305881  66.8087530  37.4878526  64.2548690   7.5356741  13.5099787
  63.6595092   7.6135940  14.2554373  64.6567378   8.4010047  13.4329314
  70.3064958   2.2526210  47.8186512  70.7918970   2.7514308  47.1615362
  70.7371656   1.3979666  47.8369045  69.0956688  74.3170547  41.2876034
  69.1468334  73.3742666  41.1302614  68.1585884  74.5117617  41.2733030
  56.3853455  48.1764317  46.5833712  56.9452906  48.8576221  46.2109804
  56.9254589  47.3863602  46.5659237  31.4760917   3.2650035  23.1846666
  30.8351367   3.7214892  23.7296748  31.4597171   3.7351077  22.3510170
  78.8619661   5.9033251  25.0316525  79.5581388   5.3992295  25.4529142
  79.3142557   6.6415280  24.6233368  40.5524111  71.9309378  39.9143100
  40.0794649  71.0990238  39.9361873  41.1520863  71.8461132  39.1730762
  59.0094995  80.4481602  66.6728306  59.1949892  79.5181084  66.8025255
  58.0784273  80.4782867  66.4527512  66.4275408  69.1772032  34.1095400
  66.1180353  68.7035704  33.3374572  66.6882372  70.0354862  33.7754560
  24.5596641   9.7381728   2.5505140  24.6418994  10.4204028   1.8841636
  25.4073661   9.2936557   2.5440660  34.1946778   9.2767353  13.8138289
  34.2720685   9.9555845  14.4842047  33.5663209   9.6316404  13.1849856
  57.7240229  72.4992800  53.1579447  57.7347946  73.4498644  53.0461264
  57.8617716  72.3668718  54.0958834  74.4903851  60.0265217  33.6852527
  75.3845119  60.1440334  34.0061283  74.1857672  60.9137154  33.4946704
  82.0376110  74.2532825  11.7642307  81.6771030  74.8519707  12.4183238
  81.3002682  73.6943626  11.5189230   1.1326259  19.4875663  32.3331666
   1.0009187  19.1485541  33.2185793   0.4596799  20.1606982  32.2318649
  79.0625095  60.6602144  55.3513288  78.8556194  60.5545902  54.4227409
  78.2826042  60.3446960  55.8078718   4.7987863  56.2889624  44.4501638
   4.9629828  57.1103477  43.9869118   5.6542921  55.8614969  44.4903517
  62.3663840   8.5669632   6.5794510  63.1800590   9.0180320   6.8046040
  62.4641166   8.3445425   5.6535954  67.8535986  36.4432883  41.3041830
  68.0281496  37.1440387  41.9324446  68.1899643  35.6531930  41.7270756
  81.0525703  33.6930513  56.4768076  81.5017128  33.5347986  57.3071384
  80.3342533  34.2842913  56.7019415  81.8360806  65.6389141  51.7805624
  81.9096851  66.2306690  51.0318041  82.2501183  66.1127043  52.5018978
  13.3794826   2.1411650  10.6944489  13.4822458   1.1915438  10.7568419
  14.0250200   2.4927275  11.3075709  62.9833651  63.7699509  55.2948189
  63.4203863  63.4391689  56.0795641  62.1752167  63.2601643  55.2378464
  59.9339390  44.1895151  55.3266621  60.4078436  44.1224051  56.1556053
  59.5443153  43.3240223  55.2027702  76.3553095  34.3477488  49.1842127
  76.0687208  34.5172358  50.0816345  77.3106337  34.3225718  49.2385817
  79.3103600  64.9694109  56.3318205  80.0691700  65.2334881  56.8521166
  78.5744047  65.0131845  56.9423008  59.2172432  49.8894882  46.4532423
  59.7552443  49.9153709  45.6619644  59.6915436  49.3068743  47.0463991
   7.5514453  74.2207767   3.6266417   6.7163175  74.6759941   3.7342114
   7.9829114  74.3078496   4.4766326  17.3105806  12.6948874  45.3207779
  16.3889593  12.4480956  45.3978252  17.4710935  12.7300399  44.3777895
  69.3214893  48.9783239  66.7763376  69.5235252  49.5120382  66.0078526
  68.5122395  49.3541336  67.1229076  68.7882582   1.8510382  23.2348013
  68.5949008   1.0470240  22.7527237  69.5923034   1.6545623  23.7155724
  10.2449697  10.1993315  41.3416767  10.7366556   9.6170848  40.7624817
  10.3704112  11.0713427  40.9673882  69.5768404  78.9768314  52.0850134
  69.8979521  79.7095823  51.5594721  69.7206926  78.2065916  51.5352201
  76.2884712  65.1938486  65.9103203  76.0600758  64.6301937  65.1711559
  77.2446585  65.2347136  65.8938694  45.4400668  20.9040136   7.3645253
  45.3552852  20.3273744   6.6052289  45.4328141  20.3121395   8.1167693
   5.7614376  66.6135836  63.8291693   5.3555347  66.2942123  63.0232716
   6.6693928  66.7932987  63.5851192  54.8912048  57.4062061  18.4586871
  54.5038700  56.8354940  19.1223812  54.9269772  56.8658018  17.6694369
  11.9168808  67.5236845  30.0227857  11.2203647  66.8673849  30.0033736
  11.4607097  68.3599091  29.9286199  67.5761414  46.3679886  53.5239363
  66.6737270  46.3635588  53.2047892  68.0930233  46.0464525  52.7852345
   6.9713729  23.8853972  25.1693392   7.2570413  24.4357531  24.4401336
   6.8471330  24.4960253  25.8959246  52.2016239  44.0794516  63.1747961
  51.7381668  43.5473347  63.8215494  53.0342913  43.6258650  63.0438089
  65.8462238  75.5062580  55.2587366  66.4796829  76.1267710  55.6191874
  65.5424738  75.0066471  56.0165977  67.2171799  18.3724921  52.9399538
  68.0015031  17.8861087  53.1939316  66.9747702  18.8630526  53.7253332
  82.2033310  67.3074818  49.7767687  82.9750538  67.3403883  49.2114353
  81.4959908  67.6608706  49.2373037  62.9255104  54.8367596  47.3111868
  63.6933994  55.4006672  47.2185326  62.3145294  55.1528168  46.6455746
  54.3426228  70.2062798  41.7774105  55.2462912  70.4271555  41.5519667
  53.8553286  71.0179901  41.6363382  57.3427439  59.9783134  40.7652521
  57.8127718  60.7480049  40.4445028  56.7545080  60.3202438  41.4385271
  80.2473164  62.9207373  43.6491346  80.4175472  62.4146032  44.4435406
  80.1857853  62.2641182  42.9553795  21.8541854  14.6347659  41.4726925
  21.6848749  14.9886267  42.3458195  22.2649806  15.3568118  40.9971476
   4.4541790  76.1706972  12.3849642   4.0950825  75.5876732  11.7161095
   5.2508404  76.5256977  11.9905794  22.0647520  12.2834819  69.3750286
  21.4354461  13.0013507  69.4448090  22.0654195  12.0550578  68.4454823
  45.3879309  43.0848837  58.5060406  45.0439882  43.1360912  59.3978453
  46.0714388  42.4162817  58.5509634  53.1848860  57.1308470  35.0646639
  52.5067472  57.2229385  35.7339025  52.7637625  57.4208307  34.2554688
  15.2521054  50.8187621  63.0818420  16.0027997  51.0423999  63.6320012
  15.4270713  49.9240618  62.7900719  69.5717478  61.7100668  25.4320431
  70.1656771  62.4383831  25.2502871  68.6979246  62.0992565  25.3975058
  67.0247126  64.2225504  40.0248814  67.9782152  64.3063688  40.0310993
  66.8471479  63.4658384  40.5835342  54.0467405  37.1912336  53.8114834
  53.2457733  37.7125883  53.8650370  53.8378382  36.3825226  54.2790079
  78.1514215  20.6547093  53.6061430  77.2620153  20.5777216  53.9514828
  78.3992004  21.5622616  53.7827396  50.3925753  58.0262756  66.8790531
  50.7491207  57.8896236  66.0013103  49.7533751  58.7305260  66.7709541
  55.4092693  31.0254788  59.1820240  54.4938421  30.7476044  59.2138433
  55.8637428  30.4204321  59.7681999  75.3422785  66.3261747  32.2612119
  75.2288151  67.2397280  31.9989514  76.2300014  66.1047173  31.9799089
  71.1797619  63.4362745  59.8361588  70.5874157  62.7871752  60.2156687
  71.9345617  62.9275274  59.5400333  72.0026112  68.4609747  51.9207764
  72.5905943  68.3698463  51.1709785  72.3305368  69.2278242  52.3904943
  40.7427344   5.1238842   7.3429961  40.8125386   5.7645053   6.6352028
  39.8305831   5.1799697   7.6277108  74.7145653  39.3093085  68.6078262
  74.0969944  40.0401306  68.6349630  75.3164339  39.4772840  69.3329287
   5.1498653  56.8391037  56.0209179   4.2789413  57.1800804  56.2245178
   5.6321670  56.9065905  56.8449688  74.9187708  67.4620104  66.6378975
  74.5213461  67.0103168  67.3823786  75.5379391  66.8281269  66.2758875
  50.9916544  68.3644438  54.7015142  51.4364004  69.1491318  54.3810415
  50.0792408  68.6332130  54.8087502  57.7865934  40.9326124  70.7946539
  56.9892693  41.4052391  71.0336637  58.3220243  41.5816307  70.3382254
  72.2400475  64.3370533  38.8492513  72.8655910  63.9729548  38.2228684
  72.7284050  64.3927050  39.6706176  15.7477142  49.0632534  33.7121344
  16.1875870  49.1864538  34.5533013  16.2536957  48.3781052  33.2753372
  47.2568560  39.6029639  55.4565716  47.1059370  40.5371618  55.3125763
  48.0788994  39.4202137  55.0015116  16.2433578  57.9393053  31.4106226
  17.0719482  57.7302408  30.9793901  15.8528091  58.6195660  30.8620358
   5.0972130  71.1139059  35.7086158   4.6479751  71.7090702  35.1084566
   4.3949558  70.5977631  36.1044312  72.1639919  49.3830347  32.8286624
  72.6877356  48.7742043  32.3078489  72.5239134  49.3128633  33.7128353
  79.3489170  48.9306927  42.4132061  79.3564796  48.0684328  42.8287601
  78.4901667  49.2936087  42.6301718  71.0082483  55.7929468  34.5802879
  71.7039061  56.4245558  34.3976164  70.2294397  56.3299608  34.7262383
  65.2629089  35.6302357  55.9469271  65.2782726  34.7028208  56.1833525
  64.7065353  36.0374832  56.6108751  74.0033770  62.7230358  33.5854650
  74.8907900  62.9199839  33.2855654  73.4349203  63.2018995  32.9823232
  67.7259254  62.3756552  28.2793760  67.1744013  62.5908375  29.0315366
  68.4568787  62.9912090  28.3344436  72.5410604  50.1200581  27.4815536
  72.7523088  50.6787205  26.7335558  72.8793478  50.5966997  28.2395840
  37.6080966  75.2557230  51.7368364  38.4532809  74.8557472  51.9415617
  37.1969318  74.6463108  51.1238146  63.6564747  64.0492846   1.5520281
  63.3005611  64.5910956   0.8477587  64.1690914  63.3778192   1.1019272
  69.9445534  43.3430624  31.6983342  70.3942251  43.0947971  32.5060415
  69.3608713  42.6073265  31.5132952  27.9158187  61.5826321  61.1816168
  27.2497940  61.0501814  60.7467127  27.4248242  62.1188068  61.8042517
  35.4608035  76.9310427  70.7073164  34.5566773  76.7677402  70.4387617
  35.8596992  77.3658895  69.9536467  76.8625450  24.4274378  67.7337790
  77.6434803  24.9799180  67.7000809  76.8152618  24.0263700  66.8659401
   0.1111175  39.9884796  32.1579337  -0.3785942  40.8106613  32.1785927
   0.9796383  40.2349424  31.8398809  77.5518942  62.2655439  49.4390488
  77.0424461  62.7254057  50.1063013  77.3432732  61.3410521  49.5733213
  78.1829262  62.4373007  62.9706240  78.8946247  61.8015051  63.0446291
  77.9470396  62.4258709  62.0430136  10.0060036  75.0266457  20.1645327
   9.6204521  75.0166082  21.0405898  10.6115391  74.2853308  20.1608419
  84.0720940  65.9986067  63.1946564  84.5846748  65.2841616  62.8164291
  83.1948757  65.6317854  63.3048773  67.7605662  40.1981945   1.8307538
  67.9389701  39.7972889   2.6814503  67.6141963  39.4572086   1.2427468
  65.3158951  47.5595903  46.6974735  64.8029900  47.8926039  47.4338579
  65.3447676  46.6126823  46.8344688  24.4809963  54.0028524  47.7259922
  25.1727630  54.6037436  47.4492025  24.3712189  53.4065247  46.9853354
  64.7658954  45.3495235  17.2706980  65.7145248  45.2224559  17.2841162
  64.5164905  45.1955432  16.3594718  31.0051292   6.1758464  61.7861891
  31.9117969   5.8782046  61.7114067  30.9479087   6.9218009  61.1891031
  27.7241756  70.2040434  48.1470966  28.3443691  70.2489614  47.4193811
  27.0038177  69.6682072  47.8151417  57.9730082  79.1516113  46.9521236
  58.8803053  78.8794327  46.8144178  57.5860786  78.4435749  47.4671030
  15.1232387  81.7442703  53.3958769  14.8665573  80.8366108  53.2330799
  14.5299866  82.2622108  52.8517962  66.5701437  75.9840202  43.8412666
  67.3242474  76.4790392  44.1614580  66.7430544  75.0823402  44.1120243
  69.8652315  38.7833095  47.5615168  69.9853992  38.3959317  46.6944933
  70.1913023  38.1185460  48.1681442  15.3064396  58.0456543  18.3900702
  16.1284782  58.3573437  18.0114794  14.6298935  58.3774519  17.7997935
   3.6447384  56.4663315  68.0098391   2.9405453  56.1992979  68.6006403
   4.3745567  56.6835403  68.5898542  30.3993457   1.9789641  27.2224545
  31.2776512   2.3583834  27.1932006  30.1037162   1.9888728  26.3121033
  34.8613304   1.4958422  61.2724495  34.8047679   1.9773333  62.0977926
  34.9136966   0.5766909  61.5344810  40.2583933  60.3519869  16.5148473
  39.8175097  61.0809565  16.9512570  39.5483208  59.8391247  16.1288404
  74.1104698  43.4668064  50.9397840  75.0628233  43.4333658  50.8495617
  73.8135624  43.9490366  50.1680756   2.7549412  72.9307175  56.9026184
   2.7564098  73.8614464  57.1261740   1.9585659  72.8098583  56.3855076
  72.7888592  32.7956746  63.6969279  72.7090844  33.4969161  63.0502986
  72.9271801  32.0044206  63.1763332  18.0894989   0.8151858  49.6163893
  17.3353809   0.4606192  49.1454124  18.4736293   0.0579016  50.0582075
  63.5955000  64.1793346  67.2504044  63.9420319  64.5012903  66.4182425
  62.6477623  64.2896891  67.1739435  74.7758818  45.8230734  54.6328449
  74.0943909  45.4402828  54.0803242  74.4191694  46.6698503  54.9011040
  55.1312971  53.5231161  55.4330778  55.8454752  54.1591072  55.3919268
  55.3741217  52.8488970  54.7984982  33.3624889  75.7901525   7.3349190
  33.5040142  75.1713943   6.6184384  33.0201294  75.2540874   8.0502230
  36.6741834  26.1824483   1.2842841  37.3364816  25.8100957   0.7020945
  37.0232997  26.0428114   2.1645398  79.5439005  52.6013231  41.6400671
  79.8066235  53.1154919  42.4035072  80.3470898  52.1634960  41.3582373
  44.0836716  57.8396893  55.1988077  44.6235514  58.4931421  55.6435061
  43.2926130  57.7780533  55.7342100  15.5213866  64.2733020   2.5110001
  15.5574880  64.1006774   1.5701861  15.8354030  63.4644241   2.9151578
  35.0124019  17.3590415  40.3001642  35.5741161  16.7342036  39.8416018
  34.1596549  17.2719805  39.8741651  16.0001137  57.1433258  28.3166599
  15.5452110  56.3022089  28.2740808  15.9334041  57.4968815  27.4296546
   4.0555471  27.8219264  46.7953396   4.3695253  28.4095423  47.4826241
   3.5729354  27.1411841  47.2642660  47.6597548  52.2796631  39.1294456
  47.5212002  53.0751610  38.6154246  47.0338917  51.6505814  38.7705922
   3.4871055  79.7817421  62.6636982   2.5804760  79.8945284  62.9492617
   3.5633232  78.8470268  62.4720383   4.9808647  42.3634815  46.1675167
   4.0394546  42.2425175  46.0436583   5.3731968  42.0328331  45.3594446
  46.1148780   2.1791499  59.4374657  45.9830707   2.8260558  60.1305532
  45.2337306   1.8691104  59.2284870  61.5125561  58.7216330  25.7891798
  62.0708323  58.7090111  26.5666127  62.0843458  58.4303141  25.0789547
  86.4885513  17.2095340  55.1587486  86.9911090  17.8901046  54.7109795
  85.5938665  17.5489657  55.1824951  83.7345219  55.9310579  19.0907836
  83.6820984  55.0536394  19.4697559  82.8269482  56.1600924  18.8905740
   0.2162029  62.0003891  55.4513979  -0.7271717  62.0403004  55.6084681
   0.5934574  62.5845432  56.1091852  24.3758243   1.7257540  45.6515360
  24.1458744   0.8020537  45.5509329  23.8097805   2.0379775  46.3574743
  71.0045807  10.2677291  54.2654276  70.8307020  11.0807555  53.7911034
  71.9001619  10.0346034  54.0208626  86.0268442   0.6704276  26.7256045
  85.6795208   0.0613826  26.0739446  86.7471067   1.1147063  26.2783074
  82.5725017  29.6502132   2.3014206  82.3687682  28.9517707   1.6794104
  82.0850501  30.4081220   1.9786162  42.0291805  70.3999758  62.0610666
  41.1545658  70.3294134  61.6785717  42.4346924  69.5499563  61.8900251
  77.5694458   8.0929797  29.3550205  78.4292833   7.9901641  29.7628713
  77.7474300   8.0807917  28.4145927  74.9567032  63.6511803  37.5513935
  74.9872255  62.8189659  38.0233240  75.5387306  63.5232353  36.8023276
   3.1569053  70.1617622  31.8617201   2.5258304  70.2992201  31.1552620
   2.7282001  70.5200911  32.6389217   3.1825687  50.0573015  62.6065540
   3.2776119  50.1527834  63.5542250   4.0160896  50.3645515  62.2500753
  73.8972902  67.4170160  19.4243240  74.5611000  67.0340204  18.8508213
  73.4038639  66.6661453  19.7544003  66.9966173  39.6030998  48.8287020
  67.6985645  39.6028423  48.1779289  66.6259623  40.4843235  48.7808418
  26.8019908   8.5384696  34.6530366  27.4183505   8.4157031  35.3750157
  26.6884559   7.6627963  34.2835188  36.6859899  55.6462116   8.5884709
  37.5232635  56.0591526   8.3770747  36.7903123  55.3408260   9.4896311
  11.5281528   8.9131682  67.2208834  12.2607320   8.7956088  66.6161203
  10.9789556   8.1411021  67.0847797  38.7910543  29.9306554  10.2898402
  38.0310664  30.3177995   9.8553557  38.8749061  30.4209156  11.1076731
  35.9897566  55.8072090  45.2258825  35.3629851  55.8600283  44.5043564
  35.6273723  56.3815308  45.9004641   1.3603546  54.9859905  66.5854836
   1.1932899  55.2378130  67.4937296   1.2176277  54.0396309  66.5692043
  11.5111965   6.1666148  50.2914524  11.1185878   6.6073077  49.5378780
  12.1880763   5.6045954  49.9143600  76.8545485  48.8269520  64.0973759
  76.6893911  49.7552729  63.9325237  76.7190933  48.7231445  65.0392389
  24.6487754   0.1893180  18.3250976  24.4189208  -0.0494725  17.4271119
  24.1045898   0.9531443  18.5165811  69.9883127  65.6928349  22.7095461
  70.4651165  64.9063492  22.9747415  69.1707706  65.3629732  22.3366570
   7.4586918  51.2082958  40.6871367   7.6836445  51.3523102  39.7679567
   7.9659035  50.4368639  40.9398222   5.8993198  35.8829880  63.7750864
   5.2821590  36.6072679  63.8787985   5.4931118  35.1533341  64.2428827
  82.9856777  74.9587011  60.1913023  83.4515667  74.2538357  60.6411266
  82.7550507  74.5879221  59.3395042  82.8518772  60.8907747  21.1342168
  81.9211864  60.6814861  21.0551453  82.9775715  61.6448832  20.5582380
  76.9366775  13.8634796   5.7883353  77.3697314  13.8101167   6.6403098
  76.3321624  14.6008272   5.8726973  32.3391962  66.2764645  31.9611645
  32.3640251  65.4406881  31.4952326  33.2498646  66.4417219  32.2053075
  69.7125149  54.9689722  30.9042144  68.8802099  55.3106260  31.2309718
  70.3619432  55.6154823  31.1807990  80.0335121  73.5659885  55.2537727
  80.1287556  74.5054054  55.0967407  79.8199749  73.2001114  54.3954229
  53.3575678  76.1331892  66.5069675  52.5887632  76.1460066  65.9368753
  53.5997725  75.2087593  66.5617037  75.8176994  77.8758526  54.2242479
  75.6227160  78.7030697  54.6646166  74.9667931  77.4472761  54.1319561
  82.2837639  47.2840881  14.8325455  81.3517380  47.4996614  14.7995591
  82.6201820  47.5438595  13.9748907  75.9971952  72.3253727  26.8953943
  75.4592514  72.1762657  26.1178231  75.7750607  73.2139254  27.1735287
   7.7209045  17.7621472  58.0387926   8.1240227  17.8503156  58.9024782
   7.5137855  16.8305326  57.9651260  59.9460363  44.8687553  68.1154823
  60.7212639  45.0345612  67.5790548  59.7301960  45.7208872  68.4943247
   8.9494469  50.2301741  49.8824883   9.6530487  50.6127119  49.3582296
   8.5994293  49.5262527  49.3364000  51.4414358  71.9467688  62.6088095
  51.2362480  72.1736050  61.7017937  50.6306028  71.5702009  62.9508305
  25.1824317  54.9770374  21.6621203  24.9007115  54.1246433  21.9942278
  25.3555522  55.4950542  22.4482054  19.3102783   5.4168647  11.4751947
  18.9592832   6.0588877  10.8580685  18.9791721   5.6984942  12.3280036
  21.7590850   6.1948912  18.1552410  21.1487668   5.5171054  17.8647864
  21.3086551   7.0186465  17.9687750  77.5173378  60.2739048  28.6793756
  78.2515287  59.9295807  28.1708097  76.8874216  60.5682564  28.0215073
  26.5753398  27.6962490  17.3544592  26.0688386  28.1444568  18.0318064
  26.6632924  26.7988271  17.6755995  26.8893951   5.3952735  48.7695551
  27.3194736   4.5661490  48.5602140  26.3521045   5.5871432  48.0009604
   2.6128151  74.1067600  20.5068040   1.7643787  73.6920452  20.3505778
   2.9321338  73.7024164  21.3135099  25.5230373   3.9560454  56.1358547
  25.9268135   4.8168509  56.2463427  26.0970443   3.4993975  55.5208635
   3.5921146  68.0219984  38.3017683   4.3395378  67.4479723  38.1341624
   3.7280228  68.7686634  37.7184558  50.3041205   4.6423978  16.1670012
  50.0947747   4.4234151  15.2590079  50.2156386   3.8146705  16.6395182
   3.2763721  68.3140039  60.2219009   3.4977962  68.8169050  59.4381332
   3.9383747  68.5684967  60.8647251  39.6234737  50.5326099   8.5059208
  38.7346635  50.8845443   8.4570689  39.5401416  49.7454280   9.0440936
  45.1069069  80.0067711  52.8642082  44.4995546  80.7398987  52.9635763
  45.9181309  80.4082966  52.5528860  76.0172415  71.3734674  32.0887923
  76.6037083  72.0937204  31.8574262  76.5767384  70.7470846  32.5479555
   3.0987026  50.5418539  36.2863660   2.1669437  50.4899168  36.0733891
   3.1244232  50.9544945  37.1496725  62.1162748  66.8575764  22.1098852
  61.4825726  66.3752699  21.5788150  62.9242611  66.3492775  22.0390749
  67.3100471  55.2523756  20.1883745  66.3640833  55.2015972  20.0512457
  67.5616169  56.0959530  19.8124516  60.0025511  68.2788849  59.0032387
  59.8268938  68.8446283  59.7551107  60.6214905  67.6274633  59.3330812
  77.7362061  59.9128580  52.7408886  77.4857759  60.8271408  52.6082182
  77.4348879  59.4648743  51.9504786   9.9395992  45.2673006  38.0617285
  10.2578213  45.7996607  37.3326492  10.7184173  44.8148775  38.3857632
  62.3955536  56.6724014  58.4915018  63.2309198  57.1233225  58.6142445
  62.0948076  56.4794159  59.3795013  80.3699017  74.3570518  43.3899927
  79.6539068  74.7463036  42.8879404  81.1479664  74.8400688  43.1115103
   8.1786968  66.7294455  55.6041145   8.1470539  66.0197544  56.2456512
   9.1123916  66.9038677  55.4857492  36.8813992  65.0858116  44.9588776
  37.4326849  64.4115019  44.5618629  36.3801408  65.4465771  44.2275620
  21.7859977  26.5154212  47.4958563  22.4035400  27.1852725  47.2023058
  22.3376792  25.7745974  47.7469683   8.4054082  10.0073092  17.4864578
   8.0848545   9.7714560  16.6159105   7.7196306   9.7080081  18.0834150
  11.6471149  73.3114243  61.2003231  11.4207699  74.1586685  61.5839672
  11.4940216  73.4247017  60.2622604  57.0747709  77.6160383  41.3189316
  57.7732134  78.0435991  41.8145132  56.3334751  77.5895309  41.9239235
  35.0223201  19.3909972  22.4765086  34.4438785  18.6435740  22.6281857
  35.8487266  19.1421645  22.8904653  39.8861935  51.2009716  36.2885404
  39.5030357  50.3387547  36.1272883  40.2947380  51.1240625  37.1507549
  65.1402426  77.4665928  25.2177644  64.5959473  77.5220585  26.0031939
  65.8143425  78.1339741  25.3458881  40.3253412  65.9825897  43.1692839
  40.5575514  65.8016539  44.0800953  40.2468634  66.9356251  43.1269026
  75.1117420  59.4649029  43.7375879  74.6652079  59.5005655  44.5834970
  74.4200659  59.2542791  43.1103277  58.6110737  61.1239147  46.7055130
  58.9154484  60.4218483  46.1304569  57.6580288  61.1092567  46.6176319
  76.4268112  63.8179636  40.6551790  76.8116045  63.3225346  41.3781691
  76.8514585  63.4677410  39.8720789  65.3892565  67.2363091  20.0785184
  65.0299788  66.3699436  20.2697325  66.1898756  67.2842264  20.6009603
  39.4272804  37.9421043  65.1573896  39.6951866  37.8462076  64.2434597
  40.2283001  38.1946278  65.6165504  30.1544714  72.7952957  58.0151558
  29.3158889  73.1422806  57.7108335  30.3280592  73.2680225  58.8291740
  63.8960838  65.5796909  53.3439159  63.1544256  65.6046629  52.7393103
  63.6403799  64.9420452  54.0104389  68.4992218  55.8594942  37.2282314
  67.5462341  55.9166193  37.2973800  68.8245153  56.4334965  37.9217267
  30.5037554  27.9001640  64.3940770  29.6190174  28.1026719  64.6981423
  30.4815062  28.0816291  63.4544986  31.6036838   2.9024165  67.0491171
  32.2939056   3.0083602  67.7037907  30.7967895   3.1244891  67.5137091
  55.5636032  59.5791553  67.1538871  55.3113755  60.1098083  67.9095449
  56.5206536  59.5776962  67.1709704  60.5998168  35.9009285   1.1569781
  59.7008166  35.5823488   1.0761113  60.8056960  35.8035965   2.0866961
   8.7252134  10.8812945  52.6361942   9.5044034  10.5791323  52.1695137
   9.0250677  11.0276168  53.5333633  16.0199970  12.3768943  27.5758147
  15.6484931  12.6646369  28.4097362  16.7659420  11.8298953  27.8219461
   5.7168342  78.9445639  33.0910635   6.4263679  79.5678759  32.9352617
   6.0879185  78.0948830  32.8532076  36.9040809  22.2243423  38.9736456
  37.0264993  21.3248272  39.2771620  36.7397533  22.1399469  38.0344481
  82.3192692  49.7459221  38.6824417  82.5773430  50.4684210  39.2548251
  81.6693211  49.2592144  39.1892982  53.5411501  51.8861246  52.1230078
  54.1987371  51.7499638  52.8051186  54.0477228  52.1198463  51.3451958
  16.3014557  57.9679298  51.6060591  16.1692573  58.8572073  51.2775183
  16.7614605  58.0855703  52.4372005  15.8591503  21.3909285  39.4488168
  16.5808004  21.9450705  39.7461009  15.8667892  20.6452887  40.0489807
  41.4901203  29.2056220  46.7535162  41.0339111  28.9800017  47.5641918
  40.9560150  29.8971026  46.3625956  75.7610551   8.6787646  44.2245483
  74.8342077   8.4454100  44.2767715  75.7786600   9.6243422  44.3722486
   1.5502407  74.0402651  49.7423029   0.8556892  74.6812773  49.5908308
   2.3200085  74.4156504  49.3147802   9.5651668   3.1790011  63.5178757
   8.7458271   3.3499758  63.9822960   9.3882984   2.3925250  63.0017281
   6.6575291  78.4166193  21.6657424   7.3084976  77.9190493  22.1606231
   7.1663334  78.8843870  21.0035133  25.2165272  51.5942574  46.1105680
  24.9933769  50.7688618  46.5408611  26.1734154  51.6009951  46.0869408
   3.5836174  72.3608303  47.8731298   3.7114288  73.0969334  48.4714937
   4.4333221  72.2481871  47.4470520   9.3537952  78.7110424  46.7348003
   8.5608150  79.2398787  46.6467333  10.0671627  79.3491602  46.7465258
  14.2653411   3.0727332  61.8481541  13.5589927   3.7186282  61.8369293
  13.8746971   2.2840350  61.4718866  12.9943045  12.2220443  70.3143054
  13.9108427  12.4371598  70.1413476  13.0182751  11.3276599  70.6545005
  16.8279411  47.5289774  43.8957167  16.5694286  48.4421921  44.0199709
  17.5345375  47.3920870  44.5267582  23.5857916  73.7676907  64.6769571
  24.4739008  74.0127230  64.9366713  23.6130214  73.7472773  63.7203598
  15.4003628  60.4694540  60.4839182  16.0545977  59.8647315  60.8339405
  15.8786019  60.9945209  59.8421812  53.1319094   2.4497628  44.6549082
  52.5223494   1.7673214  44.9358702  52.5718260   3.1388766  44.2976141
   8.5028154   2.3553866  60.1150703   7.8717434   2.9858267  60.4622412
   8.8084847   1.8742578  60.8840418  20.7043227  77.8736932   1.0227040
  20.9488829  77.4837659   1.8619777  21.0915955  78.7488098   1.0432706
  35.8937764  34.4899559  24.4527674  35.3160310  33.7716007  24.1950679
  35.3578663  35.0326157  25.0311756  82.1775443  46.8998868  54.3759632
  82.6927930  46.1265619  54.1463614  82.7314431  47.3834378  54.9888277
  19.9245270  64.3148322   6.7112827  19.8863181  63.3584244   6.7038131
  19.4601448  64.5792956   5.9171522  46.7985153   0.5234789  52.8263950
  46.7537975   0.9359209  51.9637680  45.8856821   0.4524874  53.1055450
   3.7979158  62.7215118  44.1049290   3.2045086  63.4524197  43.9320850
   3.2363351  62.0386691  44.4717884  33.1956013  70.8116359   3.7546635
  34.0000447  70.5968077   3.2824847  33.4845312  70.9966762   4.6482581
  52.0910993  56.6950481  55.3078633  52.9607549  56.9312983  55.6305330
  51.7901387  56.0127979  55.9080201  73.8467065  59.5139744   6.8669982
  72.9077236  59.4703187   6.6863389  74.1200010  60.3595354   6.5112347
  80.6109745  78.3683051  12.0976579  80.0680381  79.1394151  11.9338202
  80.0213748  77.6267744  11.9607711  28.7229562  22.2781801  57.0010376
  29.6693778  22.3879433  57.0930529  28.5854125  22.1637321  56.0607100
  13.4020245  35.6909299  42.8566885  14.3012464  35.6943059  43.1847429
  12.9236090  36.2559605  43.4633923  71.3124675  34.3605907   3.6576489
  70.8423931  35.0453336   3.1818449  72.1027583  34.7930772   3.9811137
  14.0233858  74.9243046  37.2404194  13.2105406  75.1756341  37.6789999
  14.7161158  75.2391119  37.8211546  10.2254069  35.6969500  38.7279177
   9.5325518  35.9120679  39.3523431  10.9721088  35.4510665  39.2740035
  51.3144350   6.0014558  28.7063050  51.1499977   6.7148823  28.0896902
  51.0505819   5.2115089  28.2345033  28.3992934  20.4807258  30.2830052
  29.0952897  20.8933806  29.7715950  27.7565908  21.1770153  30.4184532
  83.5787970  50.9351475  33.6488867  83.2846839  50.1426131  34.0979075
  82.9875928  51.0200364  32.9008889  73.2967741  73.7138719  51.1741447
  73.4350413  72.8149206  50.8758163  72.8113193  74.1305269  50.4621315
  31.2298926  61.3099820  45.2824545  30.2951868  61.3758285  45.0869513
  31.6473683  61.2131245  44.4265556  48.2688236   7.5342751  24.1458440
  49.2147779   7.4335241  24.0397716  48.1300926   8.4810412  24.1707206
  63.6948156  15.7635677   1.3059278  63.9216328  14.8392534   1.2038185
  63.5440779  15.8708644   2.2450756  11.0418709  66.3831587  55.9901524
  11.6549261  66.8798859  55.4482508  10.6521901  65.7475908  55.3897905
  27.3886498  58.5776455  42.8523779  27.1337660  57.8146417  42.3336363
  26.6144093  59.1404516  42.8469419  37.4633479  19.0906048  23.6504912
  38.1832170  18.4700763  23.5366225  37.1079493  18.8889301  24.5160842
  25.1731976  64.4666655  34.8840237  24.3467959  64.0864176  35.1818562
  25.3147324  65.2155680  35.4631138  40.2808762  11.9966292  22.5716662
  41.1072874  11.5492451  22.3896623  39.9570560  11.5849733  23.3728600
  61.4373970   4.9946481   3.9353263  62.3115873   5.0110269   4.3248826
  61.4977217   5.5878180   3.1864995  76.4815599  46.2373264  48.8099289
  76.5173835  45.2970178  48.9853334  77.0711416  46.6243274  49.4571209
  54.4893220  71.5435953  53.7768888  54.6452397  70.6728143  53.4112883
  55.0412190  71.5776534  54.5582199  12.1136959  79.5274662  59.3785810
  11.7215689  80.0757287  58.6989689  11.3837489  79.0114097  59.7207737
  44.4807482   1.9834287  55.2142525  45.2028513   1.6547811  55.7497740
  44.2745972   1.2611806  54.6208763  17.5783547  61.4412243  39.8633289
  17.6818903  61.1109073  40.7557392  18.4274538  61.2848623  39.4500375
  82.8960640  72.6938159  29.0492678  83.6263305  73.2288296  28.7382936
  82.9009491  72.8108264  29.9992752  40.0459480  11.1568189  39.5705652
  40.1444244  11.6626537  40.3772020  39.4527888  11.6795337  39.0309715
  74.5315614  25.6766468  68.2662264  75.4145970  25.3077107  68.2851455
  74.3984475  25.9326547  67.3535528  38.4324861   9.0019095  45.7335758
  38.4818745   8.8303030  44.7931814  38.9421654   9.8025143  45.8580399
  12.1121033  73.5474647  29.3836141  12.7952011  72.9302300  29.1216350
  12.2562655  73.6808051  30.3204560  34.8298931  25.5462313  56.5287733
  34.9861383  25.6758285  55.5933475  35.6923175  25.6464052  56.9317913
  19.1273665  44.2626333  37.6012802  18.4670544  43.9590931  36.9783163
  18.6909676  44.2209101  38.4521890  69.1427531  45.2793040  51.4627223
  68.9877095  44.3657347  51.7026906  68.6675038  45.3947779  50.6398993
   4.3124994  47.8158767  32.8726745   3.8954051  47.5929434  33.7048793
   4.8876437  47.0736987  32.6866293  44.4387007  39.0916228  10.9375632
  44.9493217  38.7901783  10.1861477  43.6696529  39.5111132  10.5517769
  32.7798088  57.8874380   8.4096169  33.0362280  58.1180866   7.5167108
  33.5344418  57.4149258   8.7610286  50.4613447  26.7577052  59.0013552
  49.8993254  27.1750593  59.6541786  50.0115204  25.9409332  58.7850809
   8.8877632   2.8612465  23.0897975   9.6482803   3.4272787  23.2219028
   9.0896751   2.0688140  23.5873055  68.0795097   7.2235543  29.6228075
  68.3838701   7.0572382  28.7306547  67.1260405   7.2615719  29.5474172
  65.5358839  14.1692734  32.5065184  66.2263632  14.7716665  32.7832794
  65.8771038  13.7638032  31.7094016   2.2670635  80.6681909  17.1632195
   1.7388972  81.3322579  17.6062620   2.6306971  80.1387004  17.8728974
  43.0701971  29.0014315  11.3879812  43.5388947  29.4695973  10.6970584
  43.1844807  29.5463705  12.1665764  29.0471323  78.8950167  19.8534691
  29.0117606  78.0075381  20.2103496  29.1833313  79.4551917  20.6175947
  55.7775259  16.4225221  10.8621490  54.8417187  16.6213930  10.8929324
  56.0694265  16.7735195  10.0208259  34.6909976  15.6510818   2.5220752
  34.8182225  16.5088093   2.1166763  33.7417674  15.5673480   2.6125395
  42.2520208  19.6463728  33.6478591  43.1532478  19.4803596  33.9243746
  41.7865944  18.8342750  33.8481236  69.7920337  37.3220646  67.7087795
  70.1304402  36.4433717  67.5367009  70.2267375  37.5919681  68.5177409
  28.8555352  38.8752545  68.2638969  28.0529992  38.4428403  67.9720481
  29.1446034  39.3814086  67.5046318  46.0199943  35.9886812  70.3769087
  45.5417683  36.2990820  71.1457930  45.4141881  35.3863841  69.9450884
  10.7851156  61.0522158  54.7605658  10.0722416  61.5266235  54.3328047
  11.3881501  61.7366500  55.0506210  43.0960226   9.7571397   0.6893696
  42.4095488   9.7198927   0.0233390  43.4705448   8.8762826   0.6968310
  55.4879284  16.9090462  19.4740772  56.2356567  16.3224363  19.5881844
  54.7415400  16.3235867  19.3461168  33.2975825  67.3273952  40.3337097
  33.8413914  66.5581782  40.5034447  33.1985672  67.3453934  39.3818140
   5.4173805   8.5148662  16.5568519   5.0005676   9.3693584  16.4457858
   4.9857952   8.1355435  17.3224080  24.7460389   2.0076673  14.8081541
  25.5578136   1.9499406  15.3120625  24.4720578   2.9202971  14.8991096
  40.7537889   2.7523786  44.4190598  40.1660395   3.2314673  43.8348866
  41.2515593   3.4343651  44.8699999  49.5110273   8.5614818  13.5308182
  49.7836828   8.4490204  14.4414473  50.3268671   8.7121612  13.0533934
  24.4534453  78.4070308  60.1950932  23.5533913  78.7004055  60.3367281
  24.9322184  79.2041283  59.9678373  69.4989735  53.9511211  68.7579250
  69.3990249  54.2938430  69.6460629  70.3226763  54.3270571  68.4474182
   3.5484393  78.5148392  57.8633976   4.3232282  78.4749765  57.3027277
   3.8673147  78.8846875  58.6866617  45.5875929  69.8858947  11.9333017
  44.8235854  69.6103663  12.4398673  45.8046969  70.7516570  12.2790647
  71.9350711  24.8481681   7.2067399  71.6447012  24.0706291   6.7299313
  72.8281299  24.6408095   7.4818463  42.8935011  60.4220993  18.0223382
  42.0262917  60.1730950  17.7026868  42.8956946  61.3786967  17.9884374
  21.8932494  64.9199469  66.4047384  22.1118458  64.2985315  65.7102680
  22.4328335  65.6880529  66.2174034  30.7884224  53.4480197  37.0566463
  29.8500498  53.3117993  36.9257569  31.0448082  52.7671678  37.6786900
  86.5783674  78.8327656  37.1774411  86.1462480  78.8742677  36.3243413
  86.3877780  77.9518850  37.4998665  32.6560521  16.3729155  65.6559229
  31.7403722  16.5197480  65.4188585  33.0059028  15.8402073  64.9417400
  55.8735514  22.7378321  28.3858562  55.7155085  23.4379053  29.0192223
  55.5847883  21.9416428  28.8318729  13.3916243  69.4132943  48.1833315
  13.6486634  70.1407690  47.6168108  13.0535277  69.8334534  48.9741468
  75.8425951   2.1595506  21.4256263  74.9063730   2.3459665  21.3550901
  76.0004902   1.4762193  20.7741976  10.3265556  65.2459092  36.7523932
  10.3083332  65.4464621  35.8166146   9.4819649  65.5549760  37.0800734
  11.0759544   2.5075325  56.6730738  10.4791999   1.8511882  57.0326948
  10.9026396   3.2961139  57.1872091   5.5097024  52.7711266  55.8876150
   5.3091447  53.5166221  56.4535170   6.3591019  52.9850905  55.5016487
  78.8561835   2.7427917  66.1710411  79.6713509   3.1845408  66.4089229
  78.1714406   3.3828693  66.3651060  60.7602933  72.0339627  40.4853630
  60.2364271  72.4380083  39.7935963  61.3273320  71.4147598  40.0257015
  84.2221846  58.8957792  65.9149756  84.7148433  58.1088512  66.1479249
  84.6801724  59.6066170  66.3635182  18.0697572  37.3611069  30.7663321
  17.2810626  37.3533177  31.3086724  18.1172740  36.4780474  30.4000258
  10.7377013  72.6322115  14.5885456  10.8372458  72.6494224  15.5403996
  11.0281523  73.4979863  14.3016589  81.1456871  15.3129125  28.7767529
  80.7450771  14.6374083  29.3239594  81.4643955  15.9670639  29.3986392
  78.1469297  28.6259508  59.1392851  78.8434172  28.8260055  58.5138893
  77.6604033  27.9079318  58.7343502  15.0733240  63.0149193  35.7289362
  14.9485358  63.9466662  35.9092307  15.1940878  62.6181097  36.5915990
  45.5422020  12.0971620  32.0976210  45.7876348  13.0065417  31.9272518
  44.8219299  12.1570230  32.7252007  33.4643841  43.3752823  14.7477710
  34.4048619  43.1975412  14.7359943  33.3941674  44.2719030  15.0754476
  50.7046652  14.7520912  22.6723528  50.3494501  15.6409121  22.6797795
  50.7338381  14.5135558  21.7458081  30.9788227  32.7398419  25.7569551
  31.3420081  33.0853343  26.5724087  31.4375043  31.9104576  25.6229186
   4.0210517  75.1132102  44.5338345   3.7137183  74.4250394  43.9437485
   4.7068056  75.5632038  44.0403986  12.6280363  48.7273104  49.2521524
  13.5406121  48.6977870  49.5394945  12.3699959  49.6417958  49.3677568
  42.0907553  63.1053228  18.5242033  42.8766974  63.5318560  18.8656700
  41.6953190  62.6850719  19.2879117  37.1286798  33.4272599  12.8813684
  37.6487255  33.5749650  12.0914519  36.4587355  34.1105437  12.8583074
  54.0032196  17.3869002  22.3607373  53.1884241  17.2875381  21.8683314
  54.6787405  17.4821842  21.6893005  45.0144911   7.8874379  46.0641479
  44.3389940   7.3522615  45.6475878  45.2161646   8.5642183  45.4179811
  70.7941961   1.6700043  13.6897254  70.6672239   1.0278883  12.9913008
  70.0714159   1.5099536  14.2965245  50.2121409  71.3802666  11.9365180
  50.8209618  70.6994433  12.2229588  49.4546898  71.2824197  12.5135148
   9.8610600  66.7706640  34.5742512  10.4591568  67.4985559  34.4048905
   9.4901307  66.5610487  33.7171006  61.6027632  19.3472128  63.8219839
  61.4506879  19.6842342  64.7048890  62.5556388  19.3313842  63.7324875
  37.4451423   8.8967943  42.6520824  37.8809810   8.1586272  42.2261906
  36.9569874   8.5022062  43.3747435  52.4670315  42.6684666  20.9347081
  52.1738243  42.7872324  20.0312948  52.2665024  41.7538261  21.1333227
   7.1548732  60.8596356  20.3223586   7.1753009  59.9737770  19.9603236
   7.7966412  60.8430726  21.0323524  54.2115134  71.3848026  31.7854309
  53.3607358  71.4403541  32.2205424  54.2882651  72.2082467  31.3034749
  26.9485021   7.3092222  42.7861738  27.6410437   6.6746044  42.6021147
  26.1754274   6.9540823  42.3474646  29.4547097  31.9800054  60.8761679
  30.0143258  31.6422366  61.5754347  29.0497033  31.2005144  60.4959147
  28.8758588   1.8772969  22.1507025  28.9780903   2.7304119  21.7288327
  29.7437811   1.6782010  22.5018501  12.1662629  15.5552113  17.9316914
  12.5076020  15.2463305  18.7709248  12.9461634  15.7764804  17.4227440
  59.6201237  63.0562515  12.8577197  59.5942696  62.2016902  12.4272680
  59.2098721  62.9077871  13.7097073  21.3458546  64.5470364  13.7960327
  21.5061005  63.6611528  14.1212451  20.4331644  64.5349223  13.5077941
  55.9607458  20.6511402  11.2216067  55.1205444  20.2343321  11.0303891
  55.9417820  21.4680815  10.7231271  10.6859239  70.7037289  39.5348310
  11.5322598  71.1247236  39.3841267  10.0645526  71.2271387  39.0286970
  33.4683394   9.2636871  54.3033266  33.7359977  10.0678635  53.8584805
  33.8780117   9.3197876  55.1666069  10.0218686  76.4902438  16.3101411
  10.9405907  76.3347972  16.5292788   9.9587997  77.4391634  16.2014878
  61.4963535  78.2536627  65.7701015  61.1683035  77.4114714  66.0852671
  62.3085976  78.3918316  66.2573385  27.8728175  64.6103430   4.0164229
  27.3799109  64.8504734   3.2318121  28.3127451  63.7931442   3.7821496
  39.6777844   1.0709669  23.0966401  38.7718105   0.8669750  22.8646231
  40.1105022   0.2185068  23.1445932  51.5756997  62.1290607  19.7620857
  52.0728215  61.3111455  19.7730458  51.7192658  62.5082357  20.6291771
  58.1712063  58.1294687  55.6049442  58.1166085  57.2163923  55.3229094
  59.0075882  58.1878955  56.0667658  41.9778585   3.0997348  27.6167512
  41.3453054   3.5612440  28.1673145  41.4651012   2.7916208  26.8695021
  21.4220818  75.3658480  23.8666153  21.4049776  76.3191457  23.9512491
  20.8250149  75.1789607  23.1421709  71.2653780  41.2318754  23.6342955
  70.8725452  40.3872728  23.4139299  70.8860064  41.4582109  24.4834590
   1.1824270   9.6525192  32.4010301   1.6969052   9.9304402  31.6432023
   1.8032920   9.1723973  32.9489732  77.9650265  76.6898246  57.9454708
  77.6717550  75.7896830  57.8041553  78.6863548  76.6114933  58.5697937
  65.8055401  13.5220540  52.6302719  66.0652685  12.8769410  53.2879972
  65.7745743  14.3513334  53.1073141  41.8336391  17.4468267  28.2019138
  42.1075392  18.3467913  28.3787632  41.0467815  17.5371838  27.6644015
  61.7002931  26.6984671  69.7187830  60.9571400  26.7544442  69.1180999
  62.4688258  26.8174606  69.1607236  53.4786518  40.3181560  58.7354612
  54.3823059  40.6061179  58.8648176  53.5579594  39.4632108  58.3123636
  57.4312210  10.2747953  49.8788881  57.4509716   9.9233687  48.9887524
  56.5691805  10.6836843  49.9558926  42.1852064   9.9844861  33.1004071
  41.3502026  10.3202677  32.7744484  41.9573927   9.5130783  33.9017224
  61.9329071  15.1512563  48.7791348  61.5508604  15.3089285  49.6425104
  61.2251663  15.3461146  48.1648350  11.2890299  78.7241469  40.0437784
  11.6139754  78.9774550  40.9077644  12.0717677  78.4553246  39.5628524
  56.8410492   9.5852429  35.5385137  56.1518669  10.2058589  35.7753587
  57.4622583   9.6282399  36.2654829   6.9258006  81.7298329  40.3868294
   7.2099241  81.7898320  39.4747424   7.2541078  80.8814515  40.6846523
  65.0809135  53.2077938  64.0450763  65.2444281  52.2677355  64.1211414
  64.9408688  53.3515828  63.1091576  10.8662403   3.7486863  42.9291677
  10.6322694   2.8697896  42.6307869  10.2562499   3.9290980  43.6444283
  80.0211889  59.4673831  39.1995621  80.8201105  59.6375425  38.7005591
  80.2525002  58.7445385  39.7828507  64.5127010  14.2088902  35.2314520
  64.7917461  13.9832723  34.3440628  65.0316143  14.9810576  35.4566598
   5.0449246  41.5003157  26.9962335   5.0291377  40.7003975  26.4707685
   5.4642254  42.1495867  26.4315510  79.3921787  78.2344783  43.2271194
  79.0781004  79.0670530  42.8744078  80.3461415  78.3016668  43.1862402
  65.1074696  27.0099473  12.0141613  65.1713705  26.2587786  11.4243364
  64.8021317  26.6390824  12.8420866  67.1355915   3.2908043   7.8960246
  67.1049786   2.5730968   8.5286313  66.9731569   2.8720975   7.0507246
  40.1254606   6.5548301  12.4460566  39.7745514   5.8834195  13.0311251
  41.0678720   6.3881856  12.4281991  60.7522535  27.0968127  42.2860527
  61.2788582  26.3451958  42.0140457  61.2185574  27.4552441  43.0412483
  42.6318550  21.9839215  53.4983206  42.1294928  21.3482189  54.0079784
  43.5352230  21.6715837  53.5493374  73.9009756  72.7425183  24.9788857
  74.1145176  73.1699056  24.1494441  72.9678625  72.9153068  25.1040888
  52.7759981  20.5495715  66.2724447  52.1009302  21.0704136  65.8374310
  52.5782537  19.6463323  66.0248804  17.9581602  79.0543477  29.3113685
  18.3020504  78.2617588  28.8993311  17.6434334  79.5868194  28.5808516
  46.0219383   2.7712300  43.4946823  46.7582560   2.9318383  42.9045343
  45.5129433   3.5814613  43.4686041   4.7970899  75.9498228  23.6629462
   5.3388222  76.1868853  22.9102445   5.3502067  75.3656531  24.1816354
  50.1014336  75.1242519  15.5437100  50.8638771  74.9257482  15.0001037
  49.4502934  75.4621113  14.9288106  80.9474087   5.5323213   2.4509402
  81.6612053   4.9700311   2.1500245  81.1439323   6.3905376   2.0753431
  57.3641634  31.0511541  14.8584819  57.5672245  31.8620253  15.3248405
  58.0770779  30.9528756  14.2273510  23.3921933   0.0341354  15.8311868
  22.5514483   0.4153888  16.0842216  23.8351011   0.7309309  15.3468931
  42.0170259  42.5724220  18.8782597  42.7983761  42.2471952  18.4311044
  41.3063240  42.4292278  18.2532525  64.5523062  43.5567810  65.2607702
  63.8038030  43.1046400  65.6500583  64.1675463  44.1297101  64.5974868
  75.8037013  67.6831693  28.3712029  76.1909050  67.1729643  29.0825367
  75.8728248  68.5921128  28.6632204  22.8044470  55.3748567  19.9659073
  22.8835400  54.7236736  19.2688179  23.2627352  54.9854190  20.7105827
  45.6937265  16.4084518  45.4934645  45.2226257  16.3691354  44.6611452
  46.2263107  17.2012722  45.4300117  74.3954057  11.7227576  49.9158602
  74.3084902  12.1281455  50.7786112  73.9327365  12.3164867  49.3245392
  37.1759892   3.9090812  48.5303831  37.1362162   4.2512992  47.6373339
  37.3836994   4.6718141  49.0701294  82.0318753  54.2155440  39.8873305
  82.2412807  54.2338736  40.8211660  82.8628475  54.0088732  39.4595432
  17.3707358  17.1969634  64.6303784  16.8066327  17.9529434  64.7932260
  16.8304364  16.6027146  64.1096299  27.4893212   1.7770791  32.0611072
  27.6405334   2.3022711  31.2752700  28.3335662   1.3621031  32.2379613
  58.0477953   5.5057305  17.7175307  57.4974966   5.2292657  16.9847476
  58.8894367   5.7226413  17.3165107  34.0330362  15.8025289  34.2985463
  34.5847845  15.0464654  34.4989800  33.1387162  15.4884839  34.4319701
  25.9207153  42.0129108  18.6650121  26.5916038  42.3978567  18.1011355
  25.5225444  41.3267374  18.1294203  72.1490773  54.9322159  68.3194160
  72.8576287  54.2887599  68.3316851  72.5947960  55.7787091  68.2874823
  28.5695561  53.0552203   5.6152934  28.2690295  53.3570010   4.7580624
  28.2079609  52.1728976   5.6988865  26.3648558   8.3558095  54.5865965
  26.8984556   7.8893065  53.9432621  26.4200068   7.8195542  55.3775549
  68.3646884  40.4625296  67.0535969  68.8594332  40.3612981  67.8667455
  68.9157643  40.0547120  66.3855915  73.5008383  36.9373727   3.1265467
  72.5663137  37.1385741   3.0773672  73.8674831  37.6339841   3.6710972
  28.0920045  47.3763310  67.2506823  27.3249261  47.7755582  66.8402617
  28.7801186  48.0361765  67.1650463  33.3440995  16.3013613  69.9139214
  33.4653068  16.8644500  69.1494131  34.2032242  15.9045625  70.0577497
  32.4894977  21.9977093  39.6188068  31.5831590  22.1460581  39.3490458
  32.5035667  22.2276759  40.5478668  68.8850021  39.1022825  51.1871433
  69.2596531  39.9752617  51.0697556  67.9797411  39.1879654  50.8881521
  23.3765992  64.7139675  29.1704297  22.9084738  65.3898806  29.6605635
  23.0912979  63.8903410  29.5659947  85.7888300  48.4817869  59.4082642
  86.6436440  48.2886250  59.7932482  85.6773955  47.8183658  58.7273169
  68.2874497  67.1660025  35.3630185  67.6871689  67.8198595  35.0047469
  67.8320511  66.8171472  36.1292744  43.2768448  74.0167422  24.0238237
  42.5127085  73.8604415  24.5787120  43.3479937  74.9701549  23.9772010
  86.3750512  69.9581415  45.8926487  86.1783821  70.3476639  45.0406981
  87.1219975  70.4600603  46.2188053  34.9051404  14.7334003  55.8897495
  34.2791104  15.1245058  56.4991379  35.2361298  13.9615154  56.3489580
   1.6375605  51.7666607  60.9659492   1.9744889  52.1360748  60.1497119
   2.3246543  51.1684649  61.2597113  59.2716503   4.3694299  10.4247260
  59.8198271   3.5881740  10.3514373  58.7815857   4.3961141   9.6029246
  53.9221478   8.8522893  29.7528028  53.2962751   8.2461929  30.1492357
  53.5197830   9.1019374  28.9209318  67.7643585  22.8705239  40.7010221
  67.2502470  22.0981908  40.4655981  67.5068140  23.0640459  41.6023827
  63.4456929  72.6431269  30.7188725  63.3223828  73.0598618  31.5717268
  64.3305310  72.2798831  30.7554865  78.9624739  47.1100616  30.4049516
  79.2919636  47.7585602  29.7827601  79.3772554  46.2897253  30.1380587
  72.0992517   8.3042014  31.2800813  72.3527431   7.9524589  30.4267049
  72.7034760   9.0316302  31.4283824  79.2567587  35.2906370  23.0754972
  79.6290541  34.4693565  23.3966351  79.2182636  35.1808286  22.1253967
  49.4492674  12.9857934  44.6840334  48.6130285  13.2997179  45.0281048
  49.2465305  12.6870847  43.7975216  81.8763525  63.4336991  14.4081092
  81.6348487  62.5443513  14.1493261  81.0916955  63.7811739  14.8321438
  71.5106821  25.6331444  44.6393204  72.2040319  25.6640267  45.2985239
  71.8533611  26.1456418  43.9070988  70.8983755   4.0824357  69.0622139
  71.1509323   4.6469018  68.3315802  70.9484816   3.1947821  68.7075424
  80.7264614  58.1978989  20.8185554  80.0413322  57.6815033  21.2430120
  81.5118885  57.6549006  20.8855891  76.3038397   5.7354999  40.1412821
  76.7444181   5.6085521  39.3010402  76.9911671   6.0539883  40.7264137
  12.8313591  34.6992159  24.1076422  12.5765755  35.0032568  24.9787784
  12.0057155  34.4602489  23.6863971  29.1019869  48.5673952  21.2282658
  29.8177862  48.7914658  20.6335807  29.5034885  47.9937267  21.8809032
  48.0399275  59.9787998  29.6480680  47.9970026  59.6277142  28.7586141
  47.2676659  60.5395174  29.7217655  65.5301619   1.8361616  24.7344351
  66.2919188   1.3288498  24.4540977  64.7783756   1.3166346  24.4495773
  73.3541918  54.7365475  58.1895733  73.5236549  53.8372374  58.4702110
  72.8139687  54.6447611  57.4047327  85.8668613  47.7327251  28.3814454
  85.0473785  47.2677088  28.5500932  86.0752010  47.5279903  27.4699044
  12.4596651  74.9126686   9.5916194  12.9795035  75.6598038   9.2953318
  11.8011673  75.2942092  10.1721704  50.5189896   8.7718105  17.8521872
  49.5785379   8.6351782  17.7376842  50.9095240   8.4387755  17.0442247
  69.1498661  21.1454916  43.4683704  69.9982834  20.8212328  43.1662464
  68.6865902  20.3626823  43.7663937  67.0911598  24.4957209  24.4646764
  66.3499546  23.8976169  24.5601416  66.8134308  25.2947211  24.9126697
  45.5005836  47.9034519  21.9911981  44.6899462  47.4777412  22.2702503
  45.8237410  48.3424091  22.7780390  57.5583649  14.9737823  48.1258059
  58.0566883  14.6168280  48.8609838  57.2338629  14.2032254  47.6597881
  79.6009350  53.1531906   5.2724260  80.2184200  53.1968069   6.0025185
  79.0366840  53.9174128   5.3899741  70.8484936  38.2044888  60.0641441
  71.2385511  37.5340748  59.5032215  71.4291048  38.9600778  59.9735308
  25.7310867  15.1386034  23.0298877  25.5888796  15.7702041  23.7349343
  26.5893269  15.3672564  22.6729894  53.8216591  70.9347343  35.5265808
  54.1882801  70.5331707  34.7388172  53.5163212  71.7945433  35.2372169
   1.2811581  71.7462211  63.6655318   0.6450764  71.9842582  64.3400472
   1.8312661  72.5237112  63.5700303  51.0106762  58.1701166   7.7030969
  50.5343970  58.9496000   7.9891002  50.4156741  57.7370221   7.0910221
  66.4871168  28.6980033  32.0208406  67.3651552  28.9900231  31.7758894
  66.6220284  28.1638598  32.8036046  70.3330088   6.5738744  27.8537631
  71.1866713   6.6487336  28.2802439  70.2129173   7.4130660  27.4092793
  45.9283551  58.9361102  10.9052408  45.8335265  58.0764611  11.3154137
  45.6418761  59.5549185  11.5769839  55.6309319  24.9777102  38.5380507
  54.9171400  25.3468585  39.0581107  55.4608679  25.2831650  37.6469803
  78.9762592  19.2038870  16.6812408  79.8342705  19.6181011  16.7732859
  78.8644361  19.0918124  15.7372248  71.7428398  18.7358844  37.6773381
  71.1344624  18.0073547  37.8012490  72.4485445  18.5674572  38.3017206
  50.8882999  11.9926989  23.2749581  50.7480669  12.9124451  23.0499339
  50.0416040  11.5754628  23.1160522  63.6038065  13.3000612  50.5692005
  64.1447687  13.8473809  49.9999619  64.0550709  13.3130133  51.4132547
  30.3589447  75.2785910  38.3247113  29.6670493  74.6545238  38.1055045
  29.9152192  75.9610111  38.8283372  66.0237885  39.0514398  10.8519542
  66.4995432  38.3357692  11.2735057  65.7715845  38.7009358   9.9976867
  59.8568678  23.4034705   6.3574284  59.9086809  23.2674742   7.3035008
  60.7690144  23.4672570   6.0743123  51.1499699   9.6721147  66.2474044
  50.6375178  10.3718208  65.8423840  51.6608914  10.1119779  66.9269007
  28.5283287  75.3483916  24.0345430  28.3387001  74.4113917  24.0825391
  27.9512890  75.7433302  24.6882081  35.4509234  61.4667606  35.9786057
  36.2285233  61.3520765  36.5248823  35.2485061  62.4000931  36.0430050
  18.7922104  64.8650427  26.2742615  19.2787226  65.6828255  26.3780165
  18.8603075  64.4359715  27.1271944  59.5074940  13.2253742  13.4531999
  60.1199675  12.5899792  13.0825520  59.4928551  13.9420879  12.8188980
  47.2222614  20.1738000  66.9965506  46.3870955  19.9048185  67.3791409
  47.8834295  19.7371769  67.5336266  59.3757447  76.8000541  12.2476971
  59.8459442  76.9730071  11.4320815  59.9049958  77.2233591  12.9236662
  61.8542805  50.2827238  68.9612395  62.0214929  49.6576392  69.6666057
  62.0592585  51.1359137  69.3437078  59.2954779  34.1526914  22.7984881
  58.8748884  34.8700142  23.2726026  58.7469959  33.3900428  22.9822397
  60.9713793  26.6257000  34.3820286  60.6559849  27.5293088  34.3977642
  61.9247293  26.7052984  34.3500185  55.1365765  77.6916126  35.0682831
  55.8252629  78.2790563  34.7570586  55.2190121  77.7098451  36.0217524
  86.4564896  27.0390916   4.8161680  85.5388355  27.0070291   4.5457664
  86.4226627  27.1161222   5.7696635   4.1966678  63.6940956  23.8637280
   4.4208767  62.7661562  23.7937593   4.2553665  63.8847542  24.7999120
  68.4094477  27.1182728  42.5111914  68.3800602  26.7202091  41.6411829
  68.9105320  27.9246092  42.3888540  60.8145618  27.9309320   1.0231942
  60.1242495  27.7860451   1.6702706  61.1655521  27.0578408   0.8478383
  70.2661180  29.5180345  37.4676371  70.6384277  28.8267732  36.9201159
  69.8986149  30.1451015  36.8447733  74.5610094  19.0098393   6.4386624
  74.8293257  18.7422979   5.5596519  73.6337137  19.2298484   6.3494617
  65.2987766  61.0987377   5.0892168  65.3860569  62.0490742   5.0152212
  66.1904144  60.7673073   4.9825954  71.0673285  13.5836923  35.1778889
  70.1368618  13.4070051  35.3166175  71.0933208  14.1247010  34.3886709
  42.5220164  75.1051534  17.3938370  41.6381224  74.7801978  17.5652087
  42.3923214  76.0041077  17.0916915  61.2449177  55.8954150  40.8991098
  61.3500794  55.5048187  40.0315809  60.3497990  56.2344868  40.9022093
  68.2766914  27.9794359  38.7359810  69.0328932  28.3080864  38.2497954
  68.6350965  27.2973728  39.3039298  62.6462317  11.6451204  63.7064934
  62.5717878  11.8528986  62.7750874  62.8340626  12.4852240  64.1250372
  56.1845064  27.4973869  66.7656374  56.5039539  28.3943820  66.6677189
  56.5318012  27.2103095  67.6101494  79.1336727  25.8706594  36.7380285
  80.0886822  25.9280705  36.7082977  78.9500284  24.9312425  36.7361641
   4.6471645  16.2582457  22.1138954   5.1642086  15.5701685  21.6950345
   5.2521374  16.9953370  22.1971774  61.7707682  33.0835891  24.2163038
  61.8414974  32.2209072  24.6249723  60.8855343  33.1045508  23.8527679
  78.3678102  14.6542883  17.3417723  78.1406641  15.1328576  18.1390226
  79.1918373  14.2152190  17.5525475  52.0270586   3.5802239  20.3830695
  52.5778103   4.3547410  20.4972196  52.2511578   3.2532755  19.5117974
  82.9775055  79.9670730  34.7440529  83.1655892  80.0183601  33.8069153
  83.6628445  80.4939475  35.1550746  34.8006495  70.3462751  56.0964012
  34.3048771  70.7107813  56.8295956  34.3337448  69.5426256  55.8675337
  54.3967676  28.9246917  11.4110518  53.6476374  29.4998336  11.5667832
  55.1591921  29.4982648  11.4881861  73.8869429  18.7620223  29.1842484
  73.8120699  18.6594307  28.2355118  73.9652872  17.8677309  29.5164180
  42.1401890  77.1781258  58.9197063  42.2271355  77.9320277  59.5030642
  42.5568446  76.4587880  59.3942404  47.9032993  33.6441660  13.0647695
  47.9549742  34.1365409  12.2455454  47.4169350  32.8516507  12.8376162
  58.0999041  37.6916814   4.6465892  58.5954809  38.5098314   4.6109748
  58.5814381  37.0948458   4.0737531  54.3949080   3.3698371  41.9446564
  54.7261333   3.9670309  42.6153898  54.3328619   2.5233400  42.3871803
  65.2849627  35.8237767  11.0171902  65.0066471  35.9281301  11.9270694
  64.4871712  35.5767059  10.5495250  36.1495551  70.2993579  38.8469744
  35.9246405  69.6694095  38.1622767  35.4535778  70.9552879  38.8069510
  26.0468491  63.2007630  26.3117671  25.7484635  62.4629361  25.7799673
  26.0930355  63.9345605  25.6988716  63.2020998  42.1633959  14.2534721
  63.4334564  43.0915356  14.2890036  63.6739397  41.7706537  14.9878776
  50.4752596  81.1485257  20.3627825  50.0711926  82.0053227  20.2254462
  49.7392853  80.5367681  20.3809142  52.2216415  30.2782702  29.1120839
  52.9174471  30.8745623  29.3887115  51.6873789  30.1533508  29.8964262
  42.5118693  75.1832731  35.8266187  42.7739199  74.3119974  35.5292296
  43.0511578  75.7841117  35.3124261  56.2740564  19.6595049  34.6691275
  56.3905382  20.6065536  34.7450352  55.5634594  19.4560766  35.2773237
  50.3675842   8.4153223  10.4447830  50.2625704   9.3070519  10.7764792
  49.6590281   8.3110070   9.8097247  49.6203383  73.4867645  24.1760778
  48.6838683  73.6823989  24.1447020  49.6930369  72.7625699  24.7977614
  37.5901898  74.1255010  15.9604418  37.5602349  74.9094839  15.4120743
  36.8498810  73.5966797  15.6629169  12.5787695  80.6170000  31.5703201
  13.4640988  80.9363281  31.3958311  12.7094658  79.7951452  32.0432949
  68.3166647  22.4038935  18.3950579  68.0129910  23.3062410  18.2961309
  68.7918663  22.2208881  17.5845504  24.1530999  72.3869313  48.7868357
  24.8963173  72.7293522  49.2834377  23.7428292  71.7536945  49.3758345
  33.2073506  77.7078811  22.7915478  33.4132536  77.0605079  23.4658933
  32.4274882  77.3619066  22.3575568  76.8473291  20.8502483  17.3933256
  76.3917780  20.2165580  16.8391204  77.7760172  20.6587505  17.2625875
  53.7586498  26.2262511  11.3230920  54.1422367  27.0864415  11.1523163
  54.1894484  25.9265494  12.1236062  82.5719261  22.2647715  33.3529282
  83.0230618  22.1094298  32.5231242  83.0693626  21.7577434  33.9945722
   9.5526649  21.1133599  45.8910275   9.5523502  22.0527935  46.0745955
   8.8266708  20.9885144  45.2798128  51.0010624  27.8065658  11.9297421
  51.1162949  28.7372470  11.7379558  51.6277981  27.3645926  11.3569450
  68.4300232  25.5539274  44.8217297  69.3470240  25.6382895  45.0829172
  68.3821630  25.9902096  43.9710808  56.5945196  10.8336210  60.2770233
  55.9248400  10.1518619  60.2225685  56.4999866  11.3277984  59.4627237
  43.9000559  33.8821912  46.7549658  44.0033531  33.2452512  46.0479498
  43.3554125  34.5728850  46.3774204  57.3999023  44.8652363  16.4877725
  57.2857046  45.8155870  16.4833343  58.3227444  44.7338724  16.2701929
  65.6705379  23.7593341  54.8622704  66.2929773  23.6380506  54.1452694
  65.3936481  22.8722453  55.0917006  67.2933960  14.3142319  39.2140198
  68.1265831  14.7503209  39.3925166  67.1905279  14.3738163  38.2642317
  42.2939444  74.5536757   8.2278299  41.4588785  74.8720217   8.5707003
  42.0628166  73.7786150   7.7158844  78.8265228   3.2787514  46.4677858
  79.2859316   2.4722895  46.2337017  79.2726994   3.5884196  47.2559881
  58.1818676  28.9208245  47.5937462  59.1223383  28.7807846  47.7039289
  58.1037283  29.3716168  46.7529631  41.2030419  78.0054534   5.3046095
  40.7467659  77.2157116   5.5950451  41.7530449  77.7110056   4.5786408
  78.9581108  52.2100258  18.7498510  78.7169456  51.7451668  17.9486156
  78.3225775  51.9115686  19.4004309  59.4192696  11.8769228  41.2353182
  59.9646807  12.4667144  40.7148361  59.9500561  11.0868526  41.3367319
  73.0128813  38.5246444  14.6573091  73.4276819  39.2486739  15.1263022
  72.1393585  38.8496828  14.4392645  44.0482386  48.7218482  31.3319588
  44.7541817  48.6438615  31.9736719  44.4297036  49.2312629  30.6169653
  57.9960442  27.0880389  51.2018919  58.1620932  27.0640779  50.2595091
  58.1310511  26.1858749  51.4918995  64.4363793  80.9634498  24.6655655
  63.7237366  81.1230892  24.0467858  64.0506848  80.3974898  25.3342628
  14.2902328  49.2114305  30.1120377  13.4957649  48.6849117  30.2005577
  14.9962665  48.6284161  30.3910398  13.9523045  67.2263365  68.3775447
  13.7331406  66.9332986  67.4930509  14.7302977  67.7721124  68.2631534
  23.5288151  72.8300531  21.4434075  24.0222844  73.3145894  22.1051812
  22.8937920  73.4625615  21.1073899  65.0719309  25.3451109  43.3127165
  65.9214449  25.1439118  43.7052488  64.5108318  25.5658650  44.0561295
  50.5890187  79.7164852  39.7848201  49.9100884  79.1729465  39.3850040
  50.1064499  80.4090815  40.2361202  47.4314547  25.0315309  19.4651437
  46.9395924  24.8715544  20.2705693  46.9459629  24.5576572  18.7898886
  24.3156489  77.2521500  37.2262335  23.7500962  76.7442421  37.8079653
  24.4014653  78.1022365  37.6577663  69.2901292  54.7107130  50.5138951
  68.6189308  54.9681895  51.1459010  69.2523732  55.3855603  49.8361140
  83.8988400  13.1765580  20.1546669  84.3949413  12.6001847  20.7359672
  83.3982277  12.5810254  19.5970285  66.3030958   4.4485202  30.7429290
  65.5902433   3.9498451  31.1421800  65.9090042   5.2912390  30.5176473
   2.2116615  15.7253957  13.9229691   2.8806259  15.0436199  13.9853990
   2.0133259  15.9502971  14.8319876  63.2742167  24.3793678  22.2354102
  62.9216576  23.5150409  22.0235801  62.7203655  24.9898052  21.7487431
  62.0096540  10.8898377  26.0486841  61.1266041  11.0905540  26.3587856
  62.4090338  11.7456448  25.8927226  60.9242725  21.9841242  50.3142595
  61.5853310  21.7268038  50.9569263  61.4289188  22.3066759  49.5675850
  84.8662090  48.0754900  35.9660125  85.1963615  48.6389017  36.6658735
  84.0067959  48.4384060  35.7516909  50.7002354  36.4839554  13.9919901
  50.4967690  36.1180711  13.1311977  51.4052296  37.1097064  13.8257098
  65.8506489   7.4363858  39.0400147  65.8271265   8.1533170  38.4062266
  65.2184391   6.8002224  38.7055922  66.6401339   3.4845066  44.3396473
  65.7984209   3.9173549  44.4824266  66.6781330   3.3406445  43.3940840
  33.9630749  21.9877553  33.9988542  34.4620659  21.3149023  34.4620061
  33.2256080  21.5155363  33.6123657  45.4250526  31.6986156   2.4256228
  45.3380394  30.8661461   2.8900096  44.6795893  31.7171431   1.8254755
  82.8120136  54.1960096  27.7787876  83.3336258  54.9376678  27.4720430
  83.1861782  53.9766502  28.6320829  69.0850449  44.4582939   7.2816491
  69.2504883  44.6092415   6.3510180  69.0238667  45.3356600   7.6594299
  81.8512344  26.7706275  19.6498966  81.4588356  27.0805907  20.4660940
  81.8270969  25.8162904  19.7198284  26.2318015  28.9082527  53.7943125
  25.7275248  29.0376616  54.5975494  26.0874414  27.9899049  53.5662174
  67.0975256  24.7706389  30.1683378  67.5375032  24.6291590  29.3301034
  67.6847363  25.3515720  30.6520057  72.4973726  25.0105667  30.1573849
  72.2368336  25.5241251  30.9219837  73.3771944  24.6975684  30.3675771
  65.8537006  36.7996597  21.3517690  66.5303040  36.5231633  21.9698191
  65.4799891  37.5892067  21.7431641  56.1780453  45.3799391  66.5610695
  56.7958498  45.5521345  67.2716331  55.6762981  44.6210146  66.8585873
  74.9847841  54.5208836  54.3631649  75.2298498  53.7077141  54.8046732
  74.1278267  54.7424030  54.7275639  49.3148621   5.6666969  59.8038094
  50.1254185   5.2871535  59.4644385  48.6328276   5.3377507  59.2182701
  53.6537933  26.0647440  63.3778000  53.5624981  26.9860840  63.1348419
  54.2439508  25.7004213  62.7180910   2.5446361   7.5944655  53.7804890
   1.7488235   7.4733298  53.2625675   2.6612085   8.5436290  53.8220406
  31.8711235   8.7361306  26.1980891  31.6531326   9.2734802  25.4365325
  32.2519543   7.9396737  25.8281469  12.3854591  55.0826883  39.6504736
  11.9707062  55.5934095  38.9552188  13.2913639  55.3914070  39.6665883
  59.5001078  63.0052328  29.6738172  59.8222351  63.8901758  29.5025349
  59.4464540  62.5983191  28.8090777  59.2134523  23.4682298  36.6365385
  58.4576035  23.0702114  37.0684052  59.3730688  24.2741179  37.1277618
  57.0590878  18.3243906  32.1740079  57.1633863  18.9991117  31.5031099
  57.1607304  18.7927663  33.0025768  19.0357965   8.4529536  35.6675458
  18.7999767   7.6184886  36.0728598  19.8869937   8.2898085  35.2612495
  60.0336170  36.5956497  49.1507339  59.8052359  36.6504812  48.2227993
  60.0153685  37.5027227  49.4558907  52.0551014  35.5991554  46.3678837
  52.7701378  35.0274825  46.0883331  51.2768126  35.0429201  46.3347626
   9.0757650  58.6202671   1.9894023   8.2179492  58.2750382   1.7420144
   9.6221775  58.4808792   1.2159485  65.9140444  37.0676947  61.9350863
  66.5158319  36.9921947  62.6756096  66.4720011  37.3132420  61.1970997
  49.5104504  41.6247892  50.6018257  49.0814734  42.4565125  50.4007196
  49.0724564  40.9869814  50.0382662  84.8833942  18.7691808  23.9624381
  83.9892578  19.0394509  24.1715288  85.4378986  19.3970048  24.4256783
  72.1922016  45.3524446  36.3593245  73.0643463  45.0789213  36.0751104
  72.0054245  44.8036194  37.1209931  76.3322878  26.8645644  47.4397707
  76.4725971  25.9254599  47.5607157  76.2148190  26.9695449  46.4956236
   9.0935757  21.7728090  24.9095893   8.6098434  21.0476303  24.5141792
   8.4301330  22.2714925  25.3864408  72.1575165  41.6041708  49.8316002
  72.6530790  42.4004316  50.0229692  71.4376116  41.6126919  50.4623938
   2.3857357   0.8894032  22.1398449   2.2299816  -0.0213359  22.3899031
   1.5142299   1.2393726  21.9548297  18.3093693  39.1634154  48.2954550
  17.5935127  38.5600257  48.0961943  18.9499809  39.0128946  47.6003408
  72.6903296  33.5605192   8.3267295  73.1321669  33.3778405   7.4974889
  72.1145916  32.8079271   8.4622300  74.9617958  19.0824664  16.4076471
  74.9811077  18.5107791  17.1751320  74.2627287  19.7093642  16.5934896
   1.7520286  27.7259040  13.3116126   2.3133232  27.3058009  12.6599252
   0.9042312  27.8144360  12.8761411  78.5649920  46.1031246  26.8465900
  78.9384460  46.0071564  25.9704852  77.6624966  45.7969856  26.7571044
  59.1780949  14.7361434   7.4394459  58.9682674  14.1305459   8.1504011
  60.0584126  15.0508916   7.6448917  69.1016102  30.1724672   8.6249745
  68.5258532  30.2385759   9.3867928  68.9477634  29.2913008   8.2842284
   6.3066532  44.1863871  47.4774027   6.3493587  45.0220203  47.0125103
   5.7357742  43.6404419  46.9367743  81.1213112  25.6966257  26.8584418
  81.1671162  25.8793545  25.9199619  81.9662762  25.9883094  27.2007656
   3.4033729   4.7881442  26.0654950   4.0810348   4.9941516  25.4216194
   2.5990059   4.7154996  25.5517459  51.7810257  19.9854634  58.0352347
  51.7047127  19.0328048  57.9818635  52.1340474  20.1488422  58.9098304
  59.7453833  26.2689853  60.5562162  58.7912273  26.3383126  60.5880404
  59.9329138  25.3908563  60.8878088  50.2586842  36.5905809  19.9125051
  50.1120663  37.5352716  19.8646379  51.1656237  36.5035272  20.2059555
  54.1972256  20.8653045  20.7103586  54.7314024  21.6481400  20.5759931
  54.0999269  20.8019161  21.6604877  68.4579476   4.8753331  52.1787267
  68.7994202   5.2204965  51.3538104  67.8414734   5.5424665  52.4806052
  51.7286634  15.1745212  49.8504353  52.5707722  15.5346859  49.5722961
  51.6246700  15.4776621  50.7523870   7.2111384  81.3844233  63.1737118
   8.0190722  81.8260603  63.4353011   6.9776742  80.8449488  63.9291554
  71.3268606  11.3220446  17.9587471  71.6589634  10.9854930  17.1264791
  71.5465538  12.2535937  17.9451776  52.9413748  27.7896357  32.3044038
  52.1147394  27.7465892  31.8237305  53.6154079  27.7150249  31.6288710
  79.5332527   0.6738376  32.2814155  79.4749737   0.4043499  31.3647842
  80.3740406   0.3271864  32.5799870  64.1610956  62.4051285  32.5423074
  63.6654854  61.8979073  33.1852126  64.2194033  61.8316031  31.7781711
  29.4531727  62.8944397  21.2880349  30.3322601  63.1468010  21.5704370
  29.5320940  62.7693462  20.3423309   4.8833134  63.5762691  46.3545704
   5.8218338  63.7446070  46.2705183   4.6012546  63.3450365  45.4695845
   4.1597702  43.7968302  21.8620300   3.3717968  44.1577291  22.2683287
   3.8566162  43.4391832  21.0275126  71.7000723  50.4331446   9.3149465
  71.5494347  51.3502359   9.0858495  72.0230579  50.4611921  10.2155709
  68.7517500  56.7801571  22.4108672  69.1388702  57.5307989  22.8613210
  68.2446766  57.1651649  21.6961122  24.4743770  76.8453576   1.4765353
  24.9878734  76.0903098   1.7636962  24.5651668  77.4807979   2.1866078
  67.0447874  40.3962994  39.7818470  67.3512936  41.1508846  40.2847290
  67.8416300  39.9102855  39.5695567  10.3399414  78.9131285   0.2423758
  10.6018775  79.8308636   0.3157372   9.6662515  78.8019707   0.9132094
  68.3190870  34.2671776  36.2681794  68.6836147  34.8689270  36.9172168
  68.7753153  34.4861531  35.4556894   6.8672706  13.6361206  18.5137963
   7.5669529  13.0732131  18.8451743   7.2144081  13.9938188  17.6966178
  30.6739767  14.8849414  69.7294003  31.4582833  15.4286884  69.8030988
  29.9624260  15.4484580  70.0333323  67.5152254  32.4816489  29.9185371
  67.9281235  31.6537881  30.1642871  66.5772104  32.2909832  29.9193573
  70.3051758  25.0472498  18.2484555  69.6879148  25.6597018  17.8482962
  69.7893953  24.5845890  18.9088714   0.5329277  41.3943624  59.5751047
   0.0933124  40.5990362  59.2743921   1.4446880  41.2800026  59.3070602
  76.3820887  30.2653551  41.8704176  76.8197680  29.4195080  41.9663954
  76.5019464  30.4938245  40.9486437  58.4841919  45.6669903  43.2113075
  58.0609465  44.9150133  42.7970362  59.3943930  45.3949499  43.3286095
  80.2659130  39.9897289  24.8476553  80.4106808  39.0539670  24.9877405
  80.9339714  40.2426958  24.2105222  75.2074051  43.6906481  56.7392349
  75.2595520  44.5036840  56.2367582  74.5134163  43.1888962  56.3116121
  73.4992981  66.7565870   1.2301048  73.5716248  67.3844671   1.9489732
  73.3194780  67.2947645   0.4592205  54.2210293   2.3019245  70.2381945
  55.0033760   2.0910253  69.7285986  54.0705156   1.5260011  70.7781219
  85.1840115  46.5128183  57.5501156  86.0460281  46.3442087  57.1696806
  85.0645542  45.8130455  58.1922007  66.7508841   3.6670840   3.9749449
  66.6709566   4.6142372   4.0878361  66.1396551   3.4576267   3.2687187
  84.7502804  60.6217146  34.8237634  85.3883648  60.3055716  34.1841221
  85.0438118  61.5074348  35.0372338  55.2451229  24.6860719  30.1997495
  56.1943769  24.7612023  30.2972388  54.9322271  24.4535470  31.0739684
  62.3427391  18.1505990  19.0514278  61.9982338  18.1206965  18.1588733
  61.7225361  17.6330900  19.5650089  78.4362125  35.4579687  26.7410851
  78.1884766  36.1032605  27.4032450  78.1874323  35.8608198  25.9091878
  73.8211727  16.3191485  30.3542304  73.3692265  15.5062771  30.5805421
  74.7180748  16.0480368  30.1585317  65.2344227  16.9785416  40.1811075
  64.9078798  16.7424607  41.0493660  65.9449339  17.5966728  40.3523493
  50.6208372  38.7372899  56.8072224  51.3480091  38.1619811  57.0448589
  49.8482847  38.1731391  56.8407154  66.5239334  54.3707323  44.8171568
  67.0353889  55.0876284  45.1922703  66.6403246  54.4627047  43.8715172
  71.7237949  31.3358307   4.9527112  70.8551645  31.7378020   4.9413928
  71.7026424  30.6996441   4.2378324  31.4868267  63.8324363   2.2631794
  30.8412608  63.3618576   2.7904654  31.1094387  63.8519222   1.3837308
  78.8727140  23.9576936  47.5948763  78.4920931  23.4250832  48.2932186
  79.2570400  24.7079897  48.0482912  72.6554728  36.5931082   8.9227295
  72.7884197  37.1148491   9.7141474  72.0569563  35.8966184   9.1927475
  56.6597565  35.5584739  58.9358585  56.6073140  35.7643674  58.0025380
  55.8991154  35.0014566  59.1013580  81.4724445  50.3884459  41.6297245
  80.7643986  49.7443151  41.6307926  81.9034863  50.2719641  42.4764061
  60.7498837  15.3221953  35.3889060  60.1142359  15.3078973  34.6733809
  60.2214479  15.4535282  36.1761379  54.8288441  51.2978125  59.0114260
  54.9641609  50.7758188  59.8022747  54.5830250  52.1642876  59.3354988
   2.6300281  81.4980151  19.9137110   1.7209142  81.4547278  20.2101512
   2.8993982  80.5830671  19.8328299  72.3905849  20.9678626  42.6552868
  72.1586084  21.8831849  42.8121471  73.3475399  20.9635735  42.6339817
  30.6656607  66.3717742  41.1821127  30.9989365  65.6324811  41.6906452
  31.4489516  66.8582971  40.9252405  42.2671700  14.3924797  57.1601725
  43.0654478  14.5836830  57.6525354  42.5717163  13.9253974  56.3821554
  60.2646160  14.6537483  23.3149791  60.6185532  14.3864214  22.4667478
  61.0370493  14.8122752  23.8576102   8.3358433  50.1047421  14.9344933
   7.4324657  49.8248482  14.7868633   8.4361317  50.8865881  14.3914568
   0.7268111  70.6005650  68.9041803   1.3639895  71.3109236  68.8291838
   0.8995358  70.0428133  68.1456881  67.2204971  22.4743152  56.9352579
  68.0821037  22.2543287  57.2894812  66.9835949  23.2923079  57.3722887
  52.0993376  20.2058601  16.9060946  52.6493454  20.8392572  16.4450824
  52.6743937  19.8294783  17.5723374  82.9522228  47.8476143  67.5469780
  83.0272865  48.4805107  68.2611513  82.1163082  48.0555391  67.1295547
  77.0457220   1.4650416   4.9453589  77.4030066   0.8613947   5.5966556
  76.1206865   1.5474604   5.1771957  77.8501749  57.2136164  28.1011915
  78.1314993  56.3040113  28.0026436  78.5337448  57.7240944  27.6671672
  22.5344674  81.4520340  51.0823493  21.6179053  81.2308102  51.2473100
  22.5033967  82.0769291  50.3579383  76.9247961  30.1996732  47.6075077
  77.6833296  30.1266599  48.1867552  77.2214174  29.8285937  46.7765141
  83.2552433  27.4819756  12.9564214  83.0038166  27.1442652  12.0967877
  82.7690887  28.3019543  13.0431724  11.1153938  52.1297026  36.2018347
  10.9152843  51.2344074  35.9286284  12.0152523  52.2739649  35.9091473
  10.2118937  35.7261341  54.9452346   9.7707192  36.4227479  54.4591039
  10.5165879  36.1499255  55.7476025  73.7300825  56.4039516  39.6835732
  73.3141327  56.6244459  38.8501477  74.2515659  55.6244326  39.4921541
   8.4054710  52.1832561  13.2059026   8.9338257  52.7129078  12.6087880
   7.6213028  51.9648886  12.7022910  80.0234062  79.4417604  53.5708380
  79.8766119  79.1782258  54.4792604  79.4830615  78.8415466  53.0570269
  61.6797733   8.4426749  18.2404602  61.1400270   8.4549230  19.0308762
  62.5378180   8.7513196  18.5315514  73.3980656   7.2212255  45.2561998
  73.3668661   7.7930582  46.0231829  72.6822281   7.5278127  44.6995926
  51.5750360  19.3622589  51.5562773  51.3776922  19.4404674  50.6229115
  51.2600470  18.4905910  51.7954636  40.6588173  34.9496198  58.7967730
  41.4782429  34.8379993  58.3147812  40.0969315  34.2419147  58.4810686
  51.0377940  25.3587602  63.8424586  50.6876477  25.7987426  64.6170824
  51.8714054  25.7979558  63.6738431  58.0294371  32.6585388  64.6610260
  57.7954578  33.3539271  65.2757740  57.2041655  32.2066045  64.4851971
  71.0592031  25.7333326  13.4323072  70.6775665  26.5129161  13.8358355
  71.8105984  25.5205774  13.9858198  58.9169359  11.8825603  61.2681437
  58.1213474  11.3887715  61.0695457  58.6940336  12.7898133  61.0597229
   4.3575813  55.5703592  14.4824028   4.8497822  55.1139307  13.8000226
   4.8339321  55.3786278  15.2902138  57.2970502  71.1692028  67.2512364
  56.7182175  71.6499215  67.8429254  57.2620503  70.2652126  67.5639798
  55.7293701  33.1215954  47.7522755  56.6455317  32.8522801  47.6863575
  55.3962517  32.6524305  48.5172319  76.9005966  29.2075658  55.3107214
  77.6087856  28.7196422  55.7310009  77.0698452  30.1211834  55.5407047
  26.8598572  69.2678099  62.7481418  27.5011937  69.4806629  62.0701956
  26.0676305  69.0352588  62.2638547  76.0796785  48.4056091  39.0331483
  76.9079256  48.1142282  39.4143748  76.2240887  49.3282795  38.8232517
  10.3815414  46.8484116  45.6114674  10.7912685  46.9361877  44.7508574
  10.9013607  46.1795187  46.0571146  76.8530273  36.4661527  47.0941591
  76.0730648  35.9651828  46.8555784  76.8569183  36.4618826  48.0513430
  78.7177896   2.3902176  27.4405575  79.2923498   2.8419670  28.0586457
  78.1892395   1.8080801  27.9864359  25.7428115  65.9483125   2.6304383
  24.9093955  65.8117844   3.0810065  26.1037200  66.7401530   3.0291409
  55.4286432  33.8506532  69.6076536  54.7804499  33.1466317  69.6282959
  55.7640362  33.8412142  68.7111902  77.9656553  25.5636334   5.5040938
  78.3719301  26.2506056   4.9756581  77.2744513  25.2086854   4.9450943
  55.7611322  21.5268755  44.9194050  54.8751259  21.2785482  45.1831532
  56.3273764  21.1375046  45.5857325  11.6920894  75.6360843   4.7702736
  12.4521678  75.2228286   5.1798291  11.8557542  75.5602481   3.8302273
  51.9424160  23.9268659  70.6049864  52.2428234  23.7248061  69.7188918
  51.8737896  23.0743764  71.0348495  77.4538517   7.4037772  16.7796624
  76.5765715   7.0656097  16.6000640  77.3536730   7.9151917  17.5825644
  70.0681162  26.5003276  47.8944397  70.4586267  27.1188092  47.2770119
  69.2028809  26.3127089  47.5305700  42.1875048  77.9651690  50.7913589
  41.2663031  77.9653311  51.0513926  42.6559830  78.2681274  51.5691614
  77.3999691  51.2421036  38.4420848  77.8019428  51.9696903  37.9674673
  77.0399189  51.6422367  39.2335939  21.6744758  81.4753151   3.8640162
  21.9731953  81.0427666   3.0640793  20.8971359  81.9650936   3.5954967
  43.7962246  72.5875092  35.6238103  44.1616631  71.9153547  35.0485754
  44.5385027  73.1555414  35.8301878  83.3943367  52.4644947  44.8033476
  82.4779129  52.7389288  44.8363733  83.6880493  52.5003624  45.7136631
  54.3161058  58.5938644  24.7840786  53.5134792  58.6324644  25.3042030
  55.0208759  58.7006092  25.4229355  24.2808296  22.7746344  53.0279636
  24.5168735  22.5340557  53.9238644  24.4043590  21.9705367  52.5235891
  54.9252041  24.6774028  61.2111913  55.6657418  25.2652047  61.3606315
  54.9168690  24.5386575  60.2641373  32.8308155  69.2478514  50.0789022
  33.3991958  68.8536978  49.4172192  32.5867702  68.5192823  50.6497431
  26.4251568  48.7256289  29.9320769  25.9816028  48.0960846  29.3635988
  27.1245338  49.0880919  29.3882775  13.6951401  47.0826483  27.7804470
  13.2028915  47.7915812  28.1943727  14.2331459  47.5186586  27.1196342
  11.9336750  20.6543660  33.1407166  10.9822513  20.6959486  33.2371330
  12.2733452  20.9794354  33.9744949   0.5885746  37.7519274  58.3499479
   0.9846451  37.1018124  57.7696800   0.5860473  38.5604072  57.8375196
  46.8345261  42.0952749   5.5662471  47.4514198  42.7160883   5.9538877
  47.1783352  41.9328499   4.6878126  72.9195690  49.7110701  15.0164664
  73.6312819  49.5708561  15.6409943  73.0207300  49.0069342  14.3760014
  39.4652130  76.9825506  10.6775284  38.9559509  76.3378477  10.1863730
  40.2709152  76.5224314  10.9128594  83.8875675  58.0152559  13.9021683
  84.4131947  57.3785400  13.4178638  84.3246841  58.8528824  13.7487268
  58.5577059  72.7345133   2.0177338  57.6541281  72.4410343   2.1345873
  58.4783173  73.6030865   1.6233851  59.2104387  48.8904667  40.8183241
  58.8895416  49.5092297  40.1622820  58.4427500  48.3680058  41.0505247
  55.3110935  79.0602684  28.5204792  54.9082901  79.2498922  27.6731181
  56.0385753  78.4734726  28.3139038  37.5841278  81.5886094   2.7505965
  37.8644031  80.7601382   3.1395859  38.2922786  82.1999671   2.9530568
   3.5301544  60.0913858  46.0072994   3.3860256  60.6304169  46.7850542
   2.6774170  59.6945620  45.8295202  72.6942205  47.9969501  35.4442668
  72.6800346  47.0564842  35.6218910  72.0321131  48.3616257  36.0315180
  48.7732752  24.1470550  68.4272867  48.7681397  23.5737918  67.6607513
  47.8613099  24.4195817  68.5286691  75.2405787  61.2634706  38.6632705
  75.1370859  60.3140068  38.5996890  76.1877060  61.4002419  38.6849976
  67.6412392  52.8479099  67.1072531  66.8985319  52.3825884  67.4920940
  68.0966377  53.2329559  67.8559732  77.8778219  60.4230928  25.2820897
  78.7773514  60.1469994  25.1064491  77.3948812  60.1831102  24.4912624
  64.8695660  71.4306545  21.3559079  64.3264294  70.6768322  21.5861082
  65.6634378  71.0485363  20.9817696  70.5671740  61.4293194  36.7055774
  71.3756084  60.9179020  36.7390895  70.7671070  62.1549034  36.1141515
  76.5841103  29.9217129   4.4696259  76.6098976  30.8779311   4.5044178
  75.8893728  29.6784306   5.0814974  77.6575994  49.1472101  48.4980917
  77.6512957  48.4773874  49.1818523  77.4273062  48.6749125  47.6980066
  76.1303242  13.3216785  69.5997902  76.5865239  14.1470311  69.4357756
  76.6134747  12.6747010  69.0857702  18.8375141  59.7886848  47.4594593
  19.6434166  59.7497463  47.9744625  18.4680893  60.6492424  47.6574469
   2.9775860  21.8002701  23.5949969   2.7728893  21.9260097  22.6684332
   3.9308884  21.7178512  23.6206365  11.4981701  41.6694736  33.2432699
  10.7406475  41.2691021  33.6699915  11.2688591  42.5957489  33.1680131
   8.8444664  45.8143759  34.8506546   9.4612457  46.3933372  35.2985525
   7.9817821  46.1236668  35.1269603  28.7650913   8.4987395  32.4955273
  27.8226226   8.5896628  32.3550725  28.8872379   8.6823027  33.4269857
  50.7625532  24.1259909  43.1441975  51.5878201  23.6969709  42.9181242
  51.0222816  24.8842311  43.6674976  79.0045404  41.3735628  60.6165934
  78.6489916  42.1635342  61.0237265  78.3288717  40.7092762  60.7523489
  54.3809700  76.5702105  22.9267168  53.6460257  75.9864569  23.1146622
  54.3674183  76.6736650  21.9752216  59.3242741  21.7334414  18.5533810
  58.4594345  21.3396883  18.4382844  59.8813963  21.2761235  17.9235339
  63.6359549  36.8680382  57.9797316  63.0008221  36.1604548  58.0899906
  63.7289143  37.2449398  58.8546848  80.2451801  57.6857424  65.0289392
  80.8363056  57.9403019  65.7374620  80.8208275  57.3243332  64.3549585
  24.2915672   2.9170459   8.9979255  25.1491493   2.6132243   9.2953825
  23.7694400   2.1188586   8.9172429  67.1308184  53.2331133  52.2701406
  66.6492367  52.5075960  52.6675463  68.0109215  53.1679535  52.6408195
  80.3962898  50.3007174  64.8627663  81.0426426  50.9794331  64.6683311
  79.5620489  50.7684612  64.9013805  43.7101970  55.0287838  25.4686160
  42.7760301  54.8237724  25.5077548  43.9017902  55.0954170  24.5331568
   3.8797619  32.0832229  44.0487385   3.1741382  31.4441323  43.9492559
   3.7744953  32.6742291  43.3031797   8.9087623  12.0130580  46.7188883
   8.4314817  11.4470999  47.3256207   8.2280439  12.5288718  46.2866974
  32.1899517   7.8460000  68.1250935  32.1195563   7.1777271  68.8067710
  31.6705998   8.5795758  68.4542929  76.8341732  43.6950827  49.8512173
  77.7716637  43.6967468  49.6579885  76.7746019  43.3597517  50.7457781
   0.6475689  52.9930115  12.8315151   0.7220127  52.6758337  11.9314659
   1.4369919  52.6694822  13.2655382  14.4674064  52.3706007   0.4557610
  15.1521828  51.8879366  -0.0072122  14.1505291  51.7587328   1.1201712
  84.3062687  45.2278090  35.2745056  84.5580959  46.1252117  35.4924202
  83.4978771  45.3215456  34.7705793  28.9338161  57.6805353   4.7636324
  28.9689876  58.2330656   3.9827976  28.0274155  57.7476645   5.0639117
   1.2812950  46.3701010  15.3796780   0.6396438  46.6775417  14.7393692
   1.0540249  46.8314505  16.1869824   9.7933723  58.9600563  20.0282884
   9.7164299  58.0261469  20.2235413   9.2867138  59.3911695  20.7165289
  76.5005875  62.9888821  25.8873963  77.0421171  62.9563761  25.0987792
  76.7548370  62.2115517  26.3847375  80.9550190  32.1457434  30.4970956
  80.4137897  32.3015761  29.7231340  80.8972740  31.2015843  30.6435943
  66.5380955  81.3334942   5.6402117  67.4224138  81.1958122   5.9797090
  66.0590601  81.7240810   6.3710999   4.3235542  67.9754734  16.7867529
   4.1726734  68.2855034  17.6796961   3.9265491  68.6455202  16.2302840
   2.4244644  34.4479799  54.7557449   2.6377537  33.6173773  54.3304920
   2.9439117  35.0989556  54.2839003  58.7897404  53.3252929  66.4357042
  59.7388466  53.4438728  66.4726766  58.4428414  54.2082523  66.3081285
  64.0171671  77.4703646  33.2467365  63.3964872  77.8295803  32.6127410
  64.6652889  77.0104218  32.7132368  69.6145248  53.2601452  33.0043054
  70.3995657  53.5639477  33.4599829  69.5845175  53.7839127  32.2036815
  68.0577803  37.5549412  60.0037050  67.6743841  38.4306574  60.0522661
  68.9750147  37.7073264  59.7763491  76.3472366  33.6931276  60.8726597
  76.3567829  33.3813405  61.7776060  75.4397297  33.5801840  60.5899811
   3.6091949  26.0825276  27.6810312   3.6476089  25.4327273  26.9792366
   3.0377342  26.7703366  27.3395729  63.0957556  52.7523088  36.9859195
  62.7024698  52.9573727  36.1376834  62.8155518  53.4661961  37.5587010
  38.6207344  23.9864063  21.6159129  38.0044796  24.6598244  21.3278604
  38.1881096  23.1593251  21.4037704  11.6590937  44.7010062  56.5932541
  11.7590388  45.3586314  55.9049468  12.5437220  44.5784686  56.9377046
   5.1106026  49.0738535  12.7146208   4.2143299  49.2478895  13.0021143
   5.0807335  48.1842375  12.3625958  46.6256380  51.7118359   7.5694638
  45.9718990  51.0305882   7.7268237  46.4956188  52.3377085   8.2819337
  57.3040628  28.3721304  30.8631301  57.5833225  28.8807774  31.6243935
  58.1182098  28.1518030  30.4105258   1.4461948  40.6720543  28.6199236
   1.6108372  41.5744066  28.3462620   0.6720878  40.4083586  28.1224799
  17.5543350  13.8721221  55.2552843  17.2446722  13.0813163  54.8137236
  17.4682945  13.6749308  56.1879921  76.2828350  26.9711947  18.9136529
  77.0263147  26.4264154  19.1718912  76.5036583  27.8455281  19.2345989
  83.3171558  35.4684234  22.8950357  83.2881260  34.8126459  23.5917044
  82.8101254  35.0819468  22.1810389  60.9594727  47.0806932  47.5478792
  61.7386484  47.6339245  47.4926186  60.9224510  46.8100691  48.4652805
  80.2162457  71.0617399  36.9145846  79.9261999  71.9720745  36.8563151
  80.8848190  71.0667610  37.5995827   8.9061691  40.7307673  49.1049767
   9.0472462  40.5515242  50.0346041   7.9862739  40.9891510  49.0477800
  78.9523888  43.9018774  43.6501932  78.7252998  43.2036495  43.0360699
  79.7060061  43.5612392  44.1321230  65.9063435  59.6605587  60.7427502
  65.0262880  59.6720839  61.1190462  66.4617968  59.3180847  61.4430428
  85.9687710  42.8531694  16.0582912  86.8492508  42.9987907  16.4044058
  85.4358387  42.6649523  16.8308115  80.1278877  40.2771282  14.0183210
  79.4535971  40.6319380  13.4389520  79.8920965  39.3554664  14.1240239
  11.0528614  31.0125685  20.9295774  10.6523945  30.9495997  20.0624561
  10.5441429  30.4104686  21.4726353   1.8067886  23.7041473  47.9620981
   2.4212124  23.4456778  47.2751379   2.1257164  23.2604694  48.7480164
  13.9973595  30.5094981  37.1104121  13.0746414  30.5675077  36.8625188
  14.2938377  29.6793103  36.7374182  40.3225082  13.6125605  25.2506018
  39.8955673  12.8255027  25.5889559  41.2065738  13.3258384  25.0215840
  39.2453617  23.1427138  47.2325230  40.1621669  23.0368369  47.4864769
  39.1411727  24.0847533  47.0986223   8.1051971  55.2016592  25.8603072
   7.4394371  54.8954535  26.4761233   8.6295559  54.4242144  25.6683326
  42.6061958   1.7231505  51.5009403  41.6865676   1.9839232  51.4507627
  43.0933422   2.5360530  51.3664007   5.8028366  30.2585125  11.2306511
   6.0458423  29.3400311  11.1141551   5.7529594  30.3745818  12.1794772
   2.1818687  46.8674850  64.2602396   1.8247940  47.6815224  63.9051771
   1.5433075  46.1983109  64.0139246  84.2160511  40.0493145  38.6668611
  84.4771576  39.3036985  39.2073345  84.8940468  40.1061678  37.9935670
  62.9867601  79.3145704  60.4005384  62.8371429  78.9242792  61.2616539
  63.4462976  78.6356592  59.9064398  34.3290561  27.5456088  24.6777272
  35.2752155  27.4126189  24.6200204  34.1070693  27.3003810  25.5759549
  70.1698875  40.3032160  43.2863045  70.9335804  39.9916959  42.8005457
  70.5359221  40.8378267  43.9908886  47.7762699  44.1810942  67.2262335
  47.6573706  45.1182127  67.0716190  47.9705858  44.1153622  68.1611967
  22.0914332  64.5356756  69.0972438  22.1078555  64.5006376  68.1408261
  22.5618665  63.7492757  69.3738367  22.3513748  69.9697971   0.5024303
  21.5738537  69.8337889   1.0438973  23.0762531  69.6500635   1.0396037
  85.0055981  38.9259481  22.8167701  84.1971111  38.4431505  22.6450753
  85.2506351  38.6738539  23.7070727  11.3435985  42.3654842  50.5009365
  10.9523346  41.5478945  50.8086586  12.0945694  42.0888662  49.9758053
   9.8127128  21.1863899  40.3795385   9.9494507  20.4251289  40.9434652
   9.7807552  21.9287801  40.9829187   4.2686130  19.5479977   7.1842027
   5.1129486  19.9443412   7.3992300   3.6514618  20.2796245   7.1928138
  66.6998148  72.0491695  39.2968535  65.7613754  71.8871260  39.2004156
  67.0499039  71.2292194  39.6452045  76.9322348  58.2125902  36.0008979
  77.6276731  57.6156187  36.2769866  76.3438892  58.2597446  36.7544603
   6.3129466   2.2467940  57.7864981   6.7805665   2.6391166  58.5238218
   5.6350702   1.7067759  58.1928205  25.8029415  32.3022985   4.1653627
  26.2979652  33.1025505   3.9899179  26.3625099  31.5979528   3.8382405
  84.6023369  67.3412848  28.3264565  83.7982368  66.8725348  28.5499120
  84.3327618  67.9766417  27.6632237  72.5064230  51.3135242  23.8851786
  71.8046904  51.4929867  24.5109534  72.1780062  51.6537809  23.0529547
  54.0070295  67.1770954  26.3152933  53.7267780  67.3525381  27.2135758
  54.9361992  66.9604301  26.3922763  79.5410967  51.1426735  45.6826496
  79.8518085  51.3357162  46.5671968  78.6561918  51.5065479  45.6548882
  17.3983337  56.1436987  24.6684933  18.1887771  56.6672373  24.8001695
  17.4046184  55.5148125  25.3900838  72.2205392   0.5394786  28.1153345
  72.8408805   1.2615626  28.0153036  71.5397541   0.8866923  28.6917090
  46.8948493  33.5915012   7.2547621  47.8250537  33.7811298   7.3772235
  46.5109859  34.4303722   6.9994778   4.7773887  61.0413647  12.1127129
   3.9633228  60.9493399  12.6077497   5.3932621  61.4291430  12.7344513
  80.9340096  66.4010954  37.4309063  80.4040813  65.8423615  37.9994321
  80.3988552  67.1834660  37.2977233  44.3868828  66.3270044  66.4483452
  43.8405418  67.0435476  66.7713165  45.0575590  66.2147713  67.1220160
  74.6337414  57.9965973   4.6740505  75.1194954  58.5250187   4.0407693
  74.5984650  58.5392284   5.4617941   5.6555511  36.4923692  35.7411647
   6.2713482  36.1152959  36.3695240   5.6301643  37.4238372  35.9601498
  80.8965588  26.4820910  24.4663334  80.5865479  26.6353631  23.5737920
  81.1981297  27.3397899  24.7657394  60.5645084  44.5898342   0.6184046
  61.4993715  44.6613789   0.4256602  60.5261326  44.4249868   1.5605211
  46.7433405  18.8449204  45.2055454  46.6938972  19.2440057  44.3369150
  47.5431919  19.2045188  45.5891657  85.6266403  31.0457778  29.3440890
  84.8206615  31.5611792  29.3125081  85.3363991  30.1605654  29.5640731
  85.4484940  25.4232836  11.4369810  85.8303833  26.2815547  11.2532318
  84.5121384  25.5944061  11.5379131  24.7033741  35.1162386  22.7689981
  25.3555538  34.4170856  22.7233291  23.8919689  34.7068906  22.4685407
  62.9748440  30.3902245  34.7451162  63.2811403  30.8586740  33.9686060
  62.4327135  29.6813846  34.3988895   6.3241436  76.4030170   6.9828677
   5.3968288  76.4331532   7.2182953   6.3311245  76.4697504   6.0280228
   7.8392364  26.0648489  58.5851002   8.0776932  25.9060717  57.6717758
   7.2080852  25.3753495  58.7911940   2.7191593  60.2833796   1.1293586
   1.7965175  60.2070189   0.8862181   2.7421429  61.0042667   1.7586635
  25.6478931  17.6045430   9.4581741  25.1570370  18.0415034  10.1541317
  25.3929664  18.0659914   8.6592323  61.7299891  74.7550583  30.3783035
  62.3661995  75.4601765  30.2588344  62.2211695  73.9550543  30.1913023
  13.6613705  63.5113573  57.3819590  12.7225925  63.5119057  57.1950865
  14.0457489  64.0356445  56.6793871  13.4892418  38.7061000  44.7459269
  14.2989494  38.1986308  44.8014927  12.9015972  38.2892275  45.3760958
  63.6497641  47.8272772  38.2084894  62.9123020  47.9846191  38.7980890
  64.3033457  48.4785128  38.4633446  57.3874807  66.2510920  20.9734035
  56.5579557  65.7810450  20.8887267  57.8035975  65.8655930  21.7444229
  14.7632934  66.4803696  29.9475002  13.9330723  66.6966915  30.3719568
  14.6612789  65.5693245  29.6721411  76.6827631  49.0798903   5.2374035
  76.7903376  48.4634972   5.9617788  77.1436882  49.8685074   5.5235177
  30.0756774  14.4840307  14.8784346  30.4023728  15.3836269  14.8933978
  29.6821437  14.3865127  14.0113444   2.6558163  55.3144169  41.4783621
   2.6355793  55.4128361  42.4302721   1.8950512  54.7692442  41.2777138
   9.6275951  81.8235588  51.6735697   9.1355564  81.3031483  51.0385084
  10.5340244  81.5341282  51.5694523  27.2668403  39.3667548  10.1966131
  28.2069915  39.5305865  10.1224256  27.1821063  38.4167903  10.1151884
  27.3783352  25.7143807  21.1375976  28.1362869  26.1541963  21.5227079
  27.3146011  24.8862863  21.6134453  30.5991492  18.6072845  11.5021319
  30.1384816  19.2169256  12.0786280  29.9777351  18.4292478  10.7961649
  24.0961315  68.9001369  34.5921040  23.9860012  69.1740799  33.6815763
  23.5398437  69.4982672  35.0911283  58.6030054  25.3442454  56.0382843
  58.5775614  24.4253230  55.7715178  57.7986717  25.7199240  55.6803083
  71.8374205  43.0969048  13.9060283  72.6269054  42.8626060  13.4181321
  71.1209297  42.9438972  13.2900214  70.7542133   6.4544284  14.1429400
  69.8556232   6.6660058  13.8899422  70.9226847   5.6031996  13.7388873
  67.3043640  21.2635444  70.0578292  66.3808354  21.0123847  70.0733442
  67.6920613  20.7089494  69.3808129  63.2101870  45.3364658  11.9283628
  62.4760389  44.7387266  11.7870593  63.9489698  44.9168491  11.4875090
   0.7214500  60.9455824  18.1459260   1.3321831  61.5367842  17.7057874
   0.6416561  60.1985979  17.5527310  22.6972915  53.5722637  17.9227066
  22.3558761  52.6905298  17.7736580  22.1563675  54.1353226  17.3689854
  83.2215977  25.0874805  22.6398683  84.0973282  25.4434609  22.4895668
  83.0575752  25.2398753  23.5705185  77.7618122  39.0803742  54.0681839
  76.8084812  38.9944506  54.0704250  77.9916334  39.2226100  54.9864340
  75.6809807  25.4910374   7.3522186  76.0041761  25.0648618   6.5583992
  75.2419662  24.7923803   7.8373712  59.6099710  40.0328779  52.7187347
  59.9199915  40.9304810  52.8388166  59.3931532  39.7341919  53.6019135
  12.0262005  35.3350115  26.7861652  11.8025829  34.5198894  27.2353935
  11.1851742  35.7704806  26.6473413  65.3000975  20.9314513  45.4342842
  65.7985926  21.4243269  46.0860586  64.5283937  21.4716363  45.2642632
  51.7384338  42.9742336  59.5970821  52.2915125  43.6520815  59.9854803
  52.3472548  42.2740746  59.3618059  14.6913673  58.1761837   4.2148405
  13.7929870  58.4035969   4.4544706  15.1885940  58.9814901   4.3579549
  56.8560123  49.1426659   7.7801150  57.5293875  49.3793106   7.1423084
  56.7480850  49.9277878   8.3169276  75.0215068  75.6015449  69.9226111
  75.2350106  76.5031963  70.1627657  74.1643062  75.4447656  70.3186659
  32.5550286  69.7387581  67.0631217  33.2698075  70.3484397  66.8798073
  32.0566384  70.1579504  67.7646332   3.6580707  69.1781664  48.3165932
   4.2972328  68.9217806  47.6517773   3.9841987  70.0128222  48.6530924
  13.3766828  15.3314323   1.4872069  13.7250743  14.4417543   1.5449471
  13.7041411  15.6630916   0.6511445   5.3309768   5.0073855  24.1521955
   5.1812738   4.1494124  23.7550759   6.0020488   5.4119628  23.6024523
  10.1423218  42.4799395  19.7974193   9.7030975  43.1759930  19.3087232
  10.9362366  42.2984123  19.2944515  35.1550937  57.9560947  30.8989716
  35.8088398  57.2897768  30.6871462  35.2056813  58.0473089  31.8504715
  21.3550903  70.7931709   4.3248633  21.9533493  70.1047611   4.0343153
  20.6321003  70.7623339   3.6983186  12.8741218  36.8426228  34.0437531
  12.0020439  36.4482617  34.0297031  13.3507492  36.3462615  34.7090960
  71.0359526  66.2084246   5.8026588  71.6657162  66.8099403   5.4054046
  70.2439260  66.3076067   5.2743721  30.3771259  47.1440363  23.1359005
  31.1664821  47.4950218  23.5481620  30.5842640  46.2251902  22.9654717
  76.1304903  63.1519461  12.7505720  76.9460249  63.4936237  13.1171656
  76.0207081  62.2968149  13.1664205   7.9281666  35.1475096  33.8731813
   7.3067524  34.7263789  34.4670987   7.4153377  35.3423953  33.0887938
  86.0756302  62.6973724  22.5176263  87.0278740  62.7520227  22.4371243
  85.8300114  61.9596815  21.9593167  66.9884864   1.3318198  10.6429172
  66.0659901   1.5536826  10.5163956  66.9904892   0.7323592  11.3891578
  15.3700210  57.8487396  23.7288594  15.8596565  57.1461058  24.1564012
  15.8001854  57.9588032  22.8808737  72.6104403  30.1143956  33.5681295
  72.3106337  29.6167350  32.8074169  73.4606743  29.7317505  33.7847447
   1.1477424  47.9768467  17.6277936   2.0751430  48.0380106  17.8567433
   0.8114292  48.8644266  17.7516127  78.9751530  34.0035009   5.3209662
  78.8528728  34.2038679   6.2489378  78.3868647  34.6062994   4.8662332
  57.3604504  69.4559317  52.6812332  56.6437451  69.0434604  53.1633442
  56.9934956  70.2823477  52.3672157  68.5659409  42.0876455  41.4774990
  69.3962383  41.6892385  41.7384911  68.1091833  42.2516680  42.3025465
  64.8929214  57.4482393  39.2357349  65.3769970  58.2669592  39.1280079
  64.6427011  57.4377251  40.1595926  35.6670135  10.0908702  34.1870975
  36.4920371  10.3027289  34.6237588  35.8969634  10.0232928  33.2603884
  10.3851654  73.8270044  47.4240160  10.9891464  73.9498377  48.1563807
   9.6414234  73.3584690  47.8029203  75.2770662  45.5488873  29.4232368
  75.4212761  44.6045256  29.3631244  75.7609558  45.8157969  30.2047992
  69.2745598   1.7891954  65.9107571  69.7708615   2.1387313  66.6508531
  69.7146233   2.1440194  65.1383071  65.2203417  74.2040968  20.9006858
  65.0423193  74.7583437  21.6605210  64.6373701  73.4528637  21.0103536
  76.5121603  48.1363153  61.1233807  77.3416567  48.4380627  60.7530928
  76.4477396  48.5869408  61.9654131  48.4057903  77.4195766  31.0257244
  47.7530146  77.8320456  30.4600549  48.4827566  76.5262032  30.6907725
  36.2921001  46.8565369  22.8659868  36.5318348  47.0226336  23.7776709
  35.5197193  46.2937450  22.9201555  48.1720298   5.8080905  29.9920392
  47.2442764   5.6624739  29.8068428  48.5077041   6.2416785  29.2074656
  34.7973015  63.0122614  23.6929965  34.2305614  63.7497330  23.4667850
  35.3383877  63.3378506  24.4123340  74.8016644  33.0762625  14.1335487
  74.0218782  33.5629368  14.4005966  75.2046013  33.6215496  13.4578741
  74.6867943  39.8923707   8.7965536  74.6972466  39.5252895   7.9126006
  74.3112469  39.1991401   9.3393511  64.1872168  71.0465193  38.5459280
  63.4987974  70.6815720  39.1019201  63.9796638  70.7279444  37.6674867
  58.5832214  51.1364508  10.5257332  58.0042887  51.4359570   9.8247588
  59.4638538  51.2144566  10.1588130  17.9724067  10.2587931  67.2986221
  17.7072519   9.6268313  67.9668665  17.6310104   9.8990958  66.4799070
  58.6713743  53.5959721   6.3863289  57.8301001  53.8812208   6.7428738
  58.7203217  54.0122557   5.5257797   1.9753211   3.7003272  18.1668794
   1.8045610   4.5649283  17.7933335   1.6097825   3.7447016  19.0504193
  61.1248636  78.0114698  13.9105415  61.3119936  77.4764872  14.6819079
  61.9848824  78.1975460  13.5337448  25.3388637  17.6117080  24.0807509
  26.1291545  18.1091826  23.8705325  24.6204513  18.2222693  23.9153814
  10.4427578  28.0000091  55.3805590  10.7688858  27.4237394  56.0717773
   9.5318558  28.1701183  55.6204796  78.3589117   5.1942961  37.4908304
  78.1715957   5.8125251  36.7844748  78.7288753   5.7338755  38.1895518
  26.0476925  41.1149788  11.8252850  25.2634670  41.2746620  11.3002002
  26.5970280  40.5592346  11.2724590   3.7245132  57.2771025  35.0562310
   3.6305477  57.5054455  35.9810352   4.3194439  56.5272474  35.0539207
   7.1731998  64.8072720  15.6431961   6.6242267  64.2321444  16.1761928
   7.4667599  65.4874420  16.2493515  79.5657778  48.5371161  20.9059191
  80.4272842  48.8877249  21.1320162  79.5349789  47.6821041  21.3351488
  74.5002317  52.3633909  45.2552557  74.3813372  51.4288092  45.4245234
  74.1758585  52.4884415  44.3634176  86.4124203  73.9529848   4.1346842
  87.1610260  73.4051418   4.3706816  85.9819317  74.1423559   4.9683803
  82.2577190  49.3775129  22.2430444  82.3551273  48.4315348  22.1341014
  82.9702568  49.7528172  21.7256761  14.0775253  53.2510424  13.5115397
  13.3103992  53.5794115  13.9804959  13.9031460  53.4570217  12.5931752
  14.0848495  56.1615849  19.9670625  13.9700748  55.4553223  19.3312562
  14.5932152  56.8243837  19.4996297  31.1939438  15.2390359  48.3050805
  31.8474444  14.5888446  48.5627919  31.5108307  15.5783580  47.4680143
  79.6062374  59.5002460  43.3202600  78.8069010  59.4942570  42.7937078
  79.7539806  58.5808372  43.5418320  67.1079254  62.9706907  25.2785039
  66.9232130  63.8745928  25.5335855  66.6803503  62.4399996  25.9506488
  74.8386383  36.2580419  39.2238712  75.4675198  36.9787788  39.1881299
  75.2855110  35.5748129  39.7236085   8.5001613  66.0823059  32.1672130
   9.0005829  65.9749460  31.3583350   7.7345039  66.5954018  31.9088626
  85.0435829  67.0209885  48.8045168  85.2458954  67.8647757  49.2086554
  85.8973598  66.6558456  48.5722017  75.8794260  58.0707693  31.1063242
  75.4835033  58.9397335  31.1725307  75.8447504  57.7232361  31.9975305
  42.8391171  56.3917351  32.5353885  42.6246357  56.8884563  33.3250070
  42.5069284  55.5109501  32.7088833  16.8664123  49.9918699  19.9577963
  16.1407902  50.5460119  19.6703458  17.6521732  50.4878092  19.7278798
  41.1038303  14.2288685  38.9393854  42.0240784  14.0171421  38.7827134
  40.9121752  13.8453948  39.7952175   9.5617112  63.8196285  14.2588329
   8.9030941  64.2867775  14.7728634   9.4499071  62.9012019  14.5042384
  80.7064086  74.8127980  39.5290112  79.9862153  74.1826905  39.5062327
  80.3678543  75.5449719  40.0443077   5.7720916  37.6718926  59.4549554
   6.2132851  36.9869282  59.9573546   5.9041707  38.4685831  59.9688344
  26.8381270  55.2688796  18.0547261  27.7678879  55.4333741  17.8974855
  26.3899430  55.9969790  17.6243353  77.3976177  67.1847648  37.9476738
  77.8900749  67.0684178  38.7601900  77.4937219  66.3507683  37.4878430
  48.3725309  35.3904915   3.6458269  47.9317045  34.5408559   3.6411184
  47.6761532  36.0226226   3.4677669  24.2780121  56.0855658  39.3834186
  23.9513024  56.7943270  38.8292098  23.6324938  55.3859646  39.2829323
  49.4087505   1.3879101  21.2547922  49.1787529   1.2508379  20.3358030
  48.6789274   1.0076183  21.7436385  57.3077965  14.5861328  29.1172481
  56.5542603  14.1433084  28.7269688  57.9236603  13.8808024  29.3158770
  61.5316534   4.1111243  22.2525620  61.9231796   3.6021230  22.9623914
  61.1380959   3.4556484  21.6766334  72.7824354  30.5763292  17.7093780
  72.1497726  30.7510448  17.0126414  73.0163097  29.6552038  17.5950778
  26.5974100  79.0799023  52.2910166  26.6014441  79.9292255  51.8495798
  27.1045216  78.5080547  51.7147636  19.2132195  76.8561644  37.9650950
  19.4881781  77.6218177  38.4694839  19.9866875  76.6146518  37.4555373
   4.0307625  80.3581951   8.7016767   3.1195100  80.4676748   8.9734566
   4.4811734  81.1229018   9.0602660  17.7104775  64.4916945  43.1431132
  17.2051827  65.1756363  43.5825782  17.7744166  64.7872715  42.2349410
  47.5960263  47.2588665  13.0429220  47.2410973  48.1338341  12.8857946
  48.5115107  47.4103863  13.2777953  23.3451613  70.3750772  26.8198895
  22.4171933  70.3929693  26.5858150  23.3515986  70.1954598  27.7600646
  83.1686559  67.0302229  53.7346178  84.0233769  66.7905503  53.3765130
  82.9446902  67.8490000  53.2922666  19.3697612  38.9717015  63.3743112
  18.7313334  38.5337467  62.8114282  20.2014653  38.8802878  62.9094034
   1.9245736  38.3268379  70.4786221   2.0190064  37.9174053  69.6185760
   2.7058665  38.8720023  70.5714449  36.0347009   9.0422136  19.8261046
  36.6552544   9.6717596  19.4589329  36.0771132   8.2910800  19.2343020
  53.1541069  74.0921039  27.3780823  52.7978333  74.4687367  26.5734386
  53.5921868  74.8243696  27.8117895  81.3640553  76.2122018  51.8538904
  82.3165065  76.1432035  51.9194984  81.0742194  76.3856609  52.7495098
  33.1915776  19.9281483  70.2740304  33.4353558  19.6952062  69.3781843
  33.0088250  20.8669751  70.2360977  50.2097511  18.5872173  15.2395403
  50.9558249  19.0830398  15.5768347  50.5383348  17.6928854  15.1477015
   7.3861648  13.4846354  38.1474948   7.7091553  14.3854618  38.1269956
   7.0170261  13.3426535  37.2758245  26.1602044   0.6453381   2.1928680
  26.1176014   1.1155540   1.3602135  25.7870555  -0.2150872   2.0013990
  45.9654808   4.1846421   7.0310050  45.3204298   4.8836100   6.9233876
  46.7258406   4.6180350   7.4186313  22.9505078  24.8044734  51.3887911
  22.0626275  24.6419602  51.7073553  23.4745232  24.1001516  51.7703276
  53.9564618  67.3716159  32.3122907  53.5620697  66.5859468  31.9335914
  54.6394261  67.0396871  32.8950572  83.3532429  18.2453191   5.3906298
  84.0885639  18.0026257   5.9533316  83.2306671  17.4888337   4.8170993
  79.9292912  42.6584647  70.0085531  80.7109179  42.8947236  70.5080289
  80.2002587  42.7270646  69.0930726  32.9273375  68.9549215  21.8928528
  32.4129732  68.1486852  21.9334221  33.8293942  68.6712594  22.0413637
  35.4107356   3.8133159  43.8869762  35.5340981   4.3756133  43.1222296
  34.9242067   3.0592886  43.5538626  48.4653139  14.9984789   7.4016809
  47.5348043  15.0646663   7.1871990  48.8960981  14.8584330   6.5584475
  85.5017152  52.2845345  60.4076772  85.1518788  51.6618483  61.0449450
  86.4302316  52.0619743  60.3401714  61.4245129  54.8609591  17.7603483
  60.9628057  55.1864290  18.5330892  61.7250013  55.6506777  17.3105848
  83.0915642  19.1512680  60.8114767  82.6166248  19.3471003  61.6191387
  83.5817242  19.9512804  60.6218767  55.9938335  32.4267840  20.4232907
  56.9225121  32.3058558  20.6211901  55.6707239  31.5442395  20.2417803
  65.6500435  13.4245980  27.9416180  65.9711504  13.7115264  27.0867538
  65.0721645  12.6872218  27.7452445  54.8644891  66.2052803  53.4986632
  54.5954838  65.4487162  54.0197020  55.0826492  65.8401733  52.6411455
  55.5367382  71.7181856  37.5807691  56.0780724  72.2318120  36.9812870
  54.8599919  71.3343031  37.0231962  66.3296223  33.8882041  41.9092655
  67.2734880  33.8882542  42.0684814  65.9490347  33.5643315  42.7256536
  19.0162047  66.4275605  16.5841329  19.8471173  66.1802239  16.9898868
  18.5993060  65.5942757  16.3649011   6.8427626  78.1302195  67.7782630
   7.3053424  78.8304620  68.2386055   5.9756390  78.1094914  68.1831076
  62.6394844   5.6127971  20.3423715  62.7321386   6.5136266  20.6524587
  62.1953297   5.1577097  21.0578108  20.6772854  33.9495635  17.2618473
  20.5592491  34.6208644  17.9339004  19.7880508  33.7300086  16.9838393
  72.8893042   7.3550308  28.6918497  73.3960104   6.6468811  28.2943511
  72.5919676   7.8822553  27.9503274  21.7427589  31.1667418  32.1893382
  21.9059040  31.7521524  31.4498043  20.8284237  30.9021711  32.0882082
  85.9219265  44.0550661  33.1676793  85.2458668  44.4928646  33.6848927
  85.4452229  43.6534405  32.4412632  13.2520588  66.1329884   2.6754367
  13.7953766  66.9126208   2.7903914  13.8719328  65.4039056   2.6960298
  81.0856446  67.3390419  28.1230450  80.5970486  66.8036313  28.7482166
  80.8741768  66.9626708  27.2687292  31.3270863  66.7555959  20.8997011
  31.8497046  66.5293140  20.1303530  31.6486176  66.1727411  21.5875435
  63.0277205  11.7667699  29.0957475  62.3327208  11.1459863  28.8770437
  63.5282803  11.3323617  29.7863722  27.2050015  44.8505827  67.5316443
  26.5885369  44.9659588  66.8085288  27.7379624  45.6456148  67.5211885
  34.8920973  10.1184772  66.9778093  35.4492625  10.4254220  67.6930618
  34.0830429  10.6213115  67.0717251   0.4977926   7.5676654  68.7434975
   0.9831270   6.8710492  69.1855448   0.0754174   7.1325420  68.0028909
  58.8151407  20.5231595  49.1536283  59.5237446  20.8633351  49.6998787
  58.7231207  19.6091211  49.4225121  78.0713463  40.9533167  12.0213974
  77.3916531  40.7577515  12.6663852  77.7532721  41.7336464  11.5673649
  35.4189833  81.3650018  37.6610637  36.0395869  81.3127134  36.9341874
  34.6687134  80.8448772  37.3733115  70.6363964  25.7713985   9.7806406
  69.7122145  26.0042787   9.8694628  70.6675577  25.2045441   9.0099680
  78.1388426  33.4290099  58.1553459  78.4130192  32.5282359  57.9831076
  77.8748560  33.4272408  59.0754223  83.2009411  24.0493155  29.1959643
  82.5476456  24.7430491  29.1056204  83.7016392  24.0842104  28.3809066
  17.6390235  52.2111803  65.6671869  18.5306041  52.1001738  65.3370558
  17.3021619  52.9730611  65.1957052  37.9009636  77.9350180  52.9972029
  37.0887144  78.1796370  52.5537586  38.3310850  77.3301900  52.3927116
  61.4552116   7.5303513  23.9029622  61.7140436   7.9749030  24.7101855
  62.1797419   7.6906931  23.2983303  61.5827417  12.0625150  61.0310745
  61.6259527  11.3167238  60.4326105  60.6624365  12.1086693  61.2901926
   5.3597786  54.0986490  30.1215076   4.8552372  53.2946825  30.2452207
   6.0786201  54.0293598  30.7497549  81.1595726  27.6455379  34.6105695
  81.8066502  26.9617534  34.7836781  81.6018105  28.4599566  34.8501134
   7.8362991  17.1450090  35.3647971   7.8018715  16.7323637  36.2277985
   7.2840549  16.5916216  34.8125076  52.1292114  14.6768868  12.0416152
  52.4584198  15.4923904  12.4195135  52.3781013  14.0024316  12.6735938
  63.6552668   5.6970662  41.5713596  64.5745039   5.8243066  41.8059683
  63.1671572   6.0493451  42.3155880  61.0895348  19.5076025  24.7620678
  60.7191706  19.0168977  24.0284014  61.3858271  18.8347435  25.3750181
  73.9897442  32.8594708  45.8294201  73.9045572  32.6286817  46.7544651
  74.1319752  33.8060427  45.8308363  66.0916805  23.8840175  21.8545008
  66.5922546  24.0736961  22.6480269  65.1777220  23.8990498  22.1385384
  60.6936836  20.3292871  13.3633268  60.2278185  19.4942737  13.3190930
  60.0335979  20.9564757  13.6585474  46.6192397  80.8738791  27.4823689
  46.4723786  81.3047004  28.3244228  45.7635983  80.8882476  27.0535254
  45.0033100  19.3316816  68.4451308  44.1042002  19.0675996  68.6403116
  45.5452021  18.7439988  68.9716382  84.8038864  26.8845844  17.1227932
  84.5813179  27.7338958  17.5040591  84.7214985  26.2668920  17.8493595
  81.3661385  31.0599351   6.5577245  81.2399769  31.5723157   7.3563361
  80.6493092  30.4256344   6.5643710  51.4574528   7.2146606  15.9114075
  50.8597374   6.5174532  16.1813533  52.2599220   6.7578739  15.6591845
  32.0594931  38.6220646   4.6905822  32.3809218  37.8418326   5.1424128
  31.8324256  39.2298841   5.3943074  78.0425747  80.1289024  41.7923403
  77.4457940  80.8746463  41.8551731  77.9421624  79.8168912  40.8930063
  82.8229713  54.3312597  48.5737562  82.1546173  54.1825676  49.2426586
  83.1095219  53.4532976  48.3221626  41.8255385  17.3619388  69.9096440
  40.9416111  17.2995542  70.2716000  41.8138417  18.1629537  69.3857428
   2.8681995  48.2028675  20.7228136   2.2077896  48.8957167  20.7296562
   2.9826214  47.9719305  21.6446638  26.0742203  74.5173459  53.8884383
  26.4843957  73.6545926  53.8280933  26.6846387  75.0366860  54.4117933
  33.8624581  57.5632269  22.2277522  33.5642155  58.2626993  22.8091455
  34.7388609  57.8353817  21.9555712  59.2934895  15.8656251  37.5740504
  58.4748745  16.3579822  37.6347423  59.9728537  16.5371192  37.5124717
  62.3090553   6.8849111  31.3496017  62.3773432   7.4377406  32.1280289
  62.2823524   5.9914315  31.6919661  34.9409771   5.6212419  26.3399959
  35.8066082   5.9627408  26.1157274  34.7995543   5.9021062  27.2440672
  67.5559147  75.1097752  33.4317994  67.9294690  75.8681960  32.9829216
  67.4082669  75.4108388  34.3283439  52.5597572  23.5732245  51.6603136
  52.6370430  24.4382262  51.2577868  51.6554689  23.5338664  51.9716644
  28.7760997  14.6881521  10.1020646  28.4380269  13.9824939   9.5507169
  29.5601797  14.9937737   9.6459460  59.6402836  41.7536974  42.3529530
  59.8586464  40.8230305  42.3038340  60.4862690  42.2002792  42.3197746
  45.5066872  16.8655908  24.7525549  44.6284533  16.8302524  24.3734908
  46.0309029  17.3293674  24.0996051  76.6075754  43.1566095  11.1143160
  76.0340595  43.1750393  10.3481734  76.8013668  44.0772533  11.2906361
  43.6944485  41.9937420   8.9161515  43.8698196  41.8919086   7.9806793
  43.0607128  42.7094746   8.9645106  27.5831239  77.7431899  61.2030720
  27.1518628  78.5357051  61.5226894  28.0126588  77.3760539  61.9756954
  56.3870716   5.7574427  30.1179528  55.4551315   5.5665785  30.0116992
  56.8309975   4.9814659  29.7758722  62.6399374  48.2392836   6.2016934
  62.2862053  47.7522516   5.4574442  62.2786713  47.7978039   6.9703400
  41.4983670  71.4372712  68.5380033  41.6960065  72.3732381  68.5716899
  41.6280762  71.1979633  67.6203214  50.1204729   6.2405986  45.7543755
  50.1438236   6.9355232  46.4122248  49.2814159   6.3600618  45.3094625
  22.2392249  33.8036013  25.2272677  21.7624021  33.7840533  26.0570192
  21.6932821  34.3371964  24.6498084  29.5573616  46.1125851   6.7202097
  28.6852193  46.1343718   6.3263506  29.6682000  46.9820213   7.1049523
  48.0143507  76.0608471  13.9339256  47.2023972  75.5806924  13.7714052
  48.4051474  76.1708791  13.0670893  62.5959309  70.7610733   4.3043166
  63.3625801  71.1316044   4.7415620  62.2943028  71.4563591   3.7196556
  85.8922577  25.6313109  22.1312475  85.8133125  26.5842938  22.0885825
  86.7075920  25.4375744  21.6687250  25.5180599  14.4422483  19.0077925
  26.1824371  15.0487185  19.3349504  25.3935482  14.6942234  18.0927861
  80.0474453  14.3328869  21.4742541  80.7806778  14.8625851  21.7873383
  79.8494720  13.7438118  22.2022843  47.3192747  60.4217489  42.9153967
  47.6931437  59.5590789  42.7358007  46.4158591  60.3605945  42.6050186
  77.2355183  12.4671148  64.1703277  76.3978775  12.4792264  63.7072497
  77.0886906  11.8848966  64.9157774   5.0578644  24.9623537  14.9490428
   5.2985718  25.8882117  14.9161565   4.1009094  24.9642849  14.9703240
  13.3261554  46.0987251  60.1003902  13.4306113  45.7540932  60.9872662
  13.5502736  47.0262479  60.1759153  74.7762489  28.7862921  29.1789699
  75.1358366  29.6104097  28.8507009  75.5443335  28.2718492  29.4272184
  36.5180540  25.3824973  20.5103230  35.9668088  25.2149415  21.2747121
  36.7215848  26.3163853  20.5618834  78.6099052   8.9074284   2.7200964
  78.0054474   8.6863297   3.4286034  78.0435562   9.1834849   1.9994885
  67.8506088  15.9479129  30.3441072  67.2167110  16.5267849  29.9206519
  68.6946154  16.3798428  30.2125192  84.4066334   2.9333210  45.4269743
  84.2315197   2.8796193  46.3664865  85.1802444   3.4929317  45.3591347
  42.6434422  33.1186485  13.0197668  41.9352674  33.2204652  13.6556518
  43.1801939  33.9032960  13.1313682  69.2422295   2.4349593  43.9611387
  68.3753872   2.7101713  44.2595911  69.8466301   3.0412021  44.3893957
  12.9596003   1.2631152  65.8207601  12.3928412   2.0322059  65.7614493
  13.4019192   1.3560460  66.6645309  68.6073017  65.1298332  19.4370472
  69.1929626  65.4096031  18.7335134  68.5984564  65.8662939  20.0484204
  78.0778217  33.2669973  33.2599497  77.4511766  33.1822395  33.9785337
  78.6968851  33.9328671  33.5593009  70.9871101  31.4558125  43.8258934
  71.9315910  31.4751744  43.6715651  70.8568144  32.0237565  44.5852947
  84.8918643  23.6594420  63.5684621  84.0878882  23.9649551  63.9885973
  85.5885997  24.1620355  63.9905887  77.1017790  26.5385485  29.1726518
  77.5664377  25.8282614  28.7301397  77.6647663  27.3035312  29.0540099
  78.0687714   2.4345991  36.4592004  77.2296143   1.9993228  36.6094828
  77.9605579   3.3034581  36.8459916  39.3516549   8.5894607  51.3535016
  38.4408100   8.8815234  51.3175040  39.8404702   9.2723296  50.8941739
   6.7564251   7.1361703  26.4934373   5.8302547   6.8994504  26.5424132
   7.1802856   6.3673669  26.1119747  59.9500608  30.2442884  42.6330709
  60.0248098  30.7824516  41.8450165  60.5293226  29.4997978  42.4705172
  49.9243784  33.9762330   7.3982525  50.2786779  33.1309700   7.6743644
  50.4318571  34.6211362   7.8909987  62.4664593  12.9379010  17.1064591
  62.8773165  13.6278164  17.6274633  61.9579840  12.4305987  17.7391732
  27.4562415  78.7904716  14.1084707  28.3684023  79.0616927  14.0053594
  27.5020417  77.9897896  14.6310055  64.2536783  18.5075998   4.0216216
  64.8838758  17.8646040   4.3466398  63.5453129  18.4952414   4.6652839
  82.7035809  17.0124304  17.0338547  83.2344913  17.8082323  17.0012307
  82.3148346  16.9479275  16.1615288  66.5898418  22.0078635  31.2758565
  66.9508123  22.7596760  30.8060575  66.5895033  21.3002658  30.6312370
  84.2395115  18.4098852  49.3506670  84.5980072  17.7006543  48.8170910
  83.4980392  18.7400603  48.8432932  28.3980950  76.7121232  43.5554695
  28.4513672  76.9405831  44.4834757  27.7339657  77.3033232  43.2010031
  20.6640403  45.5259725  63.2721233  20.2230183  44.7162407  63.5291582
  20.0666682  45.9358805  62.6465379  81.0918522   4.6530497  26.1138344
  81.9031143   4.2096192  25.8659577  81.2805080   5.0364071  26.9703841
  33.6834391   7.3212789  30.2780300  33.2126959   7.6158212  31.0576921
  33.8111647   8.1164430  29.7606950  67.5143194   4.2124990  23.9131570
  67.7613115   3.3523551  23.5734844  66.5845680   4.1285199  24.1246867
  84.3357372  28.5942125   6.5082091  85.1849651  28.9490747   6.7711139
  83.8101578  28.6134100   7.3079777  74.3905878   1.6565940   5.6888825
  74.1201305   2.4743210   5.2712601  73.5695887   1.2301065   5.9344471
   4.6406619  26.5277737  67.7206095   5.3213088  26.0421770  68.1865974
   4.0266387  26.7954164  68.4044041  49.2329884   6.6376030  38.5367131
  49.6135235   6.9523287  37.7167296  48.3904839   7.0877671  38.5980988
  59.6245146  21.0335851  35.3344417  59.2877197  21.9282341  35.2853656
  59.1565323  20.6415963  36.0717106  53.7074184  12.2785378  30.6689906
  53.0207872  12.8129435  30.2700162  53.8922501  12.7098703  31.5032697
   1.1772014  20.7564020   8.7739497   0.8506157  21.4679956   8.2233018
   1.8330910  21.1697006   9.3353939  12.6814129  31.2410951  23.1429076
  12.1094753  31.0482574  22.3999810  12.7560951  32.1953702  23.1463051
  62.9018497  29.6537423   4.6459520  62.0774937  29.9208713   4.2393720
  62.6386595  29.2127609   5.4537261   4.5539047  13.9476168  27.1847653
   3.8294937  13.6238909  26.6493607   4.1300251  14.3553472  27.9399562
  15.9855088  63.4306271  26.7403722  16.8462666  63.0202229  26.6573286
  15.3721722  62.7665550  26.4256382  71.5900803  14.1304481  17.6477087
  71.3888693  15.0291693  17.9085636  70.8287001  13.8527203  17.1383929
   2.7236130  40.6617594  12.5723267   3.6255028  40.9728861  12.4946046
   2.3395397  40.8229351  11.7105019   2.4447681  45.1833344   3.0272439
   3.3665611  45.2743673   3.2685721   2.4417164  45.2302551   2.0711993
  77.2774506  38.9436507  15.4955089  77.0328188  38.0396414  15.6933844
  77.9302025  39.1659331  16.1593890  19.1676434  47.0593078  36.1078930
  20.0517138  47.0034702  35.7452154  19.0228470  46.2067706  36.5183163
  70.9747171   6.0404772  46.8473864  70.2205229   6.5045798  46.4840269
  71.4796209   6.7185056  47.2963667  73.1030560   5.9716988   8.1105852
  73.9811373   5.6329161   7.9361367  72.7707863   5.4218429   8.8201541
  48.4082890   5.3773165  17.9142785  49.2114830   5.2302003  17.4148166
  48.0977535   6.2341172  17.6215434  46.2144184  38.2861018  25.7788229
  45.9513617  38.9606190  26.4049721  47.1175337  38.0770063  26.0173440
  74.1031742   5.2800441  41.3303566  74.8711872   5.5159533  40.8100367
  73.7789059   4.4747171  40.9272051  25.4372176  65.7278115  46.1021614
  25.2605637  65.6741674  45.1629353  24.8206385  65.1115138  46.4974308
  57.7588463   7.6601362   1.4296575  58.3600330   7.1867681   0.8545671
  57.1392632   6.9945186   1.7284963  80.9098816  13.1959605   4.3578219
  80.4154778  12.5858128   4.9051076  81.5630341  13.5718453   4.9480155
  50.9585810   9.8634499  26.1680627  50.6677008   9.4569808  25.3517294
  50.1684666   9.9121577  26.7061901  51.3746610  27.2841638  52.3338013
  51.4985623  27.0755082  51.4078730  50.5276194  26.8972366  52.5552493
  68.7550735  28.9801407  24.1236877  69.5322132  29.0156460  24.6813869
  68.0801201  28.5885620  24.6780658  54.4107445  70.5790705  45.6195545
  53.7183960  70.8024258  46.2416458  54.9969681  71.3356561  45.6318092
   2.3454825  34.3074094  48.3111720   2.1924464  34.0883701  49.2303210
   2.9957835  35.0093048  48.3372837   0.7920887  23.9766431  24.0245271
   0.9595253  23.2636356  23.4082317   0.3019764  24.6226859  23.5159445
  73.2383633  23.6142182  34.9431252  72.6573706  22.9453993  35.3055620
  73.0729961  23.5899162  34.0006328  73.7972703  36.4973252  67.7313336
  74.0463986  37.3268100  68.1389125  74.5731988  35.9439861  67.8206857
  79.9044752   3.6994186  21.6949081  80.3868961   3.2974604  22.4173570
  80.4952812   3.6308604  20.9449172  50.6369702  75.5951171  53.3129054
  51.2062470  76.3637810  53.2766979  50.7472150  75.2570682  54.2016106
  30.1551731  73.4511460  21.1169481  30.3249415  72.5223250  21.2741137
  30.5436571  73.8964028  21.8699813  83.1632423  12.4372387  53.6953449
  82.6896191  12.9250443  54.3691111  83.0665588  12.9666936  52.9037905
  74.1882944  31.3479233  21.0572696  73.5650015  30.6238794  20.9981608
  74.8492289  31.1497545  20.3938484  14.6763007  26.3904112  45.0432306
  14.6464507  25.5695408  45.5346685  13.8164679  26.7862003  45.1855998
  67.7961922  18.8912213  43.9709997  66.8658304  18.6972964  44.0852594
  68.0361319  18.4440982  43.1593704  65.6615925   8.7466532  27.2968054
  65.4535246   8.9599389  26.3871646  65.1723194   7.9428834  27.4722934
  45.3102636  41.8260527  19.9660885  44.8354673  41.7127419  19.1427052
  46.2308073  41.7132092  19.7292292  62.7946949   8.0757439  47.7782583
  62.2923851   8.2701164  48.5695457  63.2952881   8.8741118  47.6101923
  48.2579478  78.7433241  28.0742621  47.7575310  79.4025333  27.5933719
  47.6642474  77.9957385  28.1440187  60.8012104   1.6339733  15.2616751
  61.5612268   1.7019756  14.6837628  60.1287270   2.1662597  14.8366249
  79.4729948  26.0123658  14.4003117  79.4077110  25.4815912  13.6064303
  79.6650076  26.8948889  14.0832686   2.6866390  27.4899316   2.3223941
   2.4890854  28.3993602   2.0984724   2.9508545  27.0910978   1.4933260
  75.0417566  36.3472486  10.8783221  75.0087166  37.1491218  11.3999915
  75.4972982  36.6020942  10.0759709  15.8593323  75.3593206  25.7759356
  15.4430057  74.6900702  26.3190770  15.3207638  76.1403084  25.9033298
  59.5401144   6.0148281   6.6766745  59.3909311   6.6642630   5.9894997
  60.1435995   6.4429688   7.2839123  47.3782547  73.5906077  21.2687254
  46.8365343  73.9264602  21.9828486  47.3417862  72.6392127  21.3674617
  64.7381735  45.3855705   6.5762186  64.4733238  45.6274462   7.4636775
  64.2329073  44.5960617   6.3822740   7.8697507  52.2758787  59.5181256
   7.3402373  51.9619792  60.2511423   7.5308530  51.8029695  58.7580364
  42.2829819   5.5038983   1.4363761  42.5417900   6.3415951   1.8204494
  41.3707829   5.6314749   1.1758952  83.6880493  22.0016456  13.5819519
  84.5263863  21.6321802  13.3046091  83.8147831  22.2159219  14.5062125
  54.0968712   5.0953649  53.5762482  53.3269413   5.4670451  54.0067165
  54.6548088   4.8006747  54.2960327  19.9065925  26.0219312  35.5294776
  20.5488731  26.5224171  35.0262642  19.5240356  26.6601777  36.1315775
  62.1247864  65.9796333  15.9825659  62.3290634  66.7475080  15.4488313
  62.3871851  65.2350426  15.4413033  64.8757172  46.6531467   9.0514952
  65.6423473  47.1412039   8.7509817  65.2383709  45.9188223   9.5469558
  11.4518501  13.4530199  45.8931494  11.2632801  12.6484919  46.3762712
  11.6460373  13.1581891  45.0034285   4.7008659  17.4802852  14.7445965
   4.5980884  16.9281983  15.5197537   4.9134781  16.8675494  14.0406203
  84.9180603  13.1782293  40.5836344  85.2367973  12.8282845  41.4156055
  84.0216255  12.8500199  40.5134535   8.5619690  13.9404237   6.1195987
   8.1947471  13.5527587   5.3251868   8.4579136  13.2623756   6.7871726
   7.2930099   8.7996453  24.5304751   6.6135361   9.3818212  24.1904378
   6.8349125   8.2345831  25.1526356  41.1240252  15.6344341  54.7637408
  40.2330168  15.2847694  54.7556894  41.4565476  15.4226897  55.6359964
  40.6272753   4.3592189  54.3864804  41.5776308   4.4721626  54.3690710
  40.2881535   5.1070569  53.8945775  14.3970920  14.6928525  42.7917719
  13.8203384  13.9299762  42.8319216  15.2105858  14.3584812  42.4140692
  11.1972191  30.2330303  36.2844181  11.4580967  29.6012330  36.9544983
  10.2430107  30.2711868  36.3497400  12.7776386  30.7995462   0.6138745
  13.6129524  30.4070568   0.8677300  12.6586296  30.5395389  -0.2996153
  76.7197609  22.8018999  14.3933427  77.2434425  23.1728697  15.1035333
  76.0314417  22.3062778  14.8369718  43.0303192  14.1771448   3.9883396
  42.9338264  13.3966017   3.4427449  43.9742947  14.2594337   4.1238666
  74.2428412  80.9505969  66.4747890  74.6790376  81.7635088  66.2195652
  74.6155991  80.7371169  67.3301899  57.1678305   2.7548704  16.3356483
  57.1164656   1.8487272  16.0315132  58.0875063   2.8765950  16.5714705
  13.5837032  19.0248132   0.2767089  13.5092689  18.7108171  -0.6244561
  14.5141746  18.9388084   0.4842282  63.3703089  53.1595564  18.4813178
  62.6458597  53.7239122  18.2113135  63.5885048  53.4561300  19.3648708
  13.3931271  48.3805584  63.1005012  12.5879447  48.8224553  63.3700155
  13.4399573  48.5236137  62.1552109  26.5083172  37.1448207  24.6953082
  26.6121723  36.9498396  23.7639499  26.5912296  38.0967712  24.7514200
   3.7249901  51.9374657  30.8090639   3.2491638  52.5278234  31.3932776
   3.0426647  51.5172386  30.2855468  13.3262874  27.6025867   2.9846337
  12.5284340  28.1142497   3.1183267  13.9357616  28.2132196   2.5700301
  82.9956532  26.9836593  39.4445729  82.1731377  27.4532127  39.5831871
  82.9091930  26.6018033  38.5711074  49.3157244  14.9759078  12.0865655
  50.2721119  14.9805689  12.0473611  49.0445995  15.5757904  11.3916814
  74.8847342  15.3767180   3.8627964  74.0712738  15.0706506   4.2638457
  75.3539038  14.5752060   3.6310896  44.2124327  20.8473800  66.2536766
  44.2703017  20.4260467  67.1112090  44.1261061  21.7801498  66.4504521
  63.5160112  22.4961925   7.6945287  64.2176819  22.1041298   8.2143092
  63.4913349  21.9738650   6.8927830  83.9704051  63.8901358  51.1485367
  83.2671800  64.4701200  51.4406376  84.0201011  64.0312558  50.2031022
  70.9455784   4.6576236  59.6200674  70.5816468   5.3228782  59.0359300
  70.1795300   4.2321656  60.0052779  60.1330098  72.3161806  32.2476506
  59.4679268  72.5829954  32.8822422  60.8910378  72.8643847  32.4503422
  68.5293150  43.8696480  34.2572880  67.7624559  44.4294691  34.1357994
  69.2720413  44.4731140  34.2369437  79.5730448  41.6295671  53.4966612
  78.8672781  41.5538502  52.8544855  80.1604557  40.9014940  53.2939339
  46.3205250   8.9863513  66.6378873  46.4508637   9.4316886  67.4750962
  45.9710987   9.6633123  66.0583519  70.6365776  16.0739601   6.2101954
  70.1180649  16.1285210   5.4074520  71.4981794  15.7755291   5.9189731
   2.6299717  22.8685522  61.1458969   3.0941727  23.3352733  61.8408203
   2.0005752  22.3150229  61.6081715   9.3563034  21.9702697  37.1904469
   9.1079857  21.9361162  38.1142449   8.8409187  21.2770295  36.7781067
  60.3627157  18.6775410  42.2816896  59.5338058  18.9164126  42.6965189
  60.1897240  17.8302884  41.8712378  74.7264489  78.9744852   3.8145754
  74.2195137  79.7808793   3.9093348  75.2925022  79.1347555   3.0595082
  83.9830303  29.5002794  26.5857148  83.5388184  29.5160174  25.7379723
  84.6157551  30.2169394  26.5379143   1.6012337  44.6358347  21.9317174
   1.1241104  44.3834877  21.1412096   1.1358215  45.4065895  22.2566080
  53.9740896  25.8563161  15.4466593  54.1931963  25.3949046  14.6371377
  54.5877552  26.5902686  15.4776227  70.1955605  45.4532623  39.3107295
  70.9698629  44.8926783  39.3600249  69.5777273  44.9612951  38.7699127
  76.3276768  55.8068419   8.2668501  76.0500002  54.8915195   8.2306671
  76.9558191  55.8950949   7.5499928   0.1326134  22.6537538  19.6877837
   0.2394344  22.8969288  18.7681723  -0.2560089  21.7794108  19.6607411
  26.9001214  60.2784102  68.8484281  26.5305440  60.2635377  67.9655784
  26.1419980  60.3807812  69.4237515  17.9710819  13.7141144   6.8314850
  18.2780601  14.6207488   6.8340117  18.6244442  13.2414556   6.3157910
  56.0473680  10.6060362  43.4931517  56.0334635   9.6576434  43.6219549
  56.6754818  10.9264767  44.1404676  26.9469563  71.7538386  69.6712815
  27.5693433  71.5466409  70.3683726  26.2401597  71.1183601  69.7845677
   1.6240932  23.0694461  27.8878689   2.0724823  23.4392452  27.1273232
   1.9969513  22.1929979  27.9829788  15.8073570  25.0141549   9.1974431
  16.2771179  24.4081759   9.7704560  14.8872043  24.9070501   9.4384336
  22.8786484  33.2951932  70.4715044  23.6082284  33.9000010  70.6062438
  22.5584618  33.4981798  69.5925806  10.7595589  37.3866606   8.8094777
  10.1702644  37.1037006   9.5086908  11.3947155  37.9539680   9.2464805
  64.0417099  44.8318005  14.6553588  63.6159229  45.2975225  13.9356089
  64.9739408  45.0173616  14.5424712  34.8589095  75.1612539  18.7383354
  34.2219790  74.8521812  19.3825603  34.3266304  75.5225194  18.0295348
   1.0944607  46.7481661  23.7828422   0.3579285  47.1612310  23.3321333
   0.7456257  46.5076971  24.6411657  83.4225464   3.4528565  25.5892038
  84.2751884   3.7603828  25.8968687  83.5718250   2.5400594  25.3427291
  20.1611759  31.8324113  14.6529281  19.9661781  32.7268338  14.3732512
  21.1138107  31.7639208  14.5894420  19.5633842  21.0659242   9.0686780
  19.7601940  21.8466616   8.5510427  19.4714214  20.3665042   8.4216958
  17.6014377  37.7864385  41.5087509  17.5800468  38.2855177  40.6922388
  16.9463302  37.0992947  41.3866901  78.1372786   0.1314948   2.5304216
  77.4030781  -0.0490258   3.1174454  77.7386570   0.5603928   1.7732045
  81.4453220  56.6112232  17.9355991  81.0346222  57.1469355  17.2569454
  80.9050560  55.8221817  17.9775190  14.0739314  75.9468465  69.4315771
  14.6973292  76.5308195  69.8635315  13.4054629  75.7769232  70.0952825
  26.3287975  26.3320279  29.4224072  26.8244888  27.1506047  29.4438410
  25.4905083  26.5699530  29.0263128  69.1748238  21.3425159  46.7052317
  69.2346430  21.3352728  45.7499313  69.9414158  20.8490968  46.9969654
  11.7525246   6.7822701   4.5448098  12.2511722   7.2315943   5.2272242
  11.4941360   5.9517729   4.9444875  59.1586113  23.3858538  28.5086274
  59.9828053  23.0607009  28.1463957  58.5095453  23.2023025  27.8294706
  76.1670017  20.4132366   2.6031566  75.8973169  19.6198583   3.0658150
  75.6103086  21.1025906   2.9652494   5.4347755  18.1750619   5.1866293
   6.2859108  18.6029792   5.0934398   5.0704052  18.5396838   5.9931761
   0.3014232   4.4185239  27.6227450   0.6604530   4.2583209  26.7500138
   0.9930660   4.1371089  28.2216311  82.1866860  79.3617087  62.2899770
  81.7734876  79.7443514  61.5159719  82.9444661  79.9217134  62.4584907
  73.7474251  33.9699316  59.9638367  72.9226065  33.4871125  59.9109650
  73.6733055  34.4832826  60.7683325  53.5777044   4.1571587  28.7621117
  52.9646206   4.8842114  28.8705206  53.0582714   3.3756554  28.9509797
  80.0235375  55.3303741  66.1627891  80.6613263  55.6443523  66.8037852
  79.7866162  56.1092494  65.6593441  44.6577787  36.4036393  56.5903759
  45.4279184  36.8152452  56.1983299  44.3685484  37.0246029  57.2589397
   0.1880757  68.5077506  53.3192234  -0.1696428  69.2467528  53.8113075
   0.5622355  67.9336315  53.9875215  58.3084440   2.9052761  13.4840775
  57.7167177   2.5215507  14.1312635  57.7426386   3.1288660  12.7450883
   0.1525070  37.9431820  49.2316246   1.0573246  38.1922960  49.0432596
  -0.1785229  37.5982094  48.4023762  33.2516338   0.3433090   6.3139528
  34.1391041   0.6833962   6.4278114  33.1591560  -0.3188322   6.9989705
  25.2537109  25.0669527  34.3005633  25.2186252  24.9191093  33.3555007
  24.4633247  24.6457672  34.6383834  27.8383366  74.3731933  68.9677718
  28.2012860  74.5578676  69.8340241  27.4945561  73.4825473  69.0370286
  76.7493153   4.7110805  27.5108910  77.3675585   4.0600851  27.1789098
  76.1936998   4.9187064  26.7596173  73.6907005  23.2223082  13.2495868
  73.1231976  23.8922930  12.8684175  73.8762045  23.5399961  14.1332698
  42.2045477  18.2859920  56.8743353  41.8017395  18.6599515  56.0906702
  41.6382082  18.5680936  57.5926035  72.7024651   7.0731241   1.1937065
  73.2908010   6.3330311   1.3432199  73.1918144   7.6542747   0.6114406
  71.3881826  73.5721350  19.3716979  72.2889614  73.4721375  19.6796429
  71.4315701  73.3745241  18.4361231  53.1330395  22.9044533  43.0305719
  53.1489611  22.4326372  43.8632631  52.9341412  22.2326398  42.3783922
  86.0656643  15.6025279   8.9394671  86.3320637  15.5253136   9.8555994
  85.2445889  15.1133466   8.8867497  86.6940308  44.0996742  19.5514405
  86.4940166  45.0174952  19.3675172  86.0551643  43.6073685  19.0359712
   5.9288647  29.4201899   3.7484401   6.4700271  30.0586200   3.2839221
   5.0483085  29.7951245   3.7314510  77.9207039  64.9425793   0.8222856
  78.6196899  64.4274664   1.2251613  77.6167059  64.4038391   0.0918246
  55.8551073   4.6495262  48.8149023  54.9557924   4.3242344  48.7742805
  55.7893610   5.4764330  49.2925358  75.8991432  41.0395575  57.5537729
  75.6742144  41.8371105  57.0746565  75.6184626  41.2127542  58.4523582
  75.2935982   1.4272335  12.0618021  75.8766651   0.7236560  11.7767715
  75.4307604   2.1259184  11.4220691  20.7254268  11.8645632   8.7299287
  21.2190201  12.6474929   8.9741027  20.8912899  11.2454534   9.4408613
  80.9259033  40.4276943  62.7426434  81.4612961  40.4493809  63.5358143
  81.3323498  41.0707188  62.1616602  62.1825123  21.6770959  34.3331981
  61.8674660  22.5613689  34.1460037  61.5183449  21.3038802  34.9126983
  78.6437043  14.3595622  62.4864583  78.4595974  14.0268682  61.6080230
  78.3087357  13.6823247  63.0741464  14.9963619  11.3317192  18.7136519
  14.6328499  11.4431334  19.5921052  15.3094532  12.2033024  18.4716868
  15.5115654  39.6800756  27.0082688  14.8458816  39.2008638  26.5148544
  16.0615112  38.9978909  27.3935151  81.8623638  11.9235611  23.3709788
  82.5034809  11.7909503  22.6726866  82.3690605  11.8455756  24.1793156
  67.9286575   7.5337416  32.6759934  68.0141735   7.5441509  31.7226791
  67.4511385   8.3372295  32.8824210  54.1083733  78.9975720  51.8794613
  54.5846097  79.6965104  52.3277002  53.8881318  79.3678098  51.0246830
  17.1823700   8.4624885  69.0624589  17.9295834   7.9345105  69.3437701
  16.9615992   8.9923785  69.8284260  42.8514911  15.9835541  24.2004657
  42.1352436  15.7836258  24.8031735  42.4776413  15.8458221  23.3301210
  35.6600334  21.4701295  26.1526585  35.1833584  22.1103621  26.6809797
  36.1470081  21.9972873  25.5192614  39.3410923  45.2217436  20.0293493
  38.6783554  44.8503017  20.6116199  39.5110466  46.0938549  20.3853965
  76.4990759  20.0552630  29.3742156  76.8331671  19.5481622  28.6343074
  75.5610514  19.8653400  29.3906856  74.4454670  40.0147152  52.5982046
  73.6310101  40.3815174  52.2541857  74.3695593  39.0735888  52.4408722
  85.5848034  14.7903655  69.9083040  85.9163292  15.6853984  69.9806723
  85.6167611  14.5981525  68.9711461  45.4330023  78.2152913  13.0169046
  46.2769802  78.5537333  13.3158827  45.3450974  78.5466067  12.1231842
  51.0996397  62.7368934  17.2290075  51.6768559  62.6761431  17.9901659
  50.7303627  61.8585212  17.1377385  83.1083202  26.3739491  10.2393341
  82.1915150  26.1462307  10.3937733  83.3887959  25.7795548   9.5434475
   2.2508861  43.5370064  24.5851636   2.3406174  44.2996740  25.1565814
   2.0527222  43.9049292  23.7240028  32.0139710  81.4959603  65.8248859
  31.2554280  82.0636349  65.9612306  31.9839398  80.8767968  66.5542494
  30.5332963  67.5032072  63.8395249  29.9748341  67.5297480  63.0625813
  30.5627076  68.4100657  64.1444420  58.8659430   0.1590306  12.1159768
  59.2353487   0.6130455  12.8733695  59.5546389  -0.4457016  11.8398833
  85.5799594  63.6108833  57.8290122  86.5138020  63.6864787  57.6328950
  85.5269542  62.9052620  58.4736209  29.7484549  15.5546783  39.7828536
  28.8486727  15.7679485  39.5355850  29.7073706  15.4006789  40.7266932
  80.7777119  24.7313356  16.9977570  81.3500309  24.4019008  17.6906943
  81.3771534  25.0318098  16.3146615  15.3726572   6.1310714  46.3767385
  15.3728145   5.1858180  46.5274525  14.6708530   6.4627974  46.9367981
  24.9646713  10.7970917  37.8255057  25.0967171  10.0864446  38.4530187
  25.8455326  11.1274672  37.6489377  26.8969878  74.5096810  42.3672199
  27.4436291  73.7444795  42.5457621  27.3259409  75.2252228  42.8365088
  25.6417950  79.6747118  25.5615544  25.7905873  79.1714185  26.3620472
  25.6483372  80.5879801  25.8481383   2.1940281  15.7833457  16.8527293
   1.4437439  15.7270789  17.4444544   2.9450752  15.5413890  17.3945844
  76.5287018  50.3307772  54.3933201  77.4013090  50.3918791  54.0046549
  76.4016390  51.1728811  54.8302984  20.7800118  74.5459466  49.0835267
  21.0619513  74.2066436  49.9330049  21.3015239  74.0584808  48.4458476
  55.6646490  11.7762291  15.3839386  54.8915195  11.3179529  15.7133067
  56.3981771  11.2080204  15.6191075  14.2447903  45.0447559  37.0901442
  14.1354896  44.3650246  37.7551651  15.0355484  45.5144024  37.3554015
  77.0237923  67.3667383  44.8178482  76.5773964  66.6729403  45.3032398
  77.3416185  67.9654932  45.4936552  82.8704991  70.3088026  69.4967903
  83.1089415  70.0617843  70.3902998  82.2212138  71.0036593  69.6055733
  23.7447373  70.7374721  67.3638373  22.7993600  70.7903009  67.5041976
  24.0758721  70.2761226  68.1343844  16.8973400  29.6904778   6.8545491
  17.1897079  28.9140844   7.3320085  17.3026039  30.4234052   7.3180270
  15.8087494  37.3983669  32.5224423  15.3568699  36.7810202  33.0976963
  15.2013828  37.5371575  31.7957497  58.2319657  65.7730370  69.6149109
  57.8325955  66.5888339  69.9169264  58.4956090  65.3237777  70.4179614
  62.0169210  24.7643852  14.1075933  62.4499750  24.1476464  13.5173988
  62.7031660  25.3861880  14.3498003  56.4154339  21.2449789  18.2202256
  55.9624958  22.0636940  18.0182660  55.8988047  20.8527851  18.9241529
  55.6950515   7.4095576  32.6307416  55.1984924   6.9345038  31.9644237
  56.4454883   6.8455260  32.8176832  31.5291073  51.4075804  27.2864366
  31.2023594  51.8431711  26.4992070  31.0075046  51.7773771  27.9987693
  11.0165836  68.5337830  15.6704044  11.9069149  68.8752270  15.7537353
  10.8300354  68.5776424  14.7325826  81.5441418  51.5464211  18.9447367
  80.6072330  51.7398500  18.9767647  81.5891743  50.6152248  18.7277770
  73.3240136  23.8798450  59.2026895  72.7743061  23.4075902  59.8280125
  73.1974896  23.4163497  58.3748012  22.9186107  27.7021646  19.0559876
  22.2711040  27.0621443  18.7604523  22.4614670  28.5421133  19.0143096
  56.0159127  65.3548556  57.7447682  55.7697789  64.8969012  58.5484629
  55.7050530  64.7862416  57.0403021  76.7821264  48.3955812  43.5896540
  77.3802137  47.6484346  43.6069202  76.6570950  48.6236334  44.5108414
  85.2744484  15.8655763  31.1764097  85.8849621  16.5441525  30.8882332
  85.6379128  15.0521255  30.8265185  19.5667126  61.2578726  25.0981283
  19.0085174  61.7812157  25.6732440  20.2789356  61.8486166  24.8531961
   6.1527778  77.0279264   3.7117603   5.3665497  77.4736929   4.0269807
   5.8438351  76.4776707   2.9920340  71.2227837  49.4722008  53.1723540
  72.1150319  49.7611194  53.3637827  71.3258473  48.5803222  52.8404456
  64.4667729  20.6130861  41.4412766  63.8546856  19.9147247  41.6733795
  64.8581036  20.3243755  40.6168180  68.0214882  33.8358450  13.5368133
  67.2407675  33.3785915  13.8492727  68.3913374  34.2415619  14.3209267
   0.7178642  29.1929722   3.3040392  -0.0905464  29.6930313   3.4165105
   0.5108883  28.3230782   3.6456221   4.5513298  62.6126194   9.8178762
   4.0822937  62.0471144   9.2043257   4.9117424  62.0116472  10.4699266
  15.3460838  55.9721613  14.8819685  15.9863331  56.4058352  14.3178391
  15.6168415  55.0540876  14.8898900  11.2670566  65.8461237  13.7660396
  10.5466606  65.2325392  13.9101720  10.8469345  66.6297770  13.4116220
  11.5602733  37.6786327  31.6013980  11.6748859  38.5674858  31.2651896
  12.2062160  37.6030660  32.3037314  51.2334259  33.6523030  69.6781726
  51.7162903  33.9580129  70.4460353  50.3302678  33.9257358  69.8386888
  61.1655474  41.4582777   2.6981172  61.5640068  42.3251152   2.7759415
  60.3873348  41.5999126   2.1590826   0.3660633  23.7645531  33.5636663
  -0.1533459  24.1073751  32.8363991   1.1914207  24.2470860  33.5169005
  67.0976877  34.0401912   9.0143651  66.6588736  34.7224259   9.5225292
  66.4179325  33.3852696   8.8554859  74.2946442  10.3050492  70.2994593
  74.8185356  10.3076194  71.1005599  74.9340828  10.4088281  69.5947738
  81.9675827  68.7967682  14.2641008  82.0266819  69.7520351  14.2784190
  82.7920532  68.4999943  14.6493328  53.4955700  37.6859639  57.6110106
  53.1844815  36.9062446  58.0708950  54.3419846  37.4272750  57.2464555
  15.9540035  41.9260120  16.6040492  15.5762817  42.5230360  17.2499001
  15.7670261  41.0522938  16.9473863  83.8036156  43.0674314   4.5191094
  84.6777534  42.6774502   4.5256919  83.9468765  43.9717197   4.2398867
  76.0753345  16.9802213  38.3198690  75.9320116  17.3282576  37.4397779
  76.8108034  16.3755441  38.2214689   8.9357998  18.0253887  25.2733016
   9.0247585  18.7743104  25.8627367   8.6366608  17.3115468  25.8364868
  38.3688499  15.3243518  15.2068496  37.4198105  15.2366173  15.1181781
  38.6349727  15.8329272  14.4408464  77.1628428  63.3817148   8.8344890
  76.9597816  62.4891281   9.1142857  76.7616224  63.4584856   7.9688329
  14.4121029  27.1022582   0.4707070  14.8981811  27.7313781   1.0037851
  14.9308826  27.0145917  -0.3289303   5.2622463  41.3266230  41.1635447
   4.9152519  41.0063219  40.3309345   5.2850105  42.2782850  41.0633087
  22.5867512  45.3869581  20.3078127  22.7486088  46.3154745  20.4748130
  22.1693374  45.3676987  19.4466352  54.7896051  46.2983084  52.2305298
  55.6038189  46.6360235  52.6036644  54.1187811  46.9165659  52.5203323
   0.4490902  30.4401064  36.2113190  -0.2809666  30.1569366  35.6608033
   0.1991226  30.1739788  37.0961475  21.5370800  34.8126793  37.6882505
  21.1566021  35.6192660  37.3405647  22.3914577  34.7475529  37.2616076
  62.3864563  20.0705980  51.7963713  63.0096253  20.1138137  52.5216501
  61.6145619  19.6444200  52.1688884  75.0635386  48.9499378  34.8000574
  74.8519135  49.8640394  34.6106839  74.3342161  48.6417198  35.3379488
  72.9505968  62.3937798  17.9103255  72.6432323  63.1791830  17.4576688
  73.3958626  61.8854284  17.2324228  80.2872562  68.3062649   9.0470678
  80.5012894  67.8065681   9.8349297  79.3615723  68.1203747   8.8896412
  58.0470037  29.7646737  53.7169075  57.8781891  29.9677634  52.7968597
  57.7936125  30.5585623  54.1878271  60.3700291   8.8760013  12.8703875
  59.4670380   9.1718120  12.7549071  60.3704425   7.9755230  12.5457854
   6.2416065  38.7841272  40.8652067   5.8311504  39.6436167  40.9602785
   5.9878361  38.4930801  39.9893498  47.7057918   0.9973831  41.0362525
  46.8892689   0.5125637  40.9159369  48.0111899   0.7400341  41.9061656
  51.5872828  65.0099565   2.3175854  51.2681262  65.5986406   3.0015606
  50.8148281  64.8205497   1.7849774  63.6649152  13.0348177   2.9029269
  62.7447190  13.1237239   2.6547999  63.6483987  12.9442186   3.8556857
  53.5167452   4.1801519   2.8878064  53.4615042   3.4789295   3.5370154
  53.0170842   4.9011297   3.2708973  40.7301648  40.3468628   4.5270485
  40.9485849  39.9205417   5.3557677  41.3587161  39.9884815   3.9003748
  85.7949652  71.4018536  65.6467009  86.1670659  70.5391598  65.4635668
  84.9785806  71.4214802  65.1473379  62.4038861  40.9705639  38.3241272
  62.0892428  41.5451193  37.6261854  63.3290718  41.1960602  38.4211493
  48.3041433  70.8743550   1.5264983  47.3939077  70.9423973   1.8147225
  48.7908439  71.4275266   2.1375222  56.8992456  35.5098552   6.0226960
  56.4320814  35.2882499   5.2171654  57.3976817  36.2966175   5.8017964
  42.9808005  11.9589252   6.9153733  43.3679207  11.9312782   7.7903647
  43.6763056  11.6480751   6.3358254  13.2751119  62.1040773  64.3527412
  12.9422820  61.2823725  63.9918232  12.9344225  62.7789545  63.7656307
   3.8087064  19.2504072  68.9410639   4.4358343  19.4968545  68.2612085
   4.1247341  18.4065235  69.2638922   2.1049756  44.0709639  57.7787781
   1.5292968  43.4718609  57.3034906   1.7661195  44.9422741  57.5732803
  80.6650834  60.2353048  24.2288542  80.3787468  60.5847836  23.3849883
  81.1237089  59.4243860  24.0090799  42.6718394  46.5943875   3.9681811
  43.4283058  46.9817443   4.4085736  43.0259971  46.2363668   3.1541676
  85.7278365  76.0468960  59.2167187  85.8958352  75.4890966  58.4571981
  85.1711134  75.5154037  59.7857571  85.5332137  36.4880323  34.6077991
  86.1966267  37.0163035  34.1639018  85.8685431  36.3808870  35.4979157
  10.0870180  15.6892550  66.1179256   9.6289903  15.0889277  65.5296659
   9.8125583  15.4212165  66.9948864  81.0324369  42.8309822  45.1810074
  81.7759286  43.1053925  45.7178020  80.8732353  41.9229460  45.4386091
  76.3769897  18.4583349  14.0143675  75.7723089  18.7708587  13.3413691
  75.9356983  18.6519212  14.8414225  23.0579503  20.7767791  26.0431952
  22.6796349  20.3483505  26.8110270  23.7356003  21.3515014  26.3991732
  17.6686454  40.8859062  57.7960014  18.0084336  40.0220537  57.5624704
  17.6325285  40.8785200  58.7524891  36.3122276  67.9925253  14.1565413
  35.8079265  68.8013603  14.0687937  35.6513135  67.3012044  14.1952319
  82.7188166  17.6378603  29.8896880  82.9916056  17.4633188  30.7904429
  83.4988244  17.4593896  29.3643660  25.1922933  71.4578225   2.0111174
  25.3171418  70.6173231   1.5704293  24.3141888  71.7364241   1.7512269
  13.4157085  20.2253342  59.7483873  13.9530909  20.4519486  60.5074024
  12.5634599  19.9951959  60.1184416  61.1596875  10.8087701   1.4099259
  60.3092958  10.7997579   0.9706254  61.6962703  10.1972122   0.9056372
  79.8447261  19.5553076  43.1858778  79.9928699  20.1175022  42.4254704
  80.6549345  19.6181619  43.6916924  65.9836330  12.9862327  16.4543624
  66.1806013  12.8838796  17.3854632  65.5635836  12.1626205  16.2064547
   1.8997780  75.6216075   2.9432435   1.2605588  74.9967148   3.2855029
   1.4494411  76.0506608   2.2156853  85.5528823  53.3310175  42.9884243
  86.2487113  53.4686565  43.6311579  84.7437547  53.3776617  43.4977055
  60.5348943   7.9468817  69.1276836  60.3134559   7.6627564  68.2408571
  60.5629299   8.9021164  69.0731621  41.4417227  25.7583541  19.2322726
  42.1179803  26.2731142  18.7919039  40.6867452  26.3449068  19.2791361
  57.7928392  72.7492883  11.0309786  58.6256401  72.7207448  11.5019984
  57.4180118  73.6001469  11.2585253  26.3070498  81.3774707  17.1233649
  26.0456295  81.8295314  17.9255766  26.6077963  80.5184151  17.4196810
  77.4230931  27.1238542  70.0798512  77.0622484  26.9977856  70.9574223
  77.0197259  27.9344201  69.7691870  29.6657491  28.7396383  31.2874675
  29.8555517  28.1157303  30.5867910  30.5036640  28.8603091  31.7341971
  81.8652098  38.0372167  61.6978359  82.6181535  38.6201382  61.7953539
  81.1080168  38.5893273  61.8929386  47.9882707  24.6083183   5.9139103
  47.8246631  25.4440755   6.3509125  47.1640082  24.1289157   5.9975524
  35.2624748  65.2702333  13.3773703  35.4500107  65.1450803  12.4470992
  35.4995124  64.4366266  13.7837500  60.4721139  51.6133881  41.8912888
  60.7925318  52.0136690  41.0829973  59.8753832  50.9250355  41.5974903
  83.5962258  30.6635022  32.5784278  83.5149033  31.5803123  32.3155999
  82.7349598  30.2858806  32.3999548  23.4158675  79.9584200   8.3869309
  22.9955433  79.3070699   7.8254122  22.6909492  80.4758074   8.7376971
  42.9449018  22.9577179  19.2256159  42.1365865  23.1829567  19.6861929
  43.0361994  22.0130462  19.3500514  73.1618617  74.8041248  61.6960955
  73.2723747  75.4601908  62.3842812  72.9311441  75.3105021  60.9172630
  51.3210263  22.8371496   8.1276555  50.3701975  22.7437753   8.1862826
  51.6184719  22.8347797   9.0374655  13.3682446   4.1390364  69.1994190
  13.9365689   4.9032729  69.2952728  13.8500289   3.5541098  68.6146259
  68.8079212  28.5842013  60.5459738  69.4574867  28.0099082  60.1404095
  68.5729538  29.2048049  59.8561382  12.0724487  52.8174257  52.2830820
  12.6513684  53.3983612  51.7895269  11.1914110  53.1407118  52.0946884
  14.8780727  48.9497614  51.7090464  14.0335321  48.6227608  52.0189714
  14.9707234  49.8065090  52.1257353  22.7097654  29.8393536  56.5499496
  22.9117846  30.4241443  55.8195829  23.5645866  29.5467329  56.8659925
  63.7346538   0.5332775  13.3997817  64.6798177   0.5878086  13.2586379
  63.6440553   0.2694721  14.3154425  20.7240415  17.0241904  65.4908323
  20.0056291  17.6194119  65.7049036  20.9899545  17.2778440  64.6069860
  72.7002760  41.7793960  10.4670424  71.9295009  41.9798870   9.9360556
  72.8957458  40.8634872  10.2692408  82.9308815  62.3378754  66.7159081
  82.8632952  63.1397104  66.1975241  83.7757225  62.4102831  67.1600199
  68.9256738  63.0630922  44.6248960  68.1612919  62.6433849  44.2301798
  69.6513472  62.4696112  44.4314766  73.3930050  43.5640001  63.6478615
  73.6581920  44.3915415  64.0492153  73.8045238  42.8917074  64.1909170
  48.7994746  70.3906323   6.1612601  49.6288029  70.3423716   6.6367764
  48.3468751  69.5776822   6.3859791  53.3751534  68.8900900  39.6383286
  53.7109826  69.1296053  40.5020857  53.1019209  69.7206688  39.2488217
  21.8980980  34.1327119  64.8716927  22.0724225  33.9698982  63.9446878
  20.9432316  34.1474986  64.9368477  25.1918530  21.3651681  48.9004374
  25.5521488  21.0606599  49.7333193  25.0563097  22.3042154  49.0271330
  63.7451841   0.2277679  23.5977358  64.5367076  -0.2996331  23.4901709
  63.6502798   0.6898994  22.7648730  49.5696799   1.2440150  46.6441393
  48.7005655   0.8932250  46.4496565  49.6983711   1.9374984  45.9970284
   6.4806736  50.7197475  51.2344980   6.2530380  51.5575695  50.8314228
   7.3021775  50.4667139  50.8133841  32.9257226  61.0601091  63.0003977
  32.0492148  61.4310741  62.8986502  33.4951830  61.6531801  62.5102806
  79.9385403  34.5391870  46.7915726  80.4959784  34.3487334  46.0371017
  79.0542035  34.5910573  46.4289570  77.3763840  51.4630127  51.2490177
  77.9963837  52.1922779  51.2492371  77.6740907  50.8953285  51.9598913
  21.8259243   1.8874877  51.3017035  22.2091637   1.2280886  51.8801069
  21.2097029   2.3645537  51.8575048  38.7316044  23.1626339   2.7904982
  38.9384325  22.4261446   3.3658547  38.3840962  23.8345403   3.3770222
  60.7258938  44.3060589  50.5324936  60.1036142  44.0628815  49.8470259
  60.7639836  45.2617025  50.4933453  41.8770405  20.2135105  30.7698054
  42.0210334  20.1171751  31.7111964  42.5939389  19.7239751  30.3665156
  78.5026590  46.8167877  50.8947897  78.8995300  45.9739399  51.1146402
  77.8196566  46.9391823  51.5541506  79.1028984  76.1948509  15.3741164
  79.0170010  75.8809108  16.2742705  78.4103091  75.7401390  14.8947520
   7.0174491  63.0075407  67.7973270   6.6142809  62.1614599  67.6028013
   6.4018536  63.4349394  68.3928108  24.3269515  69.1552114  29.3106627
  24.3831325  68.2631922  29.6532631  25.1638961  69.5554638  29.5463657
  80.5420240   0.7557220   6.1054034  79.7126969   0.4706401   6.4890332
  80.6306012   0.2312917   5.3095622  20.6255929  67.0484974  26.7695612
  21.4059810  66.5119387  26.9085974  20.9614907  67.8735496  26.4192862
   5.3710145  58.4690714  42.7779770   6.3181299  58.5570240  42.8850698
   5.2677900  57.8111076  42.0904732  65.6503965  29.1415042  15.3621955
  65.0466468  29.8756141  15.4753298  65.7556965  29.0619106  14.4141478
  54.8000717  11.3879359  39.3105936  54.0186262  11.9211090  39.1646504
  55.4432201  11.9989717  39.6700764  74.0497385  37.0597720  51.7136431
  74.1601871  36.5766907  52.5325871  73.1214140  37.2924495  51.6961479
  67.6712249  66.1300993  28.7233090  67.6798199  67.0617771  28.5039306
  67.0824347  66.0665274  29.4753170  36.7645643  59.8792648  47.4192715
  36.5657662  60.0535774  46.4993095  35.9080122  59.8211527  47.8425598
  51.7996927  38.8112802  12.9894442  52.4643912  38.6653204  12.3163123
  51.5567823  39.7318477  12.8905482   2.6721767  68.8722181  45.1326990
   2.2350982  68.5860920  45.9347725   2.6846328  69.8273468  45.1943731
  11.8777061  68.8555574  63.6219692  12.7051342  68.6270475  64.0455008
  12.0353830  69.7180557  63.2379627  73.1823631   9.8146028  22.8791613
  73.6971648  10.2626009  23.5503668  73.2830199   8.8844080  23.0812640
  39.5554395  27.4682207   9.4759459  39.9885889  27.1047372  10.2482695
  39.4966372  28.4069032   9.6538539  24.2110419  15.1287007  50.9747696
  23.4819555  15.7447028  51.0469437  24.9813437  15.6389403  51.2248135
  40.5515663  76.8513681  14.7567267  40.2693943  77.2691323  15.5704112
  41.4656524  77.1168234  14.6556658  68.7988551  27.0165081  21.8172354
  69.0368970  27.6242942  22.5173564  69.0965732  26.1622829  22.1301264
  24.1262221  29.2939186  63.0301189  24.4963908  28.7773228  63.7458897
  24.6112704  30.1187658  63.0542898  20.3769064  36.2056112  68.4407473
  19.6471167  35.5987263  68.3169413  20.4025984  36.7174172  67.6322746
  65.2128045  11.1053221  47.0009708  64.4406883  11.6631835  47.0951080
  65.1951734  10.8243315  46.0861158  74.3658600  33.0981326  52.1910143
  74.5406817  32.6451921  51.3660812  75.1399933  33.6426520  52.3340082
  84.5488628  47.6189060   7.0240445  84.8957427  46.8035812   7.3861832
  85.2722152  48.2412643   7.0992894  63.3373586  81.2994601  33.7666030
  63.5675685  80.3780462  33.6472888  63.9056079  81.7692878  33.1562037
  79.8192839  73.7078047  52.4475813  80.5221550  74.2841959  52.1476221
  79.4911979  73.2945251  51.6489601   2.9555011  35.5918598  51.9491291
   2.5238967  34.7600055  52.1439838   3.8694435  35.4511929  52.1964264
  62.4234529  24.8218603   5.2538294  63.3612498  24.8237485   5.4455752
  62.0983126  25.6349296   5.6403966  21.4357853  49.5093536  69.2202044
  20.9039187  50.2207279  68.8634157  21.6045284  48.9376163  68.4712887
  18.2532930  41.7273617  67.0094299  17.6960397  41.3763762  66.3148022
  17.7917218  42.5081730  67.3152399  14.8581898  51.5073013  52.4524117
  15.4404104  52.2666168  52.4786711  14.0992165  51.7693043  52.9735088
  15.8489792  49.8885556  12.3537058  16.3689987  50.2684285  11.6455359
  14.9422053  49.9820061  12.0617194  28.1989708  10.1495784  56.4941978
  27.3926417   9.6961158  56.2483454  28.8080548   9.9588530  55.7808399
  53.3640792  31.4551515   7.6040072  52.9215046  30.7052726   8.0015511
  54.1415577  31.0818786   7.1887631  72.4754186  26.6344089  19.3187708
  72.8667017  25.9716005  19.8878188  71.8744405  26.1440057  18.7579150
  84.6224968  65.4957225   2.4286694  85.4148571  65.6793334   1.9240136
  84.1092388  66.3015725   2.3702902  62.3072354  68.4675838  10.6099982
  61.3725940  68.5278179  10.4123873  62.3852030  68.8022401  11.5034003
   2.4537556  67.2307396  51.8657398   2.0338416  66.9238138  52.6692915
   2.4323168  66.4738798  51.2801313  18.4207380  53.0302000   1.1522143
  18.3833957  53.3627129   0.2554019  18.6527634  53.7934685   1.6811910
  30.6934078   5.9365148   1.5562672  30.1057728   5.2069492   1.3596720
  30.3767474   6.2807722   2.3913951  74.0502988  63.0003166  43.0668497
  74.9606274  62.7407551  42.9248476  73.8269745  63.5220432  42.2960281
  50.4853652  55.3097916  51.1145306  51.0759638  55.2897835  50.3615236
  50.8219956  56.0174322  51.6642141  12.0948684  58.8739109  55.7839727
  11.6513300  58.4317446  56.5078449  11.4206111  59.4302177  55.3939342
   8.8085518  29.0651865  12.2181029   8.5386453  29.0164060  11.3010401
   9.2882810  28.2509679  12.3702139  45.4793326  16.0327285  62.2489452
  45.5550472  15.2200549  61.7488909  45.3630141  15.7465308  63.1549215
  15.7754932  14.8048086   5.3953356  15.9003100  14.4658823   4.5088954
  16.5530334  14.5167989   5.8735747  21.2603760  64.2380714  49.0249872
  21.1053205  64.7915459  49.7904015  20.8782220  64.7257853  48.2953787
  64.2954968  73.5807562  45.2659845  63.7117217  72.8388977  45.1076078
  63.8020466  74.3428373  44.9627209  37.4442873  15.9847873  56.5565348
  37.4287883  16.9018214  56.2825966  36.6280351  15.6191294  56.2155628
  65.4692109  26.9006986  25.8535761  65.6971075  27.7547712  25.4863448
  65.9191604  26.8752975  26.6980452  81.5574773   4.2191095  19.7329611
  82.4424299   3.9473409  19.9763484  81.5247138   5.1507110  19.9503798
  30.2727318  23.8724899  62.9490614  29.9237633  23.0805254  63.3580208
  29.6263838  24.5497584  63.1484890  28.9814027  37.1779127   4.4807620
  29.2389496  38.0764026   4.6872181  28.0246671  37.1908111   4.5076556
  72.1717618  71.9965029  56.3034248  71.3902889  71.5095520  56.0418653
  72.7415286  71.9657373  55.5348825  85.8266123   1.8437643  12.5676722
  85.3104337   1.0664911  12.3540301  86.6265090   1.7496891  12.0504279
  21.8145785  29.9448270  27.6660342  22.4582133  29.6022863  28.2862181
  21.0385356  30.1197738  28.1983752  45.5514816   0.8264392  63.9885044
  45.1347999   0.5331843  63.1781912  46.0151438   0.0542300  64.3124676
  67.1864231  17.2043676  26.4601130  66.5672090  17.9306335  26.3870139
  68.0004259  17.6124210  26.7552752  33.0574651  13.5834544  49.3742514
  33.4921027  12.7306311  49.3729162  33.6488588  14.1544478  48.8838911
  54.8036693  59.3021107  51.3906288  54.3795894  59.9909592  51.9023657
  55.5521725  59.0340996  51.9236851  81.5731517   6.9604914  46.4447308
  80.7359354   7.0933574  46.0001564  82.0863907   6.4299624  45.8353376
  51.7110773  42.0247860  17.8711505  51.2064840  41.2350578  18.0659575
  52.4009218  41.7279167  17.2776694   1.3835559   4.5305605  12.0917887
   1.5230641   5.1823206  11.4047808   0.4715619   4.6522636  12.3557658
  39.6229271  75.5756881   5.8619589  39.7847120  75.2109410   6.7320294
  38.6985908  75.8240392   5.8744521  53.7376348  70.7337477   1.5165181
  52.8772203  71.0651519   1.2594409  53.6053888  69.7936823   1.6390700
  18.9929042  80.3356220   0.1350493  18.8217429  79.5197751   0.6055064
  19.5544265  80.0773503  -0.5958562  47.8985445  63.6623790  19.6314139
  47.6354126  62.9437615  19.0564532  48.6784295  64.0291216  19.2148585
  25.5239375  15.2955074  26.6421027  26.2153419  15.9573288  26.6285224
  24.8353537  15.6570167  26.0840697  11.6829979  66.5328503  66.3911676
  11.2135136  67.2595024  65.9815454  12.1659660  66.1244059  65.6727362
  52.7934553  34.1396827  12.6097865  52.2941383  34.5202035  11.8872160
  52.1933379  33.5108442  13.0106062  59.6225384  11.4724273  27.1612925
  58.9033922  10.9127254  27.4541945  60.0599288  11.7425890  27.9687113
  35.1377463  66.8031168  62.8174257  35.4095101  67.5034952  63.4105921
  34.3613219  66.4263630  63.2314968  50.5228511  77.2923662   2.0903391
  51.3990490  77.4440409   2.4446005  50.0030653  77.0185115   2.8460211
  84.5895384  61.9457865  59.7091961  83.8839958  61.3712740  59.4119120
  84.4336562  62.0505953  60.6477833   7.3462574  14.8752444  68.9252329
   8.0922667  15.4722350  68.9827490   7.2493831  14.5268767  69.8115110
  65.2758312  77.2472620  52.7508545  65.7493114  76.4280176  52.8953838
  65.6381655  77.5925732  51.9349480   7.2058284  29.5542240  42.5230646
   8.1195498  29.5327163  42.8074646   6.7157871  29.1986775  43.2644701
  77.7833970   2.0345277   0.1127810  78.0127128   2.5511808   0.8852524
  76.8338652   2.1276064   0.0356144  10.1645577  35.5975199  50.6636810
   9.8735261  36.2070560  49.9854517  10.7561243  34.9979091  50.2089882
  53.2784056  44.3670387  17.7088351  52.8132622  43.5434551  17.5618834
  54.1934874  44.1088695  17.8193278   9.7708941  76.5519524  58.8944817
   9.1491514  76.3175249  59.5834732   9.6299267  75.8963346  58.2114506
  20.6378273  81.0170056  12.0441050  20.0176160  80.3939630  11.6654391
  20.3356544  81.1387469  12.9441638  45.7318695   2.5157327   9.1545195
  45.9227677   3.0915374   8.4140868  45.4691668   3.1092996   9.8580069
  17.7253938  32.4589062  33.9532852  18.3271122  33.0026627  33.4448624
  18.2334375  32.1910930  34.7190547  47.6896723  32.7937765   0.5403037
  47.0267721  33.4467525   0.3157610  47.1918185  32.0639200   0.9086604
  24.5447087  38.6385751  61.3547421  25.3164029  38.6381769  60.7884216
  24.8374343  39.0687943  62.1581459  41.1235162  50.5596084   0.5031867
  40.4831620  50.7572002   1.1866612  40.6652256  49.9637050  -0.0893455
  70.3678237  71.9002104  49.7708035  69.7337769  72.6139593  49.7016907
  70.6880603  71.9506884  50.6714344  77.9424785  71.6369200  18.7135124
  78.6950771  71.5180588  19.2929077  77.3440419  72.1953821  19.2097211
  47.2743193   6.2779849  52.2238684  46.3263373   6.3392680  52.3413658
  47.5075559   7.0708030  51.7408943  48.7501709   6.1299556  48.8349199
  48.1642679   5.9536402  48.0988026  48.2999007   6.8046229  49.3431616
  81.9479708  38.2753277  32.3679185  82.1974937  38.3895922  31.4509058
  82.4251415  37.4951625  32.6505518  57.1805618  27.1490455  54.3298292
  57.8054712  26.8482256  53.6701107  57.2303317  28.1040788  54.2890072
  73.8190852  51.6019773  48.7637663  73.8817499  51.8614101  49.6830034
  74.7280572  51.5344334  48.4714603  12.3504770  38.0706930  59.9481440
  12.0041323  38.4961200  60.7325459  13.1110203  37.5791407  60.2582741
   2.2868047  28.0441684   8.2100672   2.9168377  28.0563135   8.9305825
   2.8253923  27.9709596   7.4221606  76.0607515  52.5416946  55.8965206
  75.1660524  52.4742031  56.2299728  76.6080747  52.2181082  56.6120338
  66.5050958  46.2160683  41.3852024  66.1511062  46.3824463  42.2588396
  67.2063182  46.8597603  41.2843227  31.7099651  16.7871542  14.2355628
  31.1963256  17.4649067  14.6749587  32.3343786  17.2719926  13.6958689
  85.4582521  55.9190845  48.7039042  86.1449044  55.8179235  48.0447340
  84.7876374  55.2848339  48.4504700   2.8953531  36.0802317  43.2992363
   3.7986374  36.3616490  43.1539297   2.5055578  36.7843127  43.8174677
  24.6210432   3.5873175  60.3497553  25.3109574   4.0946668  60.7773638
  23.9148092   4.2171791  60.2057457  19.1947877  69.1859341  44.0630627
  18.9036405  69.0723324  43.1583166  18.4126186  69.4773912  44.5315647
   7.1903056  54.8187160  44.5518017   7.1976769  54.8289776  43.5946846
   8.0934203  55.0157261  44.8004007  20.6277657  42.5040436  61.0147238
  20.6398606  43.1648111  60.3222847  21.5512228  42.3168993  61.1833620
  54.7779973   0.7415742  13.5491843  53.8801785   0.4709215  13.3570952
  55.0376802   1.2652130  12.7911563  16.7499518  63.1616068  57.5677872
  15.8126426  63.3097696  57.4423552  16.8402612  62.2090816  57.5955725
  69.6907182  24.9548025  23.3712096  70.4172762  25.0469560  23.9875311
  68.9180442  24.8481912  23.9260478  72.5357493  10.1708145   2.5791545
  72.8191336   9.4829149   1.9768948  72.3404403   9.7095174   3.3948130
  10.8195579  69.7980309  36.2483168  11.7187929  69.8314714  35.9219885
  10.7928741  69.0141582  36.7970085   4.8674467  64.3917418  69.6577644
   3.9132908  64.3384314  69.6032095   5.0328773  64.9667072  70.4049492
  85.8154956  44.9460220  39.0783572  86.5796739  44.3884277  39.2244887
  86.0929692  45.8141375  39.3709445  69.1742252  13.5423040  54.6439791
  69.6968792  14.0028524  53.9875078  68.7698911  14.2394805  55.1604033
   0.2853737  24.1938753   3.3004469   1.0857425  24.3432111   3.8037724
   0.5504332  24.3122978   2.3883338   7.6233349  58.8697357   4.3132681
   8.1997714  58.9946861   3.5593838   8.1337319  59.1837425   5.0596804
  11.4746678  69.9147606  60.2952242  11.9330382  70.4945946  60.9034348
  12.0122254  69.9251127  59.5032930  80.2633651  43.6334915  18.8647074
  80.0214608  43.5109157  19.7826857  80.9917076  43.0280799  18.7260527
  72.4276407   7.4131078  10.4437728  72.8786619   7.2106428   9.6241278
  72.4944313   6.6090698  10.9588427  84.3891676  52.6373500  17.2074027
  84.4420083  52.6204891  16.2518115  83.7746318  53.3452816  17.4008460
  71.4212022  71.0473967  63.6183262  70.6808053  71.0413647  64.2249632
  71.1801575  71.6915703  62.9526138   6.1722189  72.6673031  70.2265930
   5.9377348  73.3951998  69.6509027   6.4466923  71.9698715  69.6312094
  86.0935108  21.9503634  42.1113062  85.4313461  22.4232428  42.6154470
  85.8435814  22.0894377  41.1978388  82.5918849  15.0242014   5.8415312
  82.3685249  15.8397073   5.3928752  83.3348664  14.6755571   5.3489251
  82.2198780  37.0734043   9.9673743  82.5475009  37.9710502   9.9114985
  82.3921045  36.7013044   9.1024441  24.9958944  64.1264439  55.2647209
  24.5575380  64.8313046  55.7414246  25.4185796  63.6033821  55.9458780
  67.8571145  81.3068272  11.3580794  68.4141294  80.9509398  12.0504088
  67.5423447  82.1401002  11.7085356  31.6647432  11.8688529  58.2183981
  31.6823570  10.9923213  57.8341913  30.9702230  11.8282740  58.8758373
   6.9277582  38.2000513   7.2892232   6.4776168  38.5923070   6.5410609
   7.7867208  37.9508371   6.9481844  58.9080214  33.9362449   8.5372586
  58.7760521  34.8842353   8.5484500  58.6372943  33.6670799   7.6594824
  86.2165590  74.3052197  62.9354572  86.4620433  74.9758101  63.5728550
  87.0507300  73.9531755  62.6248837  62.1025132  46.7745037   9.2666525
  62.9104408  47.2842331   9.3271441  62.2682940  45.9984512   9.8019023
  21.2229333  29.7364873  18.5579485  20.3398547  29.9039573  18.8871283
  21.1240516  29.7171230  17.6060671  72.8182880   3.1811946  52.2216415
  72.2933189   2.5585883  52.7246332  72.3058025   3.3413451  51.4292097
  82.0840200  39.4778270  15.9311385  82.8732188  39.9223632  15.6216425
  81.4250263  39.6669788  15.2631754  17.4005365  31.8486452  60.2773666
  18.0904734  31.5932226  59.6650124  16.7823100  32.3502827  59.7459650
  57.2434403  44.3139762  13.1703658  56.7620969  44.1608543  13.9834494
  57.6896187  45.1492614  13.3098406  24.2808437  66.8340492  64.3916368
  24.1000247  67.7697992  64.4805813  23.9620543  66.6105604  63.5171890
  60.5943893  69.7784328  61.0590601  61.4680169  70.1689386  61.0363770
  60.5663965  69.3021631  61.8888855  12.0937777  58.7541389  66.7711592
  11.3014269  59.2907000  66.7939234  12.8109503  59.3872881  66.7392063
  37.4769855  56.9846964  21.4784479  38.0573940  57.4659729  20.8887625
  36.6295815  57.4207497  21.3890529  25.2874970  31.9657707  58.8534737
  25.9708333  32.6358342  58.8361597  24.4972157  32.4364066  59.1184044
  53.1971358  53.7905807   4.5978398  52.8678860  52.8920669   4.5755381
  53.7134277  53.8365764   5.4025502  59.2604866  49.9335880   6.5506215
  59.7271160  49.1007728   6.6206307  59.9528255  50.5931587   6.5074391
  62.9011573  38.2265205  10.6256861  63.7796750  38.4019775  10.9628100
  62.3133736  38.5729236  11.2970633  66.8289181  35.1689310   6.4153618
  67.0337607  34.5970745   7.1551270  67.0435556  34.6467704   5.6423754
  15.1676393  32.7387238  58.5315132  15.5925202  32.7633214  57.6741362
  14.3129504  33.1447506  58.3870125  65.0493638   7.1128695  69.6992350
  65.8937589   7.0006411  70.1358509  65.2544681   7.0659964  68.7654448
  76.5185060   5.0483268  21.3790321  76.3940968   4.4675105  22.1296382
  76.4471450   5.9302466  21.7441964  40.3631258  76.2332106  64.2536592
  41.1395168  76.5494251  63.7916470  40.7074261  75.6457520  64.9264002
  13.2777143  47.7399445  55.5531979  12.5385094  48.0020285  56.1019421
  13.1003153  48.1436491  54.7036219  16.9255805  75.4505539  70.4189825
  16.8316460  74.4982862  70.3946209  16.5899146  75.7024097  71.2792873
  80.4460676  40.4313583  46.4093489  81.1892637  39.8282737  46.4227290
  79.7072442  39.8946590  46.1224169  41.0823488  80.7278061  69.4673061
  40.4883957  80.0683880  69.8259354  40.6474829  81.0344410  68.6716318
  59.3255137  13.5937995  16.4278884  59.8314472  12.9743452  16.9537634
  59.7548210  13.5882730  15.5723853  40.3175219  57.0936222  15.5666442
  40.8166369  56.8459720  16.3449664  40.8564301  57.7585525  15.1380629
  70.3974159  27.0898027  29.1168208  70.6756993  27.7431650  29.7586245
  69.6697672  26.6336269  29.5395083  53.4290457  79.5392561  62.7426624
  52.9042673  80.2875423  63.0271101  53.8438511  79.8322153  61.9312763
  17.9774985  18.4666509  12.2357268  17.7727542  17.6392240  11.8002123
  18.3484922  18.2079048  13.0793185  70.8402417  57.3998737  52.6316881
  70.2446864  57.6018286  51.9100475  71.2398229  56.5654564  52.3860979
  47.5442123  75.0650406  54.6029568  47.7548504  74.2403698  54.1650343
  47.4973440  75.7071924  53.8946676  64.5822116   4.9224586  12.3114295
  64.3057682   5.7442731  12.7169222  64.8994042   4.3901939  13.0410285
  40.6149439  19.0923541  40.2107048  39.8682443  19.4752925  40.6711721
  40.7854752  19.6958010  39.4875145  41.3714314  64.8009014  56.2562990
  41.5181923  65.2475023  57.0901108  41.9869995  64.0679502  56.2655735
  23.7263632  61.0641623  66.0687733  23.6071372  60.6660557  66.9310570
  23.4432292  60.3890800  65.4520702  67.1385880  40.2921123   8.0303330
  67.9454454  40.3347225   7.5171084  67.0389589  39.3642635   8.2433838
  46.2577629  70.1459026  67.1450996  47.0292568  69.6155596  66.9457006
  46.5928888  70.8636665  67.6824427  29.6608704   3.7951033  63.4860992
  29.9061203   4.6783107  63.2103491  29.0056912   3.9311545  64.1705418
  80.2557651  78.1278850   5.3846068  79.4520084  78.5713078   5.6558652
  80.8579580  78.8380935   5.1628060  72.9300125   1.9664068  21.0418315
  73.0593868   1.1539192  21.5310759  72.0021613   1.9592685  20.8067317
  14.6287244   1.2013190  68.1002665  14.9265855   0.5664485  67.4487686
  14.1778844   0.6740897  68.7598133   5.0856481  15.0269813   7.4526782
   5.3426395  14.8742694   8.3620019   5.6293283  14.4240255   6.9456429
  57.4738198  15.3887767   3.5328145  57.9386452  14.7208948   4.0369029
  58.1460334  16.0336322   3.3125443  18.6995471  76.4565086  49.3210745
  18.7869406  77.2933245  49.7775126  19.6000481  76.1581087  49.1934538
  24.8112869  55.1747608  70.5650949  24.9543381  54.6495676  71.3524580
  24.5200706  54.5443392  69.9063158  81.0437425   5.2890510  32.3082728
  81.8217214   5.4046936  32.8538031  80.4458960   4.7737617  32.8498263
  26.7816053  63.5190219  32.7053256  26.2250075  63.7930698  33.4342475
  27.6612077  63.8008804  32.9564948  28.3131061  48.0216903  15.3107161
  27.8137860  48.8077373  15.5321974  27.6981006  47.4781150  14.8182578
  79.1418449   1.9958155  56.0161161  78.9608137   2.0598929  56.9538546
  78.6290971   2.7028029  55.6243420  57.5174181  71.7358019  25.0537295
  57.7361528  70.8543088  25.3559775  58.3305232  72.0668651  24.6722979
  13.3348191  74.1856146  67.6219082  13.9895105  74.2892551  66.9313526
  13.5044587  74.9105358  68.2235289  81.2038944  76.9771576  67.8488970
  81.2840466  76.1075306  67.4570370  80.4416428  76.9113398  68.4241104
  47.4632708  17.5259059  48.0300951  47.0031695  17.5412028  47.1908665
  48.2821588  17.9924624  47.8628302   4.1536903  64.4661713  64.6001911
   3.2254159  64.6874809  64.5256233   4.6093264  65.2061939  64.1989517
   3.8924847  15.7834978  33.2257361   3.7969003  16.3396234  32.4525446
   2.9949317  15.6185455  33.5145564  15.9644508  76.7945433  55.7944536
  16.9101501  76.6548061  55.7458830  15.8347893  77.6777697  55.4490137
  62.1841661   4.4413512  65.0958109  62.0904771   3.7835448  64.4067955
  61.3330595   4.4524520  65.5336761  54.5259039  15.9909480  49.6278858
  55.1526753  15.3486960  49.9609089  54.9777071  16.4086192  48.8946342
  67.1171458  33.3017702   4.0195460  66.2817587  32.8475923   3.9096255
  67.7764924  32.6119299   3.9445920  24.1949496   5.9047813  19.5295615
  23.2870088   5.6994981  19.3065447  24.1289888   6.5830106  20.2017970
   1.0704980  67.7876616  56.1312914   1.6055188  68.5666800  56.2833261
   0.3252723  67.8896379  56.7232943  57.8807584  31.9804995  57.2228241
  57.0475237  31.5600245  57.0103264  58.1798092  31.5330737  58.0144119
  14.0793419  75.7119942  41.5335274  13.9358842  76.1598253  40.6998014
  14.2053568  74.7939348  41.2937021  28.0398345  50.5873013  23.6899924
  27.9254055  50.8261967  22.7701735  28.0089426  49.6306133  23.6946106
  46.9758701  51.2206602  46.5790987  47.0986605  51.7697716  45.8047438
  46.8531275  51.8423176  47.2965288  77.2225865   1.6990633  29.4962020
  77.3988553   1.9240541  30.4097266  76.3411005   1.3261051  29.5071787
  44.1875553  65.4742718  61.0486269  44.3598557  65.4029369  61.9874859
  44.3572521  66.3936281  60.8431482   3.9259523  62.3490192   3.5511536
   3.8382333  62.4627044   4.4975180   4.5825284  61.6595055   3.4525866
   7.1037135  37.5040216  23.1899924   7.1300588  36.8773002  23.9130110
   7.6914630  38.2087249  23.4623332  61.0832985  34.7580738  13.3996577
  60.2779450  35.1505966  13.0626673  60.9178333  34.6372480  14.3346686
  66.6401841  22.2362251  13.2318968  66.1816837  21.9140739  12.4558634
  67.4559780  22.6043624  12.8925128  61.3216631  39.4659274  69.0319586
  61.9417016  39.0776770  68.4146643  60.5209962  38.9530795  68.9216757
  27.4886156  32.0627921  64.3102789  27.9954028  32.8677504  64.4172287
  28.0502039  31.3765281  64.6706915  51.0300793  49.9250621  24.8044200
  50.7938858  50.7400722  24.3614668  50.2412613  49.6772880  25.2867121
  48.3544342  26.7618983  70.4613113  49.1842620  26.7877333  69.9849176
  48.4585909  26.0433142  71.0850191  41.3542322  21.5018122  28.2511663
  41.1413209  21.8598120  29.1129899  41.8769888  20.7220786  28.4381914
  86.0531386  70.1049633   2.3897166  86.2687286  70.9816474   2.0716328
  85.1430901  69.9711532   2.1248765  18.2186655  35.6337874  62.2618055
  19.0272377  35.9787505  61.8830681  17.6524691  35.4686015  61.5079021
  12.3545873  60.2409267  48.7668085  13.0439639  59.5772123  48.7449312
  12.3101878  60.5099821  49.6843433  64.7503777   9.4708938  10.4937548
  64.4587185  10.0687856  11.1820025  65.6975456   9.4078750  10.6167693
  69.4715921  24.5908778  52.3508215  68.9181081  24.2554896  51.6455507
  70.2550117  24.9153655  51.9067621  45.7748457  32.6819152   9.6134085
  45.4230948  33.4494657  10.0643725  46.2670525  33.0421991   8.8757367
  25.3437090  53.5133600  68.2218885  24.8949456  53.8562632  67.4490643
  24.6703839  53.0204391  68.6908197   9.8793802  47.0659561   5.3968997
   9.9470482  47.1075935   4.4430012   8.9720211  46.8094749   5.5616755
   2.8186798  73.9308739  63.5491562   2.9806748  74.8349047  63.8188171
   3.6883488  73.5769749  63.3629799  30.8713158  15.4326861  23.9672947
  31.0751511  14.5002024  23.8954639  30.6465972  15.5584090  24.8892093
   7.6965485  19.8456068   5.3448958   8.2264361  19.5971937   6.1023516
   8.3356557  20.0537414   4.6633858  32.4143839  66.6424370  66.9080114
  31.5047026  66.6863394  67.2026062  32.6258016  67.5393391  66.6489601
  30.2833557  76.0689068  41.4860821  29.8608327  76.1558819  42.3405647
  29.6687579  76.4719534  40.8728456  74.1855558  20.4646511  39.2538065
  74.6683546  19.6898431  39.5415778  74.8497053  21.1510915  39.1910834
  36.6735005  67.2232151  60.3257751  35.8175135  66.9098520  60.6178713
  36.4884496  67.7138948  59.5250082  47.6077119  10.3233092  42.3356390
  47.9120556  10.1988642  43.2345963  48.1222157  11.0612433  42.0085764
   9.3778882  36.2408132  10.7916922   9.3664322  36.2069578  11.7482276
   9.0783272  35.3739519  10.5177493  11.7449252   7.7436202  69.6561670
  11.5800206   6.8333762  69.9021244  12.1065787   7.6909201  68.7714863
  44.2153486   7.6018495   1.9846005  45.0065144   7.1029014   1.7812819
  44.2553802   7.7391405   2.9310555  66.8890993  11.0782950  65.2996635
  66.3258139  11.3990443  64.5953417  67.7605240  11.4062064  65.0775623
  74.6879717  61.7662735  27.9711718  73.7373718  61.6756362  28.0373091
  74.8269220  62.2399158  27.1510500  17.6116741  67.8832626  70.2714872
  16.9214106  67.7324009  69.6257257  18.3483171  68.2189274  69.7606850
  69.0024300  24.2090673  20.8468909  68.1238051  23.9700336  21.1420435
  69.5400580  24.1685981  21.6378111  14.5789540  60.2811098  66.2595940
  15.4487860  59.9632835  66.5016890  14.5497298  60.1965427  65.3065872
   6.2170005  56.7371845  32.9365015   6.5452659  55.8419085  32.8531265
   6.2481147  56.9171715  33.8761115   8.5574591  79.2500496  53.8483667
   7.8334171  78.7285089  53.5019636   8.2051843  80.1379490  53.9097023
  36.2731767  68.9397478  64.6954918  35.5733585  69.5775986  64.5553637
  36.8198490  69.0081406  63.9127398  51.4558077  74.6710062  60.3950119
  51.5203762  75.0313282  59.5105696  51.2688923  73.7417078  60.2619839
  82.7224167  44.1956443  16.6601557  82.6756151  44.4893760  15.7503409
  81.9642814  43.6208839  16.7655844  66.3350679  74.5334072  26.7539210
  66.9475706  74.3886394  26.0327334  65.7127525  73.8090438  26.6886897
  68.7185057  41.2952537  15.0342936  69.5945831  41.4270229  14.6718592
  68.6577328  40.3506298  15.1765246  27.2329078  17.5277109  27.4193854
  27.1190200  18.4207601  27.0942301  28.1080422  17.2753877  27.1249194
  15.2820001  60.5741901   8.4860892  15.0161443  60.6677837   7.5713248
  14.5138965  60.2053470   8.9222092  16.1201215  58.8769150  47.7720928
  16.4599621  58.1670904  48.3169699  16.8865669  59.4152260  47.5745726
  66.6468774  48.0676937  16.5993488  65.7868050  47.9250145  16.2041891
  66.5681670  47.7051592  17.4817348  78.0352823   0.7130664  38.8511944
  77.9966346   1.5600913  39.2953753  78.9160768   0.6782573  38.4780645
  66.4113637  24.5068187   8.8289113  66.5553184  24.5838041   9.7720904
  67.2804518  24.3330020   8.4673781  28.4038162  78.4072208  66.2407398
  27.9400253  77.6368713  66.5689039  28.5374999  78.9541149  67.0148611
  38.2985330  64.6842813  64.6353149  37.6754975  64.1169310  64.1812515
  37.8330302  64.9706507  65.4211473  49.9959056   3.3830588  44.8269558
  50.1045267   3.7626021  43.9549589  50.2267067   4.0920394  45.4272127
  24.7030006  37.0239420   9.7244734  24.6249089  37.9750413   9.7989363
  23.9118323  36.7544574   9.2579312   6.6313014  37.7764721   2.3459191
   6.7608008  37.1756477   1.6121096   7.1417866  38.5520811   2.1133799
   2.6028404  29.3557329  10.5749602   3.4450803  29.8058767  10.6400103
   2.1153054  29.6472997  11.3453765  66.7166058   0.3177874  69.3464231
  67.1964828   0.2726882  68.5194302  67.3160879   0.7601683  69.9473858
   5.8881316  58.7960548   9.0918345   6.6676555  58.4555931   8.6529059
   5.4307900  59.2949504   8.4149546  81.0208402  68.8355875  33.0892873
  80.7578282  68.6252165  33.9852786  80.5640243  69.6531105  32.8912640
  10.5504880  66.7487545  20.8857531  11.2032495  66.3098735  20.3402991
  10.9300575  66.7435855  21.7644686  48.6489646  19.7603934  49.6360826
  48.6452154  19.8414939  50.5898333  49.4873730  19.3449443  49.4343281
   7.6711553  80.3856087  43.6858654   8.4305692  80.7228947  43.2107258
   7.8295779  79.4440079  43.7531757  85.0117881  61.3368511  46.8270588
  84.7833737  61.3962555  45.8994102  85.3523494  62.2042418  47.0458889
  41.2483215  24.3697071  53.3668518  41.2201309  24.6378279  52.4484015
  41.6790915  23.5150170  53.3537388   8.8198052  39.5374317  23.3183569
   8.5074530  40.3869838  23.6296935   8.7087903  39.5749015  22.3683543
   7.9119164  63.4380913  23.0436754   8.0091149  62.4946070  22.9147196
   7.8122246  63.5414648  23.9900398   7.1428213  41.6194648  15.0549025
   6.6854963  41.2244625  14.3125815   8.0314193  41.7737121  14.7342295
  22.9641090  36.7646284   0.9684414  22.2042260  37.2864885   1.2262625
  23.2513890  37.1520872   0.1416535  70.4055349  19.0507930  65.9837008
  71.3357822  19.0132182  65.7613087  70.1096908  18.1419986  65.9306383
  66.2782137  22.0533698  36.7452478  66.5794317  22.9237311  37.0059776
  67.0449821  21.6449874  36.3433504   9.8309264  35.3469820  20.9082980
  10.2940140  35.3094596  20.0714106   9.0538011  35.8761139  20.7284922
  10.6487808  47.3272724  24.2247195  11.5596137  47.1342773  24.4468970
  10.5448971  46.9973964  23.3321852  10.4074597  78.9585161  55.6241131
  11.0100031  79.6834326  55.4577684   9.6844590  79.1031456  55.0137138
  71.6205819  55.9001464   8.6448807  72.0658739  55.8927745   7.7975936
  71.4384290  56.8249340   8.8116831  31.1777943   5.6196921  46.4939642
  30.3413073   5.7709258  46.0539055  31.5719501   4.8905890  46.0151291
   6.4731735  63.3203745  60.8410501   7.1252841  62.6521730  60.6301117
   6.3524944  63.2468462  61.7877579  15.4761302  62.9940653  70.7777596
  16.2887764  63.3771086  70.4474306  14.8731744  63.7342787  70.8467913
  70.3274997  39.3554039  10.8553786  69.7892245  40.0250454  10.4333968
  70.0533291  38.5347242  10.4460616  16.7273974  60.8047056  51.9092655
  16.9266653  61.1002398  52.7976227  17.4508131  61.1376286  51.3781643
  26.5769887  67.8593063  70.4707241  26.4526868  67.4486876  71.3263988
  27.4045873  67.5002623  70.1507235  72.9020139  28.1447525  14.6526713
  72.0305141  28.4460945  14.3959326  73.1142720  28.6605758  15.4305548
  14.3484197  48.7433261   7.4156088  14.5673881  48.2753295   6.6098399
  13.4001908  48.6437244   7.5002951  36.6156010  17.7188151  68.7555122
  36.4885036  16.7737048  68.6728191  37.0797924  17.9688685  67.9566193
  80.1824228  13.3016246  45.2732849  79.4015876  13.8483947  45.1863337
  80.4782287  13.4476607  46.1718464  53.4899521  32.0491004  69.8097658
  52.6542807  32.5126314  69.7547722  53.4755135  31.4408112  69.0708399
  70.1201773  77.2570610  69.4409227  70.3448153  76.3307047  69.3535185
  69.9576187  77.5497389  68.5441828  16.3080686   0.6498378  26.4700556
  16.6873735  -0.2090413  26.2838340  15.4561370   0.6351035  26.0339046
  86.6077884  68.2483882  22.5362773  85.6540998  68.3052463  22.4773116
  86.8117054  68.5534305  23.4203524  33.3692694  78.1322670  47.1692324
  32.9821229  78.1519508  46.2940407  33.7260151  77.2480392  47.2534895
  54.5750632  26.0999555   2.5255246  53.6830296  26.0393829   2.8673405
  54.8567214  25.1902742   2.4286503  72.7695139  47.1365566  18.1501097
  72.0646759  47.3110408  17.5264163  72.4507983  46.4000434  18.6718363
  29.8705840  80.3925228  53.3634090  29.3194175  80.9515762  53.9110470
  30.7191920  80.3853416  53.8061762   1.0078472   4.0356772  60.0895882
   1.2417310   4.7760813  60.6493425   1.6061157   3.3369296  60.3542852
  60.2688311  26.6347332  27.6473326  60.6829267  27.3569793  28.1196780
  59.8331628  26.1218853  28.3280749  59.0744114  52.6693249  58.5814476
  58.9767599  52.7239513  59.5320845  59.5018578  53.4901619  58.3370209
  66.0046689   6.8203013  66.8883610  66.1241643   6.0979216  66.2718296
  66.0130564   7.6058333  66.3414526  49.8984053  43.3076877   3.8145728
  50.0854244  43.2928676   4.7532076  49.7953375  44.2360801   3.6055226
  63.6298843  31.0767288  28.0702872  64.3954756  30.5652065  27.8086657
  63.0611839  31.0675163  27.3003954  70.6918724  43.8896198  16.8044562
  70.9812160  43.4102363  16.0281176  70.3400095  44.7110481  16.4614005
  34.4175134  61.0194511  33.2327361  34.3896089  61.2426586  34.1631312
  34.5737348  60.0752086  33.2175440  51.7272941  11.4460223  58.6675739
  51.2704293  10.9378951  57.9972696  51.0639612  11.6090625  59.3381214
  65.4434053  38.4303038  69.4779444  66.3772647  38.5043853  69.6745491
  65.2210704  37.5281184  69.7078562  60.3511238  55.0476837  57.8249693
  59.7863388  55.7747269  58.0869961  61.2323093  55.3275633  58.0727768
  23.5227285  32.8344078   2.3608059  23.4663234  32.1699256   1.6741366
  24.0969977  32.4476499   3.0217642   2.2553406  31.5686245   8.6359973
   2.0759378  30.7988519   9.1759009   1.4423809  31.7171735   8.1530280
  46.3971615  72.2082710  68.7436152  46.1357641  72.8735781  68.1070042
  45.8083344  72.3428631  69.4861794   9.9683056  42.1949024   3.7803502
   9.6855841  41.8078060   4.6088786  10.8030138  41.7673797   3.5887284
  37.8854499  68.9236500   5.5299515  37.7227698  68.1227137   5.0316853
  38.1854544  68.6167003   6.3855261  24.8157252  72.7117683  10.5938620
  24.6223111  72.2228648   9.7939868  23.9598177  72.8637363  10.9945578
  14.4742930  19.1520572  69.4598866  14.7863519  19.4891202  70.2996683
  13.7716722  18.5447621  69.6917248  52.0447529  69.9547584  50.8586025
  51.9131792  69.9863059  51.8061924  52.5795120  70.7247514  50.6652784
   0.6351360  79.7490531  40.9308577   0.6001290  79.8132513  41.8852615
   1.1803802  80.4880266  40.6609344  46.6705898  53.2508971   9.7021765
  47.2416751  53.8527622  10.1795191  45.9347622  53.0980243  10.2949900
   6.2758970  41.5572834  49.2732859   5.7182348  41.3961840  48.5121727
   6.0280997  42.4326897  49.5707703  24.2060317  48.2579382  17.3269457
  24.6418459  47.4080332  17.2640223  23.2869677  48.0444755  17.4881453
   2.3873965  55.4139471  44.2079449   3.2897869  55.6629705  44.4077206
   1.8662050  55.8321381  44.8932934  66.3611124  14.5247686  60.4057598
  65.9920476  14.3618846  59.5377207  67.3070369  14.5539594  60.2622128
   1.3122787  52.9533815  39.8163700   1.5921853  52.2667122  39.2110825
   0.4957959  52.6236153  40.1916647  57.2854708  16.6626048  57.4732161
  57.7256892  16.5785456  58.3190155  56.3572477  16.7417574  57.6931429
  73.4782932  17.8124917  61.4832926  73.2619975  17.9319990  62.4080467
  73.3506404  16.8769002  61.3264275  18.8375036  64.6580221   4.4304366
  18.1611566  65.2258541   4.7996993  18.3761422  63.8493707   4.2080397
   4.0706460  59.8877146  15.5936141   4.6974913  59.1709008  15.4962630
   3.8352124  59.8756756  16.5213294  75.0953197   2.2874655  67.4465656
  75.2156115   1.6056310  68.1075239  74.7203350   1.8287648  66.6947603
  39.4611091  70.4812331  60.8947992  38.7254912  69.9139352  61.1256027
  39.4631988  70.4932482  59.9376726  59.6182116   5.1863546  25.5224604
  59.5761928   6.0723180  25.8823676  59.0124697   5.1998872  24.7814269
  74.3711319  26.8232371  37.6866622  73.5612430  26.3547148  37.8886504
  74.9868669  26.1371364  37.4290461  14.0215719  28.2536817  61.5466404
  14.3581915  27.5539970  62.1064234  14.4838095  29.0387249  61.8403673
  76.8530102   4.2196483  10.8475585  76.4397581   4.3911810  11.6937441
  77.7853306   4.3729801  11.0008616  41.0404865  47.7303560  23.1397051
  41.8196873  47.1815063  23.0511565  40.9872393  47.9213812  24.0761466
  57.1664445  70.5286433  12.5369544  57.0721594  69.7885467  11.9372935
  57.3819057  71.2697365  11.9707484  20.4519010  31.5110779  51.2435007
  20.5160427  30.5562544  51.2642145  19.6773970  31.6875744  50.7094383
  50.6204661  10.9137601  19.5009226  51.1944218  10.5744524  20.1877112
  50.7239511  10.2972574  18.7760443  10.1328476  79.1453309  65.8049107
  10.0677236  80.0610350  66.0759783   9.6698149  79.1098032  64.9679136
  55.8601524   6.0378427   3.2318730  55.3427269   6.7777223   3.5497946
  55.2127834   5.3629131   3.0278630  54.4468157  32.1284980  12.6696486
  55.3692735  32.2286291  12.4345393  54.0843396  33.0115671  12.5986762
  46.4467327  51.9255473   3.3275742  46.4860884  52.8676011   3.4925551
  47.3627297  51.6496982   3.2945675  11.1040457  67.9694779  24.4403934
  10.7021697  67.1086151  24.5572019  11.9564494  67.7843804  24.0462136
   0.2484679   4.3616927  52.5590324   1.1300744   3.9936191  52.6183939
   0.3664049   5.1928806  52.0991993  26.7794347  30.9483027  18.7730360
  26.1936092  30.6732655  19.4782984  26.2888169  31.6228938  18.3035111
  10.7116294   8.5139716  28.2241940  10.0805688   8.5356432  28.9435863
  11.5616477   8.4193116  28.6540079  75.5843995  15.8195090  45.5421829
  75.6341360  16.6132224  46.0748863  76.4310704  15.7758582  45.0977993
  32.4784422  27.2668481  69.9933147  32.5849223  28.1460285  70.3565407
  32.7084684  27.3601508  69.0688610  20.5672860  35.8488464  53.5265303
  20.7688093  35.6843948  54.4477129  20.7161975  35.0075698  53.0948925
  60.8711738  64.5948453  49.0424919  60.3735358  64.6911020  48.2305050
  61.7409271  64.3136222  48.7584591  33.5208614  65.4067399  22.9809279
  33.1029321  65.9147240  23.6762900  34.2865852  65.9248258  22.7329726
  50.8669770  68.2870586  65.5102730  51.2591225  67.8379125  66.2590885
  51.2554658  69.1617484  65.5253077  68.3411430  21.8496561  33.5672903
  67.9140959  21.5325975  32.7714658  67.8323613  22.6195002  33.8216805
  25.9865570  14.1224706  44.5889425  25.1815915  14.2515302  45.0905466
  26.1894608  14.9882674  44.2347431  64.4698284  15.6631792  49.2719126
  65.0535343  15.3996491  48.5605288  63.5899423  15.5699766  48.9067459
  54.4037835  64.9743726  10.3393931  55.0129692  65.0975897  11.0673709
  54.8356477  65.3894927   9.5927996  49.6155741  22.9560155  12.0982260
  50.3685590  22.4015302  12.3026461  49.9475272  23.8501472  12.1792788
   5.2449620  26.3459539  53.4831285   4.9504259  26.0763240  52.6131964
   5.3870380  25.5243349  53.9532232   4.8542126  73.0748404  54.9627542
   4.1149910  73.0405689  55.5698872   5.1431402  72.1655543  54.8856020
  43.8208588  19.6593256   4.3970484  43.7953230  18.7174005   4.5654339
  42.9923900  19.9876422   4.7464461  69.8515044  61.2544203  60.8471012
  69.2427812  61.2532616  61.5858078  69.5670770  60.5213833  60.3012180
  52.6253031  23.1997108  68.0651474  52.2025297  22.9663539  67.2386885
  53.0453823  24.0417647  67.8898954  15.7232904  61.6328335  37.9164004
  15.9997809  60.9043026  37.3605013  16.3915658  61.6794443  38.6001158
  56.5646000  16.5001316   0.6857771  55.8370819  15.9320468   0.4323525
  57.3253254  15.9195871   0.7079596   0.0597684  66.4394285   0.9768672
   0.4389397  66.9073417   1.7208523   0.7677976  66.3977672   0.3340716
  27.9295683  42.3474550  67.6997757  28.8374615  42.1538782  67.4663496
  27.9059839  43.2989883  67.8011036  41.2304727  80.7082559  12.6670546
  41.9820050  80.3216888  13.1165022  40.5137519  80.0943996  12.8274340
  11.4030492  76.7036629  64.9364519  11.2954700  76.4078045  65.8404016
  11.0216928  77.5815344  64.9247694  85.6247012  49.5351982  41.5718079
  86.4508254  49.7020674  42.0255756  85.3477999  50.3948021  41.2545824
  71.4281839  80.9775615  69.9132729  72.0197004  80.4856224  70.4827785
  70.7721824  80.3368793  69.6386480  73.8226042  28.0246186  17.4444807
  73.4422730  27.6072001  18.2173586  74.7512017  27.7952456  17.4809265
  21.7346597  80.8377171  39.8571730  21.8058968  81.7770481  39.6874094
  21.8918180  80.7516670  40.7974529  27.2846961  14.3447220  60.9604168
  27.7372718  13.6451626  61.4316130  27.1089101  13.9757240  60.0948715
  29.2459035  41.7919874  59.4687223  29.1596627  41.3398075  60.3079653
  29.3414474  41.0887194  58.8264465  61.6646717  18.1390631  31.3859510
  61.1743282  18.9205098  31.6411662  62.5538157  18.3005452  31.7015100
  81.9574172  78.9631830  16.0997617  81.7022473  79.8817415  16.0139072
  82.2218234  78.7045295  15.2169144  19.4125569  38.3221841  57.5299215
  19.6678567  38.4122682  56.6118050  19.9606943  37.6113391  57.8623009
  86.2695764   8.1957799  58.1709528  86.3703417   8.4433675  59.0900707
  86.3497750   7.2419465  58.1696606  80.7725672  38.8970828  42.2074652
  80.8028672  38.1015182  42.7388716  81.5521668  39.3881917  42.4668264
  59.6568583  11.2746114  10.2804274  59.6124317  12.2043771  10.0572867
  60.4545059  11.1915655  10.8030123  25.1226664  71.5593672  40.8152056
  25.1349664  70.8644581  40.1570415  25.1383400  71.0962772  41.6527796
  39.4959593  12.3941565  20.0901651  39.7183990  12.3425949  21.0197306
  38.8510323  13.0994725  20.0369835  68.6444865  41.0653973  46.7631102
  69.0570222  40.2373743  47.0089197  68.8970242  41.1967850  45.8492184
  82.9844798  39.7680640  70.7264423  82.9840635  39.7568464  69.7693062
  83.5097928  39.0073633  70.9746599  81.4280923  17.4191684  14.7180743
  81.9097312  17.9778785  14.1080756  80.5312951  17.7527399  14.6913523
  82.0234127  71.5257215  46.8721485  82.7872027  70.9798479  46.6853905
  81.2822614  71.0256290  46.5303421   6.9039810  40.7806730  36.4453506
   7.1927387  41.6891384  36.5322161   5.9663403  40.8437395  36.2634563
  16.9989884  49.4359541  70.8026743  16.8699718  48.9268160  70.0024462
  16.3543332  50.1411200  70.7444477  10.7767200  58.1974459  32.8780723
  11.2589872  57.4105167  32.6243114  10.1852942  57.9029751  33.5707021
  26.3101883  44.8250042   8.0607457  26.5562291  45.4293318   7.3603959
  26.5538908  43.9611177   7.7282662  16.9879055  49.1332340  49.8677015
  16.3053799  49.0125084  50.5278635  17.7547348  48.6914492  50.2324390
  52.7918975  44.2663436   3.5366482  52.2640673  43.4931247   3.3372540
  53.6432091  43.9145772   3.7969632  53.5695012   0.6339950  40.8964819
  53.0201643   0.8801384  40.1522536  54.4009598   0.3690118  40.5031771
  29.6893835  37.7460384  63.7776661  28.7592721  37.7096105  64.0008211
  29.7251320  37.4866986  62.8569603  84.1013975  21.1204386  38.2621121
  84.2779669  21.9927502  38.6144304  84.6584677  20.5368257  38.7771845
  77.9847912   4.3809974  55.3917599  77.0607291   4.2031041  55.5669594
  78.1465833   5.2314806  55.8000898  64.7916816  61.4243984  26.2870026
  64.3091677  61.1203766  27.0557570  64.2775224  61.1119795  25.5425096
  17.5622535  43.3940744  39.8604774  17.6690018  43.7963486  40.7224607
  18.1091094  42.6091433  39.8931026   4.0017352  34.4969702  65.6573200
   3.5332176  34.1820621  64.8843050   4.3449950  33.7038898  66.0689354
  81.6119073  43.3467770  32.5082946  80.8566676  43.9261103  32.6093745
  81.6493429  42.8565502  33.3295798  36.4453650  13.9884627  41.8971825
  37.3001051  13.5637069  41.9695187  36.3581777  14.1942573  40.9664392
  15.6628919  68.4726191  61.3969707  16.3094163  68.5150146  60.6923819
  15.8523929  67.6491690  61.8466902   3.2528558  26.7245221  64.3038797
   3.7035236  26.6740465  63.4609222   3.9415699  26.5798903  64.9527168
  13.2236755  54.8262644  51.0855436  13.4085512  54.8108387  52.0245934
  14.0096903  55.2060556  50.6928968  34.6752834   9.8432678  22.5471592
  34.2844868  10.7164848  22.5154853  35.4443192   9.9043381  21.9805145
   8.0378944  58.0070686  42.6890326   8.7228364  58.4832573  42.2196388
   8.3389604  57.9880285  43.5974503  16.7327476  60.4171753  57.9010391
  16.0534048  59.7857094  57.6644468  17.4153543  59.8902225  58.3164883
  14.8768175  46.0684919  63.3310223  14.2362797  46.7774439  63.3887768
  14.3490052  45.2704191  63.3042097  60.0882234  68.5997088  53.7346363
  59.1611094  68.6903972  53.9547873  60.1383661  68.8340122  52.8079128
  82.2450970  33.4702635   2.5971958  81.7725359  33.5398960   1.7676964
  81.6809894  32.9290056   3.1495127  84.1838403  22.0155835  46.0229921
  83.3188678  21.9411683  46.4261293  84.6441512  22.6598167  46.5608692
  45.0342854  29.3218631   3.4688134  44.1192420  29.0409727   3.4740347
  45.5323597  28.5182828   3.6185212  26.1153269  28.9782929  40.4853249
  26.1078715  29.2803788  39.5770764  26.6547322  28.1876922  40.4703617
  62.3504493  25.4544137  65.6154054  61.6435910  25.3349088  66.2496781
  63.1519443  25.3847573  66.1340439  26.0713584  61.9590356   5.7011313
  25.7330496  62.8504755   5.7854647  26.8816599  61.9611646   6.2106795
  67.3414992  24.5151019  37.3574591  67.3050569  24.4632411  38.3125591
  66.8597339  25.3137803  37.1424055  58.5741470  16.9502854  28.2576776
  58.8609145  17.0341063  29.1670561  58.0374358  16.1577725  28.2478690
  45.9069200   2.7767343   3.6206145  45.2812298   2.5828666   4.3185801
  45.3637846   3.0482454   2.8806681   6.0565144  62.2417498  14.1635716
   5.5148780  62.5716543  14.8805273   6.8887198  62.0132589  14.5776463
   1.1856870  19.0424836  68.6454582   0.9279414  19.6818471  67.9813671
   2.1122032  18.8766325  68.4714079  62.0065347   2.2147601  33.7057590
  61.8438880   2.7830355  32.9528737  61.3045231   1.5649646  33.6714554
  32.1972994  65.9961941   3.6594910  32.0336578  65.2000667   3.1538863
  33.1199906  65.9371545   3.9072556   8.5407537  72.1494532  30.2194500
   8.2363749  72.4774218  29.3732691   7.7428752  72.0498133  30.7387686
  34.3543196  33.6201930  40.8942080  33.6523080  33.0812860  40.5295277
  34.9086547  33.0015969  41.3699007  23.3403063  23.0908751  64.9258900
  22.4712586  23.4556794  65.0929451  23.7371588  23.6951208  64.2984962
   5.5562943  52.5473404  35.7638955   4.6820155  52.6905632  36.1263275
   5.4081470  52.0080614  34.9870658  24.5923263  69.6322198  43.1512070
  23.7247807  69.9509532  43.4002113  24.5633108  68.6927004  43.3320141
   6.6801959  15.7989228  53.8420343   7.5776851  15.4673195  53.8700247
   6.2833095  15.4846811  54.6544170  58.9613723  41.8597049   1.3502879
  58.1558535  41.7489261   1.8553633  58.6806823  42.2914238   0.5434031
  38.9172816  14.1578162  54.8264122  38.2713151  14.6465063  55.3364515
  38.4956574  14.0159369  53.9788628  11.7101777  33.4477758  53.5171366
  11.7282665  33.3029675  54.4631481  10.8123434  33.7247539  53.3343554
  17.5869739  43.1878042  51.7088318  17.8629148  42.3775864  51.2803030
  16.7006981  43.3419275  51.3817310  82.8102441  18.1048536  67.0548153
  82.5231670  17.9898787  66.1489439  82.6553444  17.2539711  67.4649811
  76.6087292  66.4937735  41.8202400  76.7859350  65.6408072  41.4236546
  77.0332543  66.4523315  42.6771450  30.1264098  70.8881070  14.7528929
  30.0834304  70.0169255  14.3586440  30.2679085  71.4790012  14.0132613
   8.8994249  67.5229199  52.3863077   8.3347448  67.7518923  53.1245136
   8.8405355  68.2751865  51.7973614  73.6571084  26.5974879  50.2769184
  74.3310676  26.0317636  49.9001312  74.1259418  27.3927093  50.5300045
  68.7446986  50.6500864  52.2856426  69.0546272  49.9456787  52.8548431
  69.4953130  50.8554411  51.7282915   5.3327894  63.0651951  38.7171817
   5.2223408  62.1458530  38.4745979   5.1642430  63.0862522  39.6591902
   2.0251045  35.5793262  62.1919775   2.1405511  35.9531617  61.3183928
   2.7931744  35.8733344  62.6817322  14.9429107  63.4662008  66.0869312
  15.7049727  62.9661560  66.3792515  14.3517864  62.8090525  65.7195616
   8.4475636  71.9282675  56.3558626   8.9435351  71.9329166  55.5371952
   9.1072106  71.7859983  57.0347261   0.8490460  55.9624767  69.0709066
  -0.0752458  56.1883593  69.1752768   1.0905653  55.5521202  69.9012709
   5.8011889  54.1786671  12.5297892   5.6879830  55.0202084  12.0879531
   6.1493760  53.5978794  11.8532658  28.6801195  67.1593167  16.5146250
  27.9351184  67.7603103  16.5179724  29.2384836  67.4739601  15.8036704
  12.8432322  35.2247119  68.0272532  13.4464121  34.7517204  68.6005640
  12.7526259  36.0865664  68.4337425  20.5151057  44.1262913  68.2020521
  20.3736544  43.6705112  69.0318012  21.3261795  43.7518072  67.8583145
  17.2567630  58.8646221  66.9177914  18.1506884  58.5247993  66.9583893
  16.7026556  58.1008863  67.0787382  17.2987723  18.0654585  56.6070843
  17.2639489  18.8955343  57.0824718  17.8858316  18.2357538  55.8704758
  59.4284979  49.0519662  15.5588240  58.8792960  48.3036985  15.7927126
  58.9754597  49.4602670  14.8210711  66.5794800  65.8188295  25.9176803
  65.6386898  65.9261942  26.0577416  66.9466506  65.7510614  26.7990589
  85.6654670  45.8191490  43.4957600  84.8598660  45.6682587  43.0013180
  86.3649780  45.5406332  42.9047060   9.1164452  42.2923899  58.6611605
   9.4063687  42.6358891  59.5062542   8.3530569  42.8240204  58.4356833
  68.3702584   7.7104635   9.6773429  68.3365329   7.5544948  10.6211466
  69.2276212   7.3790330   9.4102950  11.8315923  32.5693893  56.5592003
  11.9327474  33.2741809  57.1989393  10.9356236  32.2573972  56.6862202
   7.7906400  10.7430911  42.3992825   8.7359279  10.8224189  42.2713375
   7.5496703  11.5251994  42.8957415   9.2930877  37.4996495  58.4612322
   9.3983275  36.7113304  58.9938784   9.3647408  38.2217860  59.0854216
  80.5916224  24.0976739  70.0734949  81.4755027  23.9419532  70.4062653
  80.3478001  23.2758474  69.6476030  82.8617181  69.1164160  51.7479897
  83.5839899  68.5056305  51.6013813  82.4408750  69.1995096  50.8922958
  25.0647020  29.7577310  31.9284511  24.5173430  30.2256775  32.5590515
  25.3648114  28.9815235  32.4013829  35.1307456  30.0585141  23.7484927
  36.0357205  30.2947380  23.9520831  35.0708268  29.1286661  23.9676375
  76.9529907  23.4263325  53.0616522  76.0689626  23.6724639  53.3339453
  76.8270068  22.6572967  52.5058270  10.5498099  35.7687593  60.6370020
  11.2696326  36.3781691  60.8004189  10.1493490  35.6352043  61.4960814
  26.8078192  35.0212497   5.9062523  27.0705684  34.8629016   4.9995417
  25.9074100  35.3397388   5.8425564  15.1826052  71.9032313   2.2352452
  15.1179568  72.8099205   1.9352955  14.3865506  71.4850666   1.9071192
  85.6151143  73.9923620  29.0889454  85.8057447  74.6393156  28.4097219
  85.8676853  74.4217157  29.9063158  84.6104659  35.8081055  56.9063616
  84.4717060  35.2804279  57.6928329  83.7654890  36.2291098  56.7482424
  18.8095538  35.4691221   1.4326520  19.0897063  35.8539747   0.6022067
  18.9604471  36.1586608   2.0791812  51.1933227  18.3330364  30.0209899
  50.4096945  17.7884025  29.9466128  51.9057502  17.7703733  29.7175307
  36.1941562  74.2852427  24.9284167  35.8333574  73.6714579  24.2886347
  35.5636601  75.0050785  24.9517340  47.7137325  66.2039518  47.7024794
  47.2908853  67.0439100  47.5238657  47.1895121  65.5645514  47.2202063
  37.7454662  23.4780359  68.9974022  37.4365973  24.1988707  69.5462465
  38.5435319  23.8131309  68.5887051  78.6963306  33.9692616  69.4065189
  79.1164015  33.2117224  69.8138332  77.7608780  33.8349104  69.5585394
  35.7641371   3.3941812  16.9921679  36.6542919   3.6562748  17.2270388
  35.2878173   3.3931560  17.8224463  27.3958802  12.1498263  37.7766585
  27.0837116  13.0122185  37.5026846  28.3452940  12.1912503  37.6620722
  63.0490514  15.7812900   3.8354392  63.0547853  15.0595922   4.4642062
  63.4903939  16.4986724   4.2902035   7.3111469  43.0532694  68.1894398
   6.4896953  43.3279800  68.5968494   7.9915720  43.3820963  68.7769127
  56.2732665  41.9223650   2.1470685  55.9108273  42.5587334   1.5307040
  55.8685342  42.1438889   2.9857297  40.6393576  -0.3082116  55.2388477
  40.4909229   0.5998158  54.9748707  41.1155415  -0.2422186  56.0665751
  77.3500649  58.6565065  20.3064799  77.2058771  57.7839518  19.9403059
  76.4738856  59.0361452  20.3729534   6.5214074  41.7649984  43.8046455
   7.4448860  41.5292549  43.7160778   6.1729848  41.7068577  42.9150105
  27.3432589  31.4826274  53.4533644  27.1845913  31.5883517  52.5153446
  27.2178793  30.5472946  53.6135578  81.0386537  56.8992186  40.2439928
  80.6563042  56.5541840  41.0508347  81.5435849  56.1687088  39.8867345
   5.5542052  36.8031549  43.3250523   5.8563942  37.6922822  43.5104322
   6.3072789  36.3740444  42.9188776  15.0352103  78.5284168  70.3235054
  15.6732184  78.9083118  70.9275436  14.3518740  79.1943143  70.2469254
  26.3735533  38.3534479  67.1548700  26.0144758  38.1620646  68.0212784
  26.0098529  39.2094612  66.9286108  51.4750739  23.2036466   1.8792529
  51.0119428  23.6056394   1.1443085  52.2305538  22.7727813   1.4794583
  84.1913801  29.9801731  68.1196213  83.4724731  30.6023407  68.2305813
  84.5986473  29.9280643  68.9842892  11.3007092  39.5665812  24.2920780
  11.7657578  38.8386893  23.8796067  10.3913867  39.4585276  24.0133524
  56.7173927  30.3728885  11.3447661  56.9066404  30.7978172  10.5081935
  57.5428337  29.9576015  11.5946002   0.4044354  40.1280212  57.0552063
   0.3972186  41.0589886  57.2776413   0.1763401  40.1020145  56.1259460
  23.6786938  21.2537885  60.0321436  24.2466807  20.9599137  60.7443666
  24.0142441  20.8036256  59.2569065  17.4516765  69.5173003  10.2738089
  17.8678350  69.4771053  11.1348719  16.5194599  69.6239831  10.4630751
  18.0096281  31.0175729  48.2871819  18.5682905  30.5887747  47.6389074
  17.5092280  30.3034425  48.6819601  85.7137657  28.5107517  37.9677343
  85.1381960  28.0459356  37.3603630  85.1175819  28.9450884  38.5777736
  29.4297635  45.6321503   2.9496474  29.8185252  44.7727593   3.1125683
  30.1792050  46.2136348   2.8214116  19.0678036  14.2847073  19.2496097
  19.6718836  14.6533895  19.8941207  19.3732679  14.6293211  18.4104645
  12.9908204  30.4970193  44.7553682  12.6582932  31.2821913  45.1903009
  13.3589935  30.8171368  43.9318371  53.8724581  58.6119749   7.8702635
  54.0518419  58.6232652   8.8104386  52.9195038  58.6765076   7.8074641
  79.0665702  22.9161978  41.1296368  79.5030074  22.9016232  40.2778482
  78.3011965  22.3526525  41.0162687  21.7177367   3.3076310  67.0847654
  21.8341160   2.6171204  67.7373600  22.6039910   3.4990159  66.7779160
  53.2810609  14.8504800  23.5943026  52.3735102  14.7890491  23.2962889
  53.7103270  15.4042787  22.9421801  28.1640005  25.3187227  47.1911573
  28.9130187  25.7321787  47.6204062  28.4754777  24.4449162  46.9552040
  32.6798304  10.5387373   1.4490265  32.5253089  10.8098955   2.3539204
  33.2288059   9.7581405   1.5233273  13.1118766  60.3071930  14.5907397
  13.6438147  59.7547700  15.1635451  13.0361215  61.1372520  15.0613780
   2.8057131   1.7923322  63.9680481   3.4079885   1.0489295  63.9389133
   3.3496666   2.5498658  63.7524319   6.8523014  25.2994657  27.8870153
   6.1992621  24.7189999  28.2779503   7.4280781  25.5363250  28.6140704
  13.7625527  37.4905896  26.2646365  13.5657454  37.8624392  27.1244192
  13.1756186  36.7382455  26.1890197   8.3041239  27.6844406  21.2108159
   7.4351156  28.0770802  21.1278057   8.5275173  27.4071288  20.3223181
  84.9166567  33.2666492  54.7817230  85.3372137  32.4703956  55.1062918
  85.6369915  33.7947202  54.4374990  26.7313766  11.1748874  48.5960388
  27.1611261  10.9550619  49.4226122  27.4244356  11.5621996  48.0613518
  75.2886258  48.4773207  69.1907358  74.3490647  48.3646107  69.0466785
  75.4244958  49.4241619  69.1552162  77.5149194  59.8590912   9.1131301
  78.4505645  59.6763815   9.1992755  77.3608629  59.8796489   8.1686301
  34.4534063  21.3113856  59.1734648  33.5684419  21.5794086  59.4209194
  34.6376371  21.8031716  58.3731890  82.2019155  27.7480960  61.6788006
  82.5581662  27.1051931  62.2919798  82.9716737  28.1233954  61.2511826
  82.8176157  72.3480368  63.9509058  82.9939435  73.2051373  64.3388796
  82.2553579  71.9077206  64.5882559  81.7372380  29.7120976  51.2241125
  81.3756476  30.5983710  51.2219048  81.7253016  29.4462585  50.3046465
  13.8331938  23.3735490  38.9596224  14.7267532  23.1938148  39.2519879
  13.4564674  22.5090599  38.7954044  66.1817743  16.8818063  35.2448935
  66.6728695  17.6609535  34.9841590  65.3270902  16.9863481  34.8267836
  69.8184190  13.7280047  43.4312487  69.4702349  14.3118799  42.7573872
  69.5662413  14.1391778  44.2580366  82.0883686  79.3361340  42.8848839
  82.7045232  78.6036868  42.8951883  82.5639063  80.0430367  42.4485540
  22.5338936   6.5259463  30.7051325  22.1564603   6.2779123  31.5490842
  23.0294180   5.7551110  30.4285455   2.4573270  78.6783864   5.9831185
   1.5785877  79.0535118   5.9254164   2.7751199  78.6727740   5.0802321
  84.9690030  56.2038279  65.7893944  85.9064753  56.3898611  65.8420229
  84.9027733  55.4820871  65.1641464  25.3939319  27.0689559  67.3344707
  26.0996580  27.6718783  67.5682831  25.6673384  26.2272501  67.6991796
   7.5185370  20.2524805  36.1521220   7.7476734  19.8248601  35.3269720
   7.0822901  19.5701861  36.6624093  79.8847620  10.4955673  18.3574498
  80.3573553  11.3270938  18.3193541  79.7921388  10.3153586  19.2929590
  59.3664837   4.3058324  44.4890261  60.2629757   4.1506365  44.7864199
  59.0924454   5.0951189  44.9561024   4.7641382   2.8348604  39.3331146
   4.0664893   2.4887343  39.8896360   4.3935072   3.6305952  38.9514470
  58.2804918   4.6444952  60.6740665  59.1208124   4.4251966  60.2715731
  58.5100889   4.9773163  61.5416765   4.1658217  17.7635872  63.1220865
   4.3266165  18.6929166  63.2855558   4.0994868  17.3749423  63.9943171
  11.4663994  44.7990179  47.1878767  10.6106353  44.4856882  47.4806690
  11.8524218  45.2027607  47.9651880  13.3536212  80.9894730   1.5072579
  13.5970894  81.5444447   2.2481770  12.4377231  81.2079646   1.3351435
  14.5729220  57.1705723  37.8131890  13.8644743  56.8895817  37.2340703
  14.6973705  56.4354706  38.4134984  19.0986621  60.9802198  30.8364558
  19.7093248  60.5175495  30.2626443  19.1382194  60.5012751  31.6642714
  75.6502329  21.2759542  61.1332512  75.3097950  21.0348868  61.9947767
  74.8714517  21.4882898  60.6188154  67.8877503  70.0794811  46.3026857
  68.1344503  70.0482614  45.3783512  68.4104759  69.3908341  46.7134857
   8.0280501  38.3155656  42.8166485   8.2033211  39.0744448  43.3730793
   7.6787114  38.6878371  42.0069504  62.6650904  18.5292411  68.3694363
  62.0607422  18.4143114  67.6360989  62.2815011  18.0138099  69.0789604
   4.5534364  57.6486613  37.7906794   4.1505710  56.7844273  37.8745265
   5.3199474  57.6121332  38.3628268  58.0762863  59.2644739  67.2462130
  58.7793636  59.9009275  67.1164274  58.4719229  58.5762739  67.7810764
  82.6675172  41.5486097  51.7973566  81.8341379  41.6449213  51.3364506
  82.4343194  41.1402798  52.6310921  28.9244652  41.6744614  27.1272588
  29.7021365  41.1189222  27.1804905  29.1230059  42.2981405  26.4288068
   4.4809312  27.1359682  61.6342545   4.4814029  27.8895259  61.0440159
   5.3748381  26.7965436  61.5900469  26.5527272  70.1147604  38.2022762
  26.1024404  69.3552732  37.8326154  26.9942284  70.5185318  37.4550962
   6.5088230  25.4412913  31.2444377   6.1509049  24.9060416  30.5361772
   5.9575152  25.2383018  32.0001411  61.5069674  24.0664501   2.6431508
  61.8642025  24.4311637   3.4528393  61.4291580  23.1283683   2.8168768
  56.1143486  77.9990269  15.8185191  55.4688303  77.3221089  15.6152434
  56.8430177  77.5231673  16.2170500  84.8249944  30.9180898   3.3817811
  84.6734865  31.1231775   4.3043942  84.0653833  30.3954620   3.1247229
  58.5801409  19.4994736  43.9917374  58.4165857  20.0079727  44.7860336
  58.6705945  18.5975063  44.2991543  71.1318420  27.3656130  55.8896351
  70.3582571  27.1765280  55.3585529  71.6907666  27.8933668  55.3192711
  61.2765681  16.5090103  -0.0853734  61.8283616  15.8360643   0.3132481
  60.5613293  16.6328306   0.5385918  12.3838532  40.5243969  18.7851918
  12.8062904  41.3792038  18.8693273  12.9677927  40.0236893  18.2155085
   0.5533690  57.8744173  62.6607943   0.7678188  56.9907713  62.9598236
   0.6668741  58.4238577  63.4363317  22.4784350  26.5651011  70.2666807
  21.8702459  26.8589592  70.9449053  23.3441830  26.6603947  70.6637096
   4.9934063   2.0410556  13.0038828   4.2888913   2.6559610  13.2082839
   5.7839952   2.5803537  12.9848189  37.9653273  14.7857802  68.2293081
  37.5805829  13.9416926  67.9932642  38.5399751  15.0009005  67.4946404
  28.7950110  50.3615761  67.3180246  28.4055853  51.2197685  67.1504164
  29.4627547  50.5274057  67.9834938  29.4031048  59.5861673  25.4908919
  28.8798547  59.6427727  26.2904143  29.8219466  60.4437351  25.4175401
  74.2277024  59.2536211  56.4568043  73.8810537  59.1571665  57.3438025
  73.4857796  59.0523052  55.8864927  40.5235926   2.6229136  56.5771437
  39.5705716   2.7093928  56.5996265  40.7850484   3.0633395  55.7685089
  20.1189546   4.4268840  58.3888006  19.8889015   3.5852664  58.7824965
  20.3986738   4.2071288  57.5001526  85.2905091  14.9957819   0.2232642
  85.5754336  14.0832777   0.2720780  84.5147832  14.9748344  -0.3371339
  52.9686348  27.8872245  66.3140392  52.3156540  28.5218947  66.0190153
  53.4895364  28.3627455  66.9611692  80.5050210  33.6045241  61.3636875
  80.7783292  33.8586974  60.4822540  80.6816844  32.6647925  61.4075804
   3.7318406  10.8433981   9.9326987   3.2126484  11.4736194   9.4332022
   3.3721194  10.8855218  10.8187289  17.8286469  55.5495882  41.0977173
  18.5401809  55.3299570  40.4962921  18.1598735  55.3023243  41.9610739
  48.8584201  51.4291145   6.1676497  48.6008708  50.6839086   5.6249089
  48.0445508  51.7167880   6.5812869  67.4260704  39.0635674   4.1673655
  67.8057281  38.6753258   4.9556298  66.4964954  38.8401263   4.2141862
  85.0295156  24.3831110  69.1416931  84.3792848  24.9648356  68.7479591
  84.5931953  24.0243244  69.9144363  59.2932603  20.6937093   8.8153119
  59.2430522  21.4942283   9.3376917  58.4719166  20.6763715   8.3240647
  63.3377258  77.5553872   2.8057856  63.4367172  76.8127848   2.2099919
  64.2345397  77.8279044   2.9999251  82.5763096  59.5735788  70.0330257
  82.5715752  58.9145136  69.3388748  83.2978178  59.3131828  70.6056118
  56.7867253  55.3737593  16.8606985  56.6539977  54.4328594  16.9761264
  57.0456241  55.6872082  17.7272737  45.5642299  71.7943551  15.5940909
  45.3349129  70.8653809  15.6196398  46.3974694  71.8483331  16.0620970
  25.0255210  79.7529890  15.4138369  24.9081005  80.4552175  16.0536093
  25.5550639  80.1467635  14.7204680  83.9552460  39.2644143  49.5409155
  83.7736560  38.9178658  50.4145050  84.8766194  39.0554857  49.3871212
  80.1704232  22.4038267  51.2042952  80.7749961  22.3929238  51.9463253
  80.7186244  22.2031116  50.4457331  11.7747531  13.0816764  11.5971846
  12.6779590  12.8390426  11.8010802  11.8474565  13.9305563  11.1608882
  64.4896577  77.3793650  59.0945244  64.2384122  76.6886520  59.7077322
  65.3854082  77.1587658  58.8391829  27.9949888  41.9855613  17.1955199
  28.6332234  41.5735836  17.7778906  28.1866272  41.6188068  16.3323874
  74.4241260  12.4752271  63.4561491  74.6334325  11.5680587  63.6785603
  73.4674822  12.5030303  63.4390306  37.7667713  34.5060182  64.6064901
  36.9382620  34.7997904  64.9853039  38.4286928  34.7664475  65.2470160
  29.5505333  65.9479856  36.2071323  30.0421476  66.3579369  36.9188094
  28.6496449  65.9111977  36.5284991  32.1412349  77.5471163  44.2560148
  32.1753788  78.4968424  44.3704224  32.3240328  77.4111414  43.3263254
   3.2424545  26.0681462  58.2139063   2.6167363  25.6695747  57.6090527
   3.3219606  26.9736671  57.9139948  77.8125222  27.0731277  25.9236044
  76.9019016  27.0380659  26.2164778  78.2561692  26.3999910  26.4396472
   6.4384685  23.2035703   1.1251731   6.6703448  22.3442525   1.4773697
   6.3160715  23.7542696   1.8984646  62.1844713  81.4007117   4.5552821
  61.3720934  80.9226920   4.3886275  61.9031159  82.3002507   4.7222991
   5.4379314  55.9238958  50.1442575   5.8058959  56.5490723  49.5197678
   4.8119745  56.4365292  50.6557417  53.0811073  32.2010297   4.5752377
  53.3921557  32.2184200   5.4803223  52.1369262  32.3426885   4.6436972
  64.0277688  78.0323459  15.0769229  64.0618436  77.8141286  14.1455454
  64.4523303  77.2928836  15.5118651  50.9703509  80.8420731  13.4489054
  51.1218540  81.2834145  14.2846579  51.4182822  80.0008156  13.5376353
  65.9139301   5.5769939   9.1558213  66.2902441   4.7348899   8.8999409
  65.4677268   5.3983182   9.9835963  70.7006307  21.0685892   0.5999941
  70.1251002  20.6412620  -0.0343471  71.5822073  20.9340066   0.2522273
  68.7259005  46.0316753  61.0111189  69.4766269  46.2217760  61.5737009
  68.0888401  46.7138863  61.2231874  33.4149122  24.6765375  35.2001572
  33.6310720  23.8799238  34.7154784  33.7566853  25.3871918  34.6575761
  64.9430277  27.5496978   8.5699315  65.4530211  28.3406896   8.7445015
  65.5326428  26.9916124   8.0628628  33.7787437   8.3774149  63.6681700
  34.4125652   8.9124483  64.1459179  34.3140483   7.7612352  63.1681728
  81.5624412  28.8378734   4.7082991  82.0248230  28.7954731   3.8712592
  82.2235306  29.1378088   5.3321881  28.9254878   7.0154326  69.5425987
  28.6661509   7.7551215  68.9932060  29.0035149   7.3858397  70.4217720
  34.1273141  22.7730036  56.9097137  34.3166256  23.7112427  56.9196939
  34.3835092  22.4862814  56.0331392  21.1018252  48.9976406  54.6759081
  21.8657017  49.4003582  54.2629385  20.4801655  49.7175455  54.7831917
  47.3729447  76.8836858   6.1767811  47.1971766  76.0072996   6.5192504
  48.1361512  76.7708113   5.6102080  64.4915668  14.7005503  44.4241047
  63.6458055  14.9977916  44.7596216  64.3130819  14.4419902  43.5199404
   6.3387156  33.5345292  50.9576035   5.8835667  32.8716683  51.4769173
   7.1552205  33.6913371  51.4319038   0.2486989  52.7709198  63.5679388
   0.8141519  52.4577665  62.8619432   0.6386778  53.6029768  63.8359451
  33.2504414  22.9040790  49.1272259  33.8224075  23.4156537  48.5550547
  33.2814692  22.0179391  48.7666321  83.4157697  64.8013999  12.6031584
  82.9522316  64.8729278  11.7687411  82.7811567  64.3987753  13.1959433
   9.0710026  37.7099490  34.8113251   9.5947653  36.9349527  34.6081376
   8.2340741  37.5549626  34.3734193  22.2385573  36.3281274  55.8592319
  22.2177505  37.1098018  55.3071594  21.8138242  36.5984941  56.6733170
  36.1876349  72.4329283   6.8084664  36.6198752  72.1834876   5.9916586
  36.3857822  71.7173363   7.4125332  80.4054626  19.4331855   5.8929534
  80.6545861  19.5095748   6.8140072  81.1707266  19.0444488   5.4692978
   5.8101773  41.1686993  29.9517035   5.9597969  42.0386124  30.3219700
   5.4686838  41.3376474  29.0735960  20.7787130  11.8171923  50.0843954
  20.0089441  11.7513411  49.5192862  21.1983208  12.6368468  49.8230028
  14.3863595  68.0572033  64.4429684  14.1930902  67.2595215  64.9354935
  15.1339114  67.8236914  63.8926363  82.6078005  54.5311260  53.8133669
  82.3806010  55.3747177  53.4222603  82.7795942  54.7321367  54.7333193
   2.6660162  63.1520462  31.8008780   1.7575049  63.0589628  32.0875382
   3.0928084  62.3462677  32.0920968  35.8514667  26.3512468  64.6463060
  35.1455927  26.8376970  64.2204618  36.6295075  26.8928003  64.5136261
  24.1149354  21.7378449  67.1499681  23.7133241  22.4152136  66.6058064
  23.9946747  20.9287381  66.6528606  54.2946188   0.0126689  51.1513090
  53.3951847  -0.1273305  51.4473677  54.4661991   0.9362929  51.3349390
  62.5203506  74.4003155  33.0149169  63.2670228  74.3275382  33.6093993
  62.5103156  75.3213932  32.7546305  19.7062981  52.8613567  45.2661800
  20.6417227  53.0637407  45.2820969  19.6627152  51.9536352  44.9655581
  37.5381780  71.9155979  32.1873689  37.8899646  72.1253204  33.0525255
  36.6363335  72.2354794  32.2115374  37.7741774  18.5016746   7.7952380
  38.5380848  19.0734357   7.7193017  38.1393536  17.6388044   7.9910273
   8.7581420  61.3964653  50.7832956   8.1639808  62.1418238  50.8707380
   8.3944911  60.7305384  51.3668442   8.1787241  36.9364429  45.6910133
   7.3367268  37.2305036  45.3434515   8.0047804  36.0578227  46.0286570
  73.1790169  20.5516738  17.8961176  72.5253518  19.8564357  17.9709620
  72.6656016  21.3538808  17.8007502  77.5272684  25.4593897  45.2283907
  78.3737038  25.2130103  45.6013155  77.5650517  25.1498866  44.3233967
  46.2399483  24.4014430  67.4883509  45.9023809  24.3875003  66.5927601
  45.7875776  23.6803365  67.9260731  75.2733086  27.5677872  53.9324379
  75.4434560  27.4851036  52.9941177  75.8826194  28.2444191  54.2276335
   2.3132604  60.1672792  58.2411432   1.6375671  59.9161339  58.8709021
   2.4316442  59.3905830  57.6943731  67.5669833  20.3222198   2.0094533
  66.7280026  20.0507659   1.6370864  67.9894944  19.5037431   2.2698493
  83.8933225  17.0243859  59.2432356  83.5860167  17.8087914  59.6976614
  84.5349180  17.3493898  58.6116076  79.5588897  66.5902472  48.9013195
  78.8729827  66.1015224  48.4464455  79.5902817  66.2016344  49.7755194
  83.3937369  58.8333988  46.5536165  83.2751344  58.5108471  47.4469948
  83.3356805  59.7855282  46.6330433  36.2910962  60.1209021  44.6054220
  36.2625170  60.9296656  44.0942287  37.1739817  59.7792339  44.4639826
  56.8660069  49.7614765  70.0190401  57.6345205  50.2871132  69.7969532
  56.8866348  49.6986246  70.9739542  77.1053759  62.2839975  43.0404139
  77.4731765  62.1382141  43.9120197  77.3386757  61.4974117  42.5473738
  63.4482207  16.8387050  34.6978945  62.9686369  16.5378208  35.4697127
  63.2802584  16.1686630  34.0352816  24.4846272  48.4470510  40.6035805
  23.6201191  48.0551386  40.4800320  24.3181038  49.2374706  41.1171341
  66.0947599   7.4014682  18.5771460  66.7291935   7.0460434  17.9547305
  66.1560883   8.3502359  18.4662146  83.8119854  40.6629801  55.3926897
  84.1408472  40.3539944  56.2368488  84.4237911  40.3025150  54.7508192
  21.0548639  48.8953781  61.7616987  21.0890436  47.9546070  61.5884686
  20.5962133  49.2616415  61.0055780  74.2901929  35.7482690   6.6809935
  74.3998452  34.8285646   6.4394278  73.5195621  35.7565565   7.2487015
   9.5996010  44.3772650  50.2601957  10.1287615  43.6244106  50.5237007
   9.0986860  44.0658426  49.5063162  53.5341976  61.3307095  65.7058811
  53.9516686  60.8550739  64.9877405  54.2593167  61.7508841  66.1683607
  76.2951956  79.9055338  37.7664471  75.7345591  80.5972004  38.1178880
  77.1269695  80.0139809  38.2275581   2.9569030  29.9202514  59.8809195
   3.1824055  30.5506039  60.5650520   2.2431761  29.4045377  60.2562428
  66.9418694  24.4705600   0.9851546  66.1050721  24.2601842   1.3995738
  67.5294234  23.7671537   1.2612576  73.6953290  10.3793687   8.7114091
  73.9866467  11.1647482   9.1745991  74.4406327   9.7809143   8.7624306
   0.9248289  81.4573956  66.4884377   1.1736654  82.2563839  66.0237598
   0.2086293  81.0915947  65.9693241   0.3775449  59.1901684  55.4516506
  -0.2580237  58.8440895  54.8251390   0.2384485  60.1370716  55.4356289
   8.8995353   8.4778636  45.9333038   9.8038987   8.6434310  45.6669521
   8.4122316   8.4316199  45.1107311  26.6881299  75.5986214  37.2130704
  26.5341640  74.9540997  37.9038095  25.9315133  76.1832094  37.2579908
  69.8422642  19.4135685   4.4366164  70.1180537  20.1041145   3.8338561
  70.4435571  19.4882412   5.1776309  15.2012491  60.0990486  40.2696896
  15.8586836  60.7027769  39.9239683  15.6869543  59.5350266  40.8715200
  81.4506801   6.1322803  12.7402873  81.3289507   5.4247350  13.3733649
  81.8505581   6.8398876  13.2458777  69.3402253  57.9061651  69.2596865
  68.4717785  58.2220316  69.5092154  69.1720699  57.2593689  68.5744047
  82.7688946  34.1732812  34.7662783  82.8562020  35.0142074  34.3174458
  83.4513078  33.6239386  34.3805742   4.6018308  51.5152311  40.3947020
   5.4564077  51.2445211  40.7303286   4.3730289  52.2852278  40.9152603
  50.8652941  74.1478445   2.5598855  51.3990537  74.0689685   1.7692465
  51.3900224  73.7342908   3.2453532  13.7662995   9.1824734  65.4903650
  14.6903336   9.2886406  65.2642679  13.3871400   8.7249523  64.7399330
  20.1568747  46.8428373  10.9278595  19.5821810  47.4020910  11.4505386
  20.7663107  46.4659977  11.5625310  79.1097055  53.5992479  52.2596025
  79.6233861  53.9458227  51.5300465  79.7626511  53.3297300  52.9055548
  57.2859089  79.4352605   2.1328682  58.0974833  79.0999343   2.5138373
  57.5066868  80.3189327   1.8385644  27.8576721   9.7210734  41.4637947
  26.9652354  10.0337069  41.6122770  27.8783755   8.8542598  41.8693113
  12.5049222  43.0606127  64.3419933  12.8509736  43.4375095  65.1509619
  11.6345000  42.7411461  64.5797729  45.3994719  69.1138222   3.1084437
  44.9230758  69.5787241   2.4205870  45.5727116  68.2487680   2.7370925
   3.6972988  39.6786404  47.9353046   3.6564714  40.3442097  47.2485828
   3.5877541  40.1684332  48.7503719  70.8076964  47.1384239  22.0146465
  71.2743197  46.6776133  21.3174033  70.3703974  47.8649569  21.5706325
  85.6225510  44.8968458  59.7912693  86.3104252  45.4135513  60.2108860
  85.1091607  44.5457363  60.5188608  24.9124241  67.9524660  60.6302834
  25.6238723  67.8998184  59.9920845  24.5070457  67.0856047  60.6091261
   6.4136362  66.1084032  61.0949087   6.2542868  65.2448225  60.7140303
   6.8822426  66.5885258  60.4121733   3.7145784  29.5923996  27.4791408
   3.6525661  29.6663547  26.5268183   4.5004889  30.0889254  27.7072620
  53.2535221   8.2167358   2.2471852  53.6574363   8.1515140   3.1125350
  53.5221728   9.0758390   1.9216055   2.6145715  58.6170197  66.9218874
   3.1793031  59.2141056  67.4126005   2.7360544  57.7683210  67.3475504
  83.7518199   7.5506897   6.6434092  82.9806932   7.8615017   6.1690754
  83.4664138   6.7359132   7.0568366   4.3131948  54.4210768  57.8300047
   3.6846668  55.1207447  58.0079126   3.8035110  53.6149263  57.9110956
   8.6574924  73.5788727  64.0297079   8.2600218  74.4417953  64.1463804
   8.9176261  73.3137417  64.9119043  28.2211645  35.7864446  18.7884421
  27.6423105  35.9595747  19.5308585  27.6613005  35.8899707  18.0189795
  81.8327193  26.6478324  69.7500753  81.1275671  27.0650220  69.2551565
  81.4330886  25.8599544  70.1185560  74.3140040  40.7844210  30.3196859
  74.6548579  40.3964186  31.1256027  74.0788661  40.0343180  29.7735310
  68.7924965  16.8459386   3.9024205  69.0977307  16.3750953   3.1269402
  69.2061349  17.7067585   3.8382048  77.6677080  38.2803411   2.8315110
  78.5627158  38.0894537   3.1121440  77.7498015  38.5029668   1.9041867
  24.9311733  40.4988766  63.8421249  25.5936694  40.9520960  63.3206606
  25.2374959  40.5840635  64.7449780   6.8149322  58.5934401  64.7801399
   6.9040084  57.6708031  65.0189543   7.7140367  58.8951874  64.6505547
  61.6464217  47.2970695   3.4520144  60.7130428  47.5064869   3.4863514
  61.6769182  46.3404483   3.4385962  24.0586543  32.2513652  52.4503422
  24.1907144  31.3039088  52.4838209  24.4455409  32.5177979  51.6163397
  13.8435292  75.3891802  31.2451863  14.4037759  76.1344194  31.0284591
  14.4404185  74.6414661  31.2749004  29.6099520  24.5083618  67.6244926
  28.7610078  24.5364642  68.0657816  29.9800396  25.3804421  67.7613974
   7.6868892  19.3955994  42.3540878   7.7834219  20.0527382  41.6648245
   8.4984887  18.8894176  42.3177814  54.6094942  75.9927702  14.9520767
  53.6722898  75.8308935  14.8440242  54.9826288  75.1295614  15.1305938
  20.6076121  54.6917057  68.7513828  20.8121681  54.4136858  69.6441841
  19.8439407  55.2608585  68.8468027   2.1004286  18.8408947  14.7725999
   2.9836401  18.5648668  15.0175047   1.9987658  18.5438752  13.8683450
  81.6873918  39.0914202  38.2017994  82.4031056  39.7057319  38.3649206
  81.9618429  38.6048627  37.4245167  20.4871559  22.9768658  55.9727812
  21.0215998  22.5466824  55.3052902  20.9093642  23.8252854  56.1075115
   6.5484273  13.7206757  41.9747400   6.5833902  14.6394610  41.7085743
   5.6876004  13.4196508  41.6838932  11.2275457   6.5683609  34.8579645
  11.4627409   6.9278318  34.0025735  11.5054107   5.6532592  34.8178220
  86.3103708  36.6564775  21.0834074  85.4134172  36.5617347  20.7628918
  86.6067576  37.4919367  20.7223058  86.0732835  48.5141993  68.1602144
  85.9779423  47.5881195  68.3827400  85.3158106  48.9369678  68.5648537
  68.2336770  56.4604807  48.4057331  67.5899861  56.7078114  49.0696049
  68.5425542  57.2935104  48.0495262   9.8468250  50.8050442  21.1073637
  10.1924312  50.2338457  21.7933083   9.3716550  51.4877415  21.5810394
  86.5297342  67.1088171  68.1786633  85.7633234  66.8441772  68.6874008
  86.9890816  66.2896204  67.9938793  19.7089386  32.3367310  61.7622662
  19.9544156  31.5684462  62.2777367  18.8706660  32.1007419  61.3649750
  13.4668958  50.5813551  65.0633478  13.8590717  50.6583738  64.1935778
  13.4101355  49.6384144  65.2178478  13.7875473  54.0790224  69.0091896
  13.4308159  54.8913860  68.6499739  14.1934395  54.3405151  69.8356915
  14.3711293  44.1485023  57.5602722  15.3062832  44.0241480  57.7223015
  13.9517045  43.9182138  58.3892965  82.7371482  60.5124569  58.1795311
  82.7979557  61.1454582  57.4640989  82.3115693  59.7493601  57.7886343
  12.3846591  76.5929937  56.9840002  12.0510137  77.4898434  56.9601631
  12.0799363  76.2022352  56.1650467  77.0579754  37.9298496  33.3605886
  76.4494954  38.5126805  32.9063940  77.8045945  37.8530335  32.7665424
  43.5366201  41.6929102  64.1383314  43.6642694  40.8461857  64.5661116
  43.8380432  41.5554047  63.2402945   8.1982023  34.7833681  52.4585581
   8.4664530  35.4362226  53.1051302   8.8014233  34.9096847  51.7261648
  10.6450260  65.3505564  53.3631897   9.9504727  65.8704042  52.9587317
  11.3718891  65.3974867  52.7421427   9.6150976  41.0315609  16.4231026
   9.6680534  40.8337641  17.3581457   8.6803108  41.1525154  16.2564421
  33.1380796   5.8412939  59.5535898  32.4119234   6.0095572  58.9530754
  33.6216807   6.6668594  59.5819044  55.4760377   1.6224997  35.4296184
  55.9461013   1.8213980  36.2393785  55.8937685   0.8270877  35.0993752
  77.1824733  18.8660567  56.2746096  77.1727029  19.6443026  55.7174158
  77.6770774  19.1325324  57.0495892  67.5702830   6.9363756   1.0722870
  66.9271793   6.9362278   1.7812676  67.0519729   6.8026943   0.2787442
  74.5983315  48.6212969  16.9366479  74.5156908  49.4765186  17.3585463
  73.9717722  48.0646038  17.3989737  19.4061542   8.3077908  41.9366407
  20.1625609   7.7357203  42.0663118  18.9038122   7.8862822  41.2393522
  26.5352535  64.1457272  68.2551813  26.3271809  64.3828630  67.3514652
  25.6914997  64.1602898  68.7069559  57.6568195  28.1971855   0.3510136
  58.0826253  28.7855119  -0.2725225  56.7470146  28.1540460   0.0566907
  52.8866068  12.6872103  50.4237366  52.9018084  12.6037257  51.3771677
  52.4675075  13.5328334  50.2640057  30.6701088  67.4044085  33.8934493
  31.3067460  66.8950653  33.3919573  30.5146980  66.8841314  34.6817327
  16.4913726  73.7381840  58.8227606  17.2495854  73.7410688  58.2385206
  16.2906528  72.8109694  58.9500999  83.0874952  29.6585054  22.0615954
  83.4817727  30.2450676  22.7071375  82.1608861  29.6283884  22.2997660
  76.1783813  74.4089794  42.8544092  76.8738298  75.0602961  42.7629185
  76.5571616  73.7311649  43.4141636  80.0668095  71.3344622  43.2998037
  80.4462026  72.1960735  43.4727812  80.6878750  70.9143543  42.7048111
  71.5581511  59.3418694  50.4183578  71.8440328  59.6313763  51.2847805
  72.0065699  58.5068130  50.2848196   3.8282237  20.6898040  12.2832865
   3.7415514  20.9612960  11.3694949   3.3308110  19.8738927  12.3389430
  18.2676005  71.9730759  40.4751825  18.1953228  71.5362930  41.3238430
  18.8787496  71.4298820  39.9775195  13.8097489  65.1063108  70.3553820
  13.9861393  65.7234192  69.6452427  12.8658009  64.9538469  70.3112602
  52.6756326   1.4518206  58.1066704  53.2464592   2.1477549  57.7810049
  52.0683376   1.2833827  57.3862171  69.8328312  29.3225689   1.2687678
  69.2732604  28.5459680   1.2692256  70.4303034  29.1868467   0.5333514
  21.1913466  63.4111929  62.9304028  21.9860911  63.2454109  63.4374857
  20.4876184  63.0328941  63.4575558  75.8876411   9.6719401  27.2195601
  75.2403490   9.1231482  26.7767572  76.6866676   9.1448920  27.2224832
  64.7517629  30.6716890   6.5716738  65.5733146  30.5092449   6.1081023
  64.1026707  30.7827015   5.8769888   9.9954534  48.3397102  31.1415195
  10.6717336  48.3406115  30.4641151   9.8586828  47.4138260  31.3421845
  78.1005136  15.0940268  65.1988363  78.3907882  15.2187293  64.2952776
  77.4727670  14.3729728  65.1513815  23.9137793  52.1596336  56.4646721
  24.2479300  51.7206812  55.6824350  23.9083910  51.4788198  57.1374941
  71.5694328  22.7573032  17.2690577  71.6760596  22.7390403  16.3179869
  71.2205299  23.6291952  17.4542517  15.2194810  66.6714764  50.4867220
  15.6358409  67.4950075  50.2324104  15.0591171  66.2185144  49.6588707
  14.7891235  50.5140209  69.9083471  15.1618481  50.6552601  69.0380859
  13.8805413  50.8047915  69.8298407  68.7742327  62.4439859  19.3616307
  68.4640036  63.3362961  19.2074406  68.1827293  61.8928528  18.8491738
  76.6878168  25.1148837  40.2197027  76.7064945  26.0210746  39.9119759
  76.0586540  25.1198142  40.9410620  18.1753314  41.3484573  60.9390593
  17.7012944  41.5157127  61.7536449  19.0498698  41.7057610  61.0931778
  35.3069494  35.1240771  65.2148962  35.0061117  34.4731467  64.5808458
  34.8884902  35.9392588  64.9381351   3.5687385  34.8210973  30.0981135
   3.6433086  35.7421321  30.3478522   3.7572846  34.8113555  29.1597170
   5.6754476  71.9372511  66.0457754   6.2070000  71.1490774  65.9341145
   4.7744972  71.6157246  66.0795784  13.0392346  42.6034660   2.2260089
  13.0368028  42.2747345   3.1249899  13.3400474  41.8620033   1.7006774
  24.5951748  74.0740299  30.7585120  25.0981617  73.8350773  29.9799633
  25.0761414  73.6780930  31.4852405  22.3513303  61.5497608  14.5596881
  22.1978889  60.8837719  15.2298731  23.2768474  61.7752285  14.6535582
  13.0423427  81.3072014  39.5170546  12.9318678  82.2093582  39.8172903
  13.7329364  80.9515095  40.0763369  27.2955918  66.7426205  41.4890909
  27.5555491  67.6039886  41.1624479  28.0340195  66.4577532  42.0274258
  49.0264503  10.5043261  31.5299535  49.0587656  11.1027186  32.2763586
  48.6977772   9.6829932  31.8954873  26.1484623  71.6949940  66.9328976
  25.2539802  71.3698721  67.0350266  26.4306831  71.9034481  67.8234720
  33.8345202  27.4575780  67.2467118  34.4748076  28.1676934  67.2019326
  34.3611916  26.6674445  67.3672502  27.1896744  55.1304770  24.2635655
  26.8656611  56.0114813  24.0762806  26.4288926  54.6640635  24.6098399
  66.8401432  81.2807274  28.1997418  66.0787964  81.8572140  28.2648730
  67.5157690  81.8215370  27.7907276  12.6168299  44.2877293  70.0507069
  12.1233058  43.4843683  69.8855448  12.1240568  44.7342873  70.7391787
  84.4722088  42.9477329  18.5154051  83.8157185  43.3773155  17.9670329
  84.1345747  42.0612163  18.6432070  24.0427542  49.1687870  22.1240973
  23.1228971  49.0532303  21.8858981  24.1164947  48.7743902  22.9931450
  75.4192565  69.8131657  43.3534908  76.0317074  70.5296898  43.1869698
  75.9682367  69.0994215  43.6781740  50.7075453  70.3078508  68.5450315
  50.2834129  71.0617495  68.9548874  50.9188843  70.6039715  67.6596642
  10.9515560  70.9852266  49.5814466  11.5391195  71.7280006  49.7203255
  10.1233160  71.2579203  49.9762726  13.6173761  65.4783869  64.9468946
  13.4145451  65.0549555  64.1127491  14.1861916  64.8556566  65.3995419
  28.9373541  59.7194052  57.4650049  29.2634606  59.8045206  56.5691042
  29.7246528  59.7369194  58.0091429  21.4716840  71.6678619  64.6215343
  22.2180676  72.2671032  64.6146154  21.1032796  71.7542887  65.5007601
  33.4937572  68.8527107  47.2301388  33.8802552  69.4952822  46.6351986
  32.8456926  68.3921766  46.6970825  62.2535324  70.9445333  51.9875813
  62.6980495  70.0990105  51.9265032  62.4979258  71.4022684  51.1832285
  14.3832564  49.8792124  57.7966022  13.9695203  49.1321087  57.3642969
  13.6580467  50.4698038  58.0003309   1.1585460  56.0975666  -0.1056915
   0.2963123  56.2334461  -0.4985338   1.0450277  56.3439197   0.8122725
  26.0604382  65.1216030  65.5855417  25.3704524  65.6919003  65.2465630
  26.7363453  65.1345634  64.9078894  53.2145754   2.6262610  60.8633280
  53.0846135   2.4034159  59.9415445  54.1241805   2.3873465  61.0415602
  77.8799425  64.8963070  47.8228045  76.9798194  65.1780558  47.6596260
  77.8039501  63.9682531  48.0445528   1.6368009  44.0568829  53.3461428
   1.0575317  44.8139620  53.4328079   2.2948238  44.1792059  54.0304518
   0.5488424  48.8199091  62.7060938   1.0296327  48.4123993  61.9856739
   1.0015415  49.6496677  62.8570890  76.4104791  36.8246622   8.3403868
  75.7652434  36.5360088   7.6949544  76.5089758  37.7627582   8.1775851
  84.1167672  61.5899038  52.8780794  83.8707287  61.6761398  53.7990904
  83.9090182  62.4416542  52.4939060   0.6049388  73.1591059  11.7329688
   0.7748407  73.5500290  12.5900263  -0.2679068  73.4722497  11.4956660
   7.0574474  75.8139849  10.9612608   7.7746588  75.8563852  11.5937495
   7.1473765  76.6138220  10.4431880  40.8559847  50.4536390  39.1766000
  40.0291109  50.8853388  39.3914390  41.1899376  50.1433516  40.0182819
  56.6899300  45.3479147  60.4693127  56.9136333  44.4695091  60.7768583
  57.5300932  45.8030510  60.4126787  22.9840589  50.5203056  52.7514315
  23.5366583  50.6283331  53.5255098  23.4308505  49.8539877  52.2292948
  25.8540521  54.0599079  34.1490645  25.1738391  54.2733688  33.5103316
  25.7502732  53.1211872  34.3047995  54.2512608  51.1423826  46.4944649
  54.3526649  51.7132473  45.7328463  55.1466942  50.9112597  46.7414665
  66.7742612  26.5564127   4.7810692  66.5017505  26.9190139   3.9381642
  67.2542026  25.7596416   4.5551343   8.4035955  53.4126014  17.4192137
   8.1266389  52.5281829  17.6586337   7.9659257  53.5830993  16.5851779
  26.7223477  57.4739695  16.0482645  26.2183690  57.1689463  15.2938116
  27.6084113  57.1471262  15.8923864  17.5280891  11.8319244  16.7033381
  18.3434138  11.6677064  17.1771617  16.8415389  11.7130203  17.3596472
  63.6507002  16.3793319  51.8378353  64.4904844  16.4419024  52.2928953
  63.8840715  16.1851161  50.9300613  37.8460602  20.6829016  34.6821427
  37.9904590  20.6811469  33.7358975  38.6819474  20.9677356  35.0514579
  67.6569653  63.8985682  68.4635353  68.5584164  63.9163446  68.1421280
  67.2583771  63.1512547  68.0175686  43.3272795   2.8499167  59.7014523
  43.1552271   1.9976466  60.1017809  42.9983906   3.4844153  60.3382254
  59.2275286  80.8476162  36.1635542  59.9300861  81.2926483  35.6896448
  59.6400404  80.0608635  36.5200496  35.6256342  68.8159895  36.8322849
  36.2838984  69.0160656  36.1667848  34.9025202  68.4231186  36.3434172
  58.7492482   6.7509692  45.6461525  59.4180862   7.3772185  45.9230852
  58.3748643   7.1352618  44.8534441  25.9825134  80.0178528  61.9933796
  26.1313105  80.9155369  62.2904444  25.2525067  79.7063923  62.5284672
  80.3349725  77.9809095   8.3936448  80.6371967  77.9961421   7.4855370
  81.1169712  77.7676513   8.9027876   6.7356431  55.0267553  52.4595118
   6.3758069  55.0692558  51.5735388   6.0956812  54.5143747  52.9536200
  72.9178115  48.0513687   9.9449725  72.4166508  47.3934955  10.4269213
  72.2546013  48.6339874   9.5749182  78.4718792  59.7134686  46.3205099
  79.3327026  59.7261143  45.9021139  78.4877346  58.9352179  46.8775606
   2.7230392  36.4257021  13.2380385   3.1262312  35.7833118  12.6540846
   2.2274790  35.9004278  13.8663191  83.3293088  10.8262224   6.2576146
  83.1934984   9.9683160   6.6598363  83.8978775  10.6518001   5.5075879
  82.8397079  60.0420618  63.7159681  82.8798322  59.2937279  63.1204700
  83.2506887  59.7291803  64.5218372  60.6161690  66.8616581  31.7561531
  59.9160242  67.4448633  31.4630651  60.2001715  66.0020733  31.8216610
  18.9180741  17.6403493  14.7120852  18.2794652  16.9601411  14.9259181
  19.6421514  17.1683139  14.3008322  82.0595915  32.6570511  59.1139507
  82.2234966  32.2335839  59.9565887  82.7883957  32.3778129  58.5597849
  60.3446380  14.5225852  54.4596052  60.0691549  15.3790038  54.7865438
  60.7477728  14.0959304  55.2157021  70.1501105  19.8005033  41.1240673
  70.1118181  20.4946232  40.4660702  71.0811375  19.7168088  41.3300228
  23.0931664  73.4225416  27.6939201  22.4687123  72.8017950  28.0693698
  22.8443027  74.2680550  28.0672979   5.5507789  33.7216157  20.7980151
   5.3498921  33.7036628  19.8623080   6.4576469  33.4204931  20.8541102
   1.5703735  57.9614467  17.7357096   1.1440263  57.2226734  18.1700701
   0.8684335  58.3877773  17.2440238  18.4884667  57.9916811  38.3907318
  18.6346960  58.8453579  37.9831934  17.5389588  57.9374743  38.4990335
   2.2221620  62.3150539  53.5088253   1.4931554  62.1568537  54.1086197
   2.8589803  61.6325188  53.7205744  10.9317678  12.1585887  37.3171830
  10.0562328  12.2838633  37.6832056  10.9667390  12.7558940  36.5700340
  14.1192377  70.7923079  65.4013014  14.7021103  71.0711098  64.6950722
  14.0284956  69.8474264  65.2780199  20.4948616  70.2268744  62.6131725
  21.1027002  70.6454945  62.0036459  20.7167387  70.5995083  63.4664869
   9.2821560  72.4138565  22.7765460   9.3195448  72.0365257  23.6554427
   8.7436113  71.8012733  22.2756095  18.7561262  50.4529047  44.7331381
  18.6848843  50.1402950  45.6350470  17.9277527  50.9038544  44.5698118
  38.9149062   4.3509047  58.0766582  39.8605959   4.4949954  58.1104136
  38.6048082   4.5904486  58.9499807   9.2831001  27.5812597   7.7784485
   9.3640719  27.4164028   6.8390364   8.6853371  26.9017667   8.0902142
  47.8906202  80.3067112  37.8596139  48.4657812  80.1761341  37.1057105
  48.2391930  81.0846996  38.2948923  32.5246406  65.7921124  63.6801815
  32.1412253  65.1146555  63.1231499  31.7935014  66.3742447  63.8870335
   2.8501425  45.9328575  26.1007495   3.3250532  45.2550907  26.5817160
   2.8119121  46.6736431  26.7057318  16.7242837  68.5941410  53.0222988
  16.4963996  69.4389296  52.6341820  16.1591172  68.5237551  53.7916279
  70.5981199   6.6254275  33.1817198  69.6580259   6.8018000  33.1449509
  70.9646455   7.1274417  32.4537969  29.6786199  42.3699684   8.4514184
  29.2163930  43.0184574   8.9824957  29.6619830  41.5719337   8.9797110
  38.8651633  78.2758999  41.9068623  38.9835238  78.2274485  42.8554821
  38.7789154  79.2114496  41.7237282  41.8179321  49.4388437  28.0201936
  42.4353170  50.0461435  27.6124501  42.3716593  48.7901020  28.4546423
  70.8315889   4.7400897  18.3755994  71.4372532   4.0495341  18.1062758
  70.8090536   5.3423541  17.6319563  28.4562039  61.7920017  70.9373236
  28.4855056  62.5013876  70.2953386  28.3074808  61.0031414  70.4159641
  75.5286256   6.0850661  63.5127878  74.8418085   6.3239234  64.1352510
  75.5497066   6.8109648  62.8891993  28.2602143  52.8376055  37.0448852
  28.0125999  52.9858875  37.9575372  28.0205727  53.6488247  36.5968633
  60.2003495   1.3930266  60.7644033  59.2665712   1.4599555  60.5648851
  60.4235641   0.4840701  60.5638933  41.1774349  60.1519060  41.1497927
  41.0624313  59.8413420  42.0478773  41.7641878  60.9039450  41.2297106
  77.9634706   8.9845412  58.8623857  77.1311990   9.0534156  59.3301630
  77.7278082   9.0774291  57.9393101  46.1453811   5.3898852  60.3739309
  46.8314044   5.7630294  60.9274387  46.4678649   5.5079501  59.4804573
  83.7069727  51.3952208  29.9860549  83.0898644  51.7225647  30.6404686
  84.5422987  51.3414192  30.4503465   5.7547921  48.7081289  44.3891335
   6.2739760  49.4949627  44.2230892   5.8718908  48.1737328  43.6036730
  28.5704899  77.5144911  50.4903221  29.3893147  77.5673437  49.9974108
  28.5003114  76.5931129  50.7400703   6.0948548  49.2783374   3.9591546
   5.5140457  50.0107688   3.7531561   6.4832387  49.5105381   4.8026414
  26.7505431  45.8044767  33.1986141  26.9658542  45.7547712  32.2672701
  25.8212328  46.0330582  33.2177329  52.1246807   4.3134730  51.8729496
  52.0872323   5.0208800  51.2292051  52.8814355   4.5263999  52.4190426
  84.3507775  14.8963375  17.9637808  83.9881690  14.3410272  18.6539836
  83.7588080  15.6475372  17.9249949  41.0082054  70.2867270  18.8005686
  40.4681349  69.5011091  18.8863647  41.6708231  70.1978445  19.4856012
  72.8093823   8.6843080   4.8656363  72.2169026   8.5008497   5.5947060
  73.3089813   7.8755445   4.7536702  32.6332259  65.6277800  45.7647276
  33.2490849  64.9295616  45.9870863  31.8522024  65.4320765  46.2823534
  24.0267897  67.7552938  50.2062893  24.8366952  67.2452164  50.2165365
  24.1664410  68.4396458  50.8608055  49.7866297  67.7403069  36.9013596
  50.0790501  68.5222673  36.4331079  49.1880512  68.0717897  37.5707316
  16.9023633  58.7512541  41.9707775  17.5178909  59.0718126  42.6300144
  16.9736576  57.7979803  42.0199776  17.4534893  71.4215994  29.4259310
  17.6498938  72.0377159  28.7202001  17.8622508  70.6016588  29.1487193
  55.6498861  51.5465736  35.3012037  55.6492758  50.6369114  35.5991077
  55.6157160  52.0624399  36.1067772  13.2577860  61.8708134  46.6181278
  13.0060327  61.4466810  47.4384689  13.0053902  61.2461138  45.9382200
  35.0285361   2.0881408  51.9956303  34.2137055   1.8273299  52.4248791
  34.9638240   1.7194407  51.1146641  84.3201144  13.7659998   3.9762015
  84.3890746  12.8272361   3.8024325  85.1224406  13.9811153   4.4518323
  59.9099127  65.8180692  20.4049964  60.2049152  66.0521819  19.5249934
  58.9564387  65.7727577  20.3338332   3.4213009  80.9009457  27.6951241
   3.0638474  81.2883568  28.4941030   3.1062889  81.4688110  26.9918966
  71.0238739  25.0104303   3.4333891  71.2310906  24.6131439   2.5875420
  71.7176719  25.6552476   3.5715336   0.2930021  58.6213303  30.2966833
   1.2184355  58.6893606  30.5315804   0.2779588  58.7365818  29.3465662
  29.3474746  77.4225473  63.9493132  28.9968514  77.7674389  64.7704983
  30.2945185  77.5387621  64.0256834  45.2182531  50.6532288  63.8145113
  44.5953512  50.7637787  64.5328474  46.0229349  51.0647011  64.1298056
  52.8341333   1.3133090  31.1103559  53.4618823   1.4748423  31.8146777
  52.3839084   0.5096381  31.3704395  82.3832353  23.7312383  11.5457053
  82.9693278  23.1097383  11.1138911  82.5340517  23.5926933  12.4807353
  83.8541253  19.4981641  16.5388388  84.7703846  19.6791858  16.7484374
  83.3691223  19.7950668  17.3088069   2.2115598  57.0316906   7.1335740
   2.2883806  56.7048187   8.0299420   2.6074777  56.3471431   6.5942473
  10.4130111  26.7957229   2.1237177  11.1949859  27.2748012   2.3980040
  10.6091819  25.8810014   2.3262925  61.3032630  36.1395000  69.2875590
  60.8180583  36.5544198  68.5743623  61.3137394  35.2095864  69.0608858
  17.3791528  49.1447687  56.3426781  17.3088038  48.3122873  56.8098497
  17.1380258  48.9342976  55.4405737  85.4687921  16.6014140  47.3757124
  86.3611213  16.2568991  47.4116421  84.9672786  15.9210341  46.9264793
  82.9781191   9.4262355  39.3899202  83.7695161   9.9549716  39.4917083
  82.6543991   9.6453707  38.5161829  33.4751225  33.6925268  23.0958414
  33.2744503  34.3476915  23.7642121  32.6977086  33.1348777  23.0660462
  33.8350153  74.9115467  50.4777241  33.7211347  75.3940916  49.6589327
  33.1135559  75.2078104  51.0326624  21.2046647  71.6656971  67.4160147
  20.3252029  71.9284630  67.6875544  21.7472100  72.4363756  67.5831413
  32.9863119  81.1228275  41.4883614  32.1392798  81.0095406  41.9195700
  33.5999703  81.2852669  42.2047901  71.1997263  68.2284238   3.0835385
  70.6411878  68.3064343   2.3101182  70.6175272  68.4173419   3.8194651
  10.4087919  22.3873465  70.3057671  11.0169929  22.8205722  69.7069025
  10.7916921  21.5222876  70.4516745  64.5396129  20.1547473  69.9169111
  64.0367214  20.1586669  70.7313538  63.9717690  19.7110026  69.2869282
  47.8511143  61.6134119  62.4982357  47.3578167  62.0334148  61.7936182
  48.4532261  62.2909260  62.8059196  31.6002011  75.3945923  35.8038163
  31.1210942  75.4566574  36.6301560  31.6652441  74.4547033  35.6346774
  70.4284374  17.8498881  34.0801716  70.9622900  18.0535071  33.3122063
  70.2913133  16.9037669  34.0325212  44.7241449  76.9870615  49.5088530
  45.1797676  76.2762785  49.9598789  44.5210075  77.6177454  50.1996517
  60.8685017  73.7202883  51.4548540  61.2930679  74.5727682  51.5510893
  60.5622530  73.5044479  52.3356819  58.5781145  78.3761072  50.7927561
  59.3445206  78.2220268  50.2403879  57.8356314  78.1034184  50.2536869
  71.6329805  22.1183341  60.6516457  71.6961614  22.3205893  61.5850973
  71.8111126  21.1794131  60.5974293   2.6033014   4.7496360  62.8234005
   3.3650535   5.0566809  63.3150196   2.2831100   5.5278151  62.3671722
  41.0507393  60.5699825  58.9930153  41.4769697  61.3489532  58.6355686
  40.4826784  60.9048748  59.6868324  19.0020394  79.0319204  61.0101891
  18.8645232  79.9547529  61.2239695  18.3019221  78.5718870  61.4732647
  15.4201215  29.2346041  58.7507963  16.1246198  29.1260855  58.1119394
  15.8449787  29.1096442  59.5993948  27.7798487  20.2062552  66.7124033
  28.4066711  19.5292037  66.4575958  27.3565752  20.4614966  65.8926964
  37.2772551  68.5770369  51.4507055  37.9522848  67.9627085  51.7390919
  36.6622663  68.0399609  50.9511423  67.5910465   7.6352637  55.3569460
  67.7716772   7.9821437  54.4832897  67.4179165   8.4103148  55.8913040
  16.3394594  75.9705544  51.0991955  16.6273165  75.9069538  50.1885223
  16.9972193  75.4809666  51.5930510  78.2270900   7.9376071  26.8047738
  78.9391939   8.3202498  26.2922096  77.9842083   7.1463721  26.3239479
  11.3733707  48.1569881   7.3689980  10.9681234  49.0158100   7.2488541
  10.9905276  47.6130886   6.6806359  45.5277661  35.9408133  47.5582933
  45.2106456  36.3065379  46.7325163  45.1662223  35.0548404  47.5823784
  72.5138529  14.2847938   0.7133383  72.1098312  15.1516361   0.7530970
  72.1446975  13.8139886   1.4605326  56.0477177  17.2758048  47.8865051
  55.8744733  17.6490824  47.0222855  56.6624014  16.5612071  47.7199125
  60.5783145  22.6119941  46.4057302  61.2967579  22.6938288  47.0329237
  60.9699575  22.8380530  45.5620813  59.1963053  71.9340181  69.4276476
  58.7041140  71.5276194  68.7143326  58.5667372  72.0004654  70.1456022
  61.9134951  58.0278778  66.3934708  62.0829535  57.7147770  67.2819996
  62.2661686  58.9176607  66.3817310  43.3324671  65.7251644  47.7857447
  43.7668753  65.3352118  48.5443354  42.4026489  65.5437851  47.9227495
  78.8447237  52.3117876  63.0202198  79.6092653  52.8167486  63.2972050
  78.1322241  52.9504871  62.9947996  69.6344129  21.7626899  58.2660770
  70.1694290  22.1319907  58.9686441  70.1004354  20.9694426  58.0018425
  82.4394457   6.8404334  59.6954966  81.9648067   7.3330348  60.3650427
  81.7995111   6.2114566  59.3621922  51.9374506   4.9552481  59.4868040
  52.5800411   4.2588752  59.3512630  52.4467699   5.7641642  59.4369364
  83.1551887  67.1081018  56.6346312  83.8811664  67.0880699  56.0110998
  83.0674936  68.0316257  56.8705320  70.6137343  55.3284187  11.8568511
  70.0485786  55.4083271  11.0884471  71.3289495  55.9431381  11.6931052
  21.6159616  34.2632503   6.9262881  22.3789773  33.9994020   7.4405093
  20.9384523  34.4431991   7.5780768   8.5378307  13.5573619  64.7086525
   8.4051364  13.0816119  63.8887262   8.4889263  12.8838008  65.3870058
  81.6032847  25.3127164  31.7231650  80.6706937  25.4362220  31.5463824
  81.8066009  24.4556064  31.3486666  40.0862185   0.1562255  66.5282393
  40.0932137   0.8924334  65.9165382  39.3102590   0.3018706  67.0694494
  76.1703292  32.9290812  21.8812203  75.3339140  32.4755614  21.7765117
  76.6045038  32.4681227  22.5990248  78.7953909  36.4086599  18.3328623
  79.4796928  36.4482469  17.6647372  77.9788526  36.3534565  17.8364272
  22.7072763  72.1288872  17.7919054  22.3013878  71.2831736  17.6014864
  22.0936775  72.5606203  18.3863258  86.0074234  67.0742607  45.4815769
  86.2620068  66.6937733  46.3222027  86.3118935  67.9806137  45.5268764
   9.6268687  52.9577941  24.7307772   9.4051156  53.0960865  23.8099379
   9.6342621  52.0063228  24.8350806  79.8883716  23.2393496  45.1988602
  80.3892891  24.0125315  44.9390602  79.6259681  23.4163707  46.1022091
  54.2415165  27.3541278   8.1913657  54.5058175  27.8346653   7.4068541
  53.5352107  26.7804641   7.8942580  73.6962835   8.8482230  60.0065804
  73.3789865   8.0385154  59.6066523  72.9713241   9.1433089  60.5575657
  65.3510372   0.8968585  20.7225370  65.9210793   0.3456061  20.1864266
  64.7790519   1.3344710  20.0920153  39.6125841  79.7523880  61.6105366
  39.5831227  80.4771900  62.2350550  38.8327694  79.8715210  61.0683823
  36.3239622  78.5884666  68.6668253  36.5950394  78.1433105  67.8639603
  35.5733347  79.1209602  68.4036922   5.8401287  63.7302732  20.5839348
   6.4533061  63.0501175  20.3053093   6.3502121  64.2856884  21.1734772
  20.6987023  72.6240873  43.5889912  19.8805821  72.7651215  44.0654564
  21.1120272  73.4870291  43.5620975  55.1545572  58.9944649  46.9837618
  55.6603289  58.8565111  47.7846384  55.3592205  59.8924112  46.7229223
  46.3995504  62.8591681  55.1672935  47.2680521  62.9915190  54.7872639
  46.5668535  62.4133825  55.9976625  60.7233810  72.9986000  64.4744682
  60.0220585  73.3223343  63.9091587  60.3996181  73.1419420  65.3637695
  45.3108168  76.6882563  64.1427326  45.8680964  77.1670246  64.7562885
  45.7726765  76.7438698  63.3061790  35.8002996  66.5881586  50.6819201
  34.8522305  66.5494061  50.8079815  36.0698676  65.6725836  50.6091738
  79.8875801  30.9219020  58.5664511  80.6185953  31.5392440  58.5391045
  79.7694294  30.7316630  59.4970846  64.1574113   0.5125468  70.0383139
  64.2161981   0.9066241  70.9086418  65.0515358   0.2337210  69.8407555
   7.3905168  28.0747432   9.9590106   7.1958432  28.4249134   9.0896935
   7.4726281  27.1306676   9.8240656   9.5347247  61.6947193   2.3056359
   9.7167955  61.5231056   1.3817114   9.5864782  60.8351631   2.7236218
  75.2256719   3.4346526  53.5369205  75.3808872   2.5251048  53.7915993
  74.4711534   3.3934253  52.9493523  61.8615675  68.9729214  36.9376564
  62.7342367  68.5821629  36.8930554  61.2627268  68.2361078  36.8162870
  17.0119844  70.2176113   0.7256074  16.4467940  69.4451065   0.7203288
  16.5111766  70.8775158   1.2051434   6.1368928  12.6625366   7.8666777
   5.7514558  13.0018968   8.6744589   7.0285163  12.4155254   8.1120820
  32.7295241  67.2553844  24.9697871  33.4449134  67.0179195  25.5597586
  32.3092971  68.0044860  25.3922743   1.0733113  56.9876117   2.4138588
   0.2091823  56.9988555   2.8254218   1.6308818  57.4827880   3.0139775
  25.6051812  51.6075534   1.8704886  25.3498826  51.6559238   0.9492297
  26.5433393  51.7975254   1.8693394  46.6305093   1.4538520  69.0740204
  46.0175470   0.7648986  68.8174057  46.2901632   2.2450106  68.6563253
  24.0372489   9.4096320  35.2945018  24.1175167  10.1424544  35.9050488
  24.9349679   9.1012233  35.1711535  70.5819837   9.0840953  63.6415195
  70.1105587   8.2631247  63.7829256  70.7914917   9.3947547  64.5223331
  37.1363274  16.2177890  50.1536322  37.0622257  17.0638888  49.7122240
  37.8976075  15.8022254  49.7486687   6.3926921  51.1749763  11.7258162
   6.4104018  51.1844654  10.7688231   5.8645210  50.4082317  11.9480033
  75.1938478  26.5862983  43.4071732  74.8670570  27.3610919  43.8644981
  75.3412954  25.9432357  44.1006851  50.4507343  16.8627208  43.8535452
  51.0448376  17.5010531  43.4588194  50.0040976  17.3481696  44.5471525
  15.7558570  31.2888212  31.7193503  16.5225825  31.4717073  32.2624106
  15.1053796  30.9446878  32.3314662   9.3429971  55.2936983  66.4504433
  10.0075483  55.8672237  66.0687733   9.5829773  55.2311420  67.3749590
  63.3583416  20.8531732  14.0652747  62.4864470  21.2070913  14.2406935
  63.5020043  21.0209484  13.1339068  12.5466061  51.9779396  33.2603455
  12.9973495  51.8891764  32.4205923  13.1856775  51.6803360  33.9078403
  77.1071358  27.0246810  10.1244731  77.5168010  27.3819608  10.9123606
  76.4365264  26.4261789  10.4535765  47.9031181  79.6968031  20.8293796
  48.2884169  78.8278246  20.7169104  47.4976540  79.6686840  21.6960073
  52.0593166  62.0830154  44.6240759  52.7997971  62.5279522  45.0363302
  51.3363457  62.7064753  44.6936607  64.6878306  10.5428355  60.8890867
  65.2886168  10.4791110  60.1466417  63.8515798  10.2252238  60.5484486
  28.1272302  61.4075203   0.8732791  27.7930245  61.4816970  -0.0206094
  27.3450551  61.2905140   1.4124865  39.2002988  77.5055218  44.8026323
  40.0527811  77.6548576  44.3937254  39.4084692  77.1859360  45.6805658
   9.7277460  60.5076618  31.0859484  10.1281486  59.9988670  31.7909617
   9.0456519  59.9351234  30.7349677  29.7399274   7.2048800  66.4336967
  30.2141086   6.5301268  66.9195843  30.3591470   7.4986308  65.7654858
  73.8945134  30.6575174  24.5807070  73.4535893  31.5067024  24.5542521
  74.6072634  30.7378740  23.9468665  40.7818011  12.9306453  41.4088726
  40.7314102  13.6519091  42.0361471  41.7196671  12.7998679  41.2690973
  65.6484604  72.2321796  16.6010773  65.0765133  71.9300556  17.3066473
  65.3630257  71.7374802  15.8329415  19.9775260  10.4938166  70.5317068
  19.6684783   9.8879473  69.8581791  20.7516426  10.9049456  70.1470661
  28.1146860  81.2457561  50.0264263  27.7351069  81.7821503  50.7224464
  28.2146382  81.8469048  49.2882776  56.1677837  64.9637842  51.3802433
  56.3691711  64.2005205  51.9216299  56.8278742  64.9467802  50.6872606
  66.7927305   9.8280947  67.6931810  66.0346548   9.2558902  67.5743103
  66.7459003  10.4429000  66.9610214   7.8004823  20.9893388  20.7947344
   7.2132311  21.7215366  20.9824938   8.6399613  21.2528724  21.1716361
  82.1936734  29.6411962  36.2360854  81.9326123  29.7120161  37.1542735
  81.9393094  30.4790754  35.8494467  12.6351190  51.7390919  58.8818884
  12.6536894  52.5706863  58.4082413  11.7062974  51.5135956  58.9335918
  61.9167177   0.8607810  55.6655216  62.0852200  -0.0561197  55.4484224
  62.3164550   0.9803050  56.5270042  80.6622193  26.0499334  56.9630957
  79.8472462  25.8712959  57.4322844  80.4196249  26.6947746  56.2985945
  22.7403913  23.0838365   7.6215596  22.4714885  23.6176652   8.3691830
  23.0990539  23.7124176   6.9950766  19.9713788  40.9147949  10.4030890
  19.9589381  41.0215778   9.4519419  20.6505570  40.2591915  10.5616374
  70.2321235  14.2075198  49.1523743  69.6339647  13.8505118  49.8088694
  69.7514335  14.1382830  48.3275270  80.3504976  57.6743621   7.3726887
  81.1932882  57.8753204   6.9658131  79.8011907  58.4323234   7.1726937
  37.6541185  68.4353542  62.4588537  37.1646714  68.1719160  61.6795778
  38.1113625  67.6408672  62.7344465  29.3408084  59.1302967  68.7832260
  28.4374666  59.4019794  68.6207628  29.3219304  58.7484312  69.6607494
  38.5956124   8.2543032  48.3080769  38.4844844   8.7418216  47.4918604
  39.5275478   8.3358233  48.5107660  38.3857799  81.1358833  64.1553497
  37.5876856  80.6084824  64.1216946  39.0816951  80.5055904  64.3415451
  63.3790342   9.1784709  54.1854954  62.5708501   8.6730807  54.2729568
  63.0890981  10.0480216  53.9097214  50.7516336  74.7166872  55.9173918
  49.9003363  74.6439695  56.3489437  51.3644743  74.9081612  56.6273212
  61.7065541   3.5086863  45.8314180  61.9590537   3.6708682  46.7403555
  62.0010487   2.6147979  45.6568813  67.6550404  15.5093329  51.1648273
  67.4544756  16.1381953  50.4716206  66.8626610  14.9780314  51.2428236
  67.3959516  67.0457935  47.1107483  66.6094397  67.2066784  47.6320410
  67.0691417  66.8993950  46.2230539  64.1751118  10.9811849  15.6962962
  63.5031851  11.6111869  15.9567542  64.1418203  10.3028888  16.3708586
  80.8575766  63.6007404  60.0795269  80.6771777  64.4245481  60.5323267
  81.7523883  63.6975002  59.7536707  58.0151796  72.1129084  43.9890862
  57.7932215  72.8606892  43.4343004  58.4304810  71.4883614  43.3943605
  67.7531958  55.8072281  62.7383900  68.5986280  55.7450056  62.2938633
  67.9070091  55.4212236  63.6006975  10.3085480  30.4223985   6.7684359
  10.2704916  29.5934839   7.2456021   9.8674307  30.2414436   5.9384341
  34.1251326  62.7649879  56.8613195  33.3691716  62.3218250  56.4761448
  34.8289728  62.6338911  56.2259817   4.3584738  25.0508995   5.9083838
   3.9299593  25.9053869   5.8588595   4.7719059  24.9403066   5.0521845
  18.2265792  33.0795021  16.7510409  18.0436549  32.1512575  16.8964381
  17.3628888  33.4897632  16.7068286  54.0693092  57.3728848  38.3157015
  54.8788118  56.8627071  38.2899666  54.2712498  58.1138563  38.8870239
  58.5634224  20.8130305  46.3940907  59.1869680  21.5343516  46.4784670
  58.5852448  20.3767054  47.2457838  74.2898889  42.7153034  12.4569792
  73.6559900  42.4225254  11.8022437  75.0997992  42.8470249  11.9641108
  57.3002473   5.5896514  35.8439207  58.0062715   6.2266677  35.7344651
  56.4996735   6.1140673  35.8264685   0.3224096  17.5465507   0.7592148
   0.0342641  16.7223806   0.3668541  -0.2653780  17.6758833   1.5035338
  21.2002883  37.2157449   9.6741290  21.0735641  36.3066072   9.4027609
  20.3409515  37.6217002   9.5602316  16.7701190  14.4823497  65.5161858
  17.0183891  15.3194754  65.9083700  16.6131872  13.9049857  66.2633514
  34.4960499  81.2251759  43.6754084  35.3200912  81.5981102  43.9886284
  34.5292258  80.3082085  43.9479733  38.3626556  73.4094381  40.5333996
  39.1090679  72.8862858  40.2411366  38.7449527  74.2472219  40.7945538
  52.6548998   9.5159476  20.7314086  53.1201188   9.9408858  21.4519858
  53.0457346   8.6439841  20.6751275  47.3473386  14.8776191  56.5483856
  47.8998236  14.1805690  56.9020987  47.4437205  15.5986254  57.1705484
  64.5051424  31.7226069  62.9018879  63.9417497  32.4386065  63.1954241
  63.8974563  31.0255282  62.6548290  35.3917168  31.9557421  43.0570698
  36.0028545  31.2204402  43.1025600  34.5740191  31.5685790  42.7444935
  64.3359057  23.2512706  41.2219572  64.3031398  22.2946780  41.2131548
  64.8954217  23.4649031  41.9686413  29.1826630  69.2233324  67.4576759
  28.4431314  69.4596863  66.8977976  29.4873452  70.0567627  67.8165436
  40.6859688   2.7980273  65.6105757  41.1767356   3.4630339  65.1277208
  41.3587467   2.2555201  66.0220242  19.6944213  65.8718967  56.2404346
  18.8465834  65.5574369  55.9265614  20.3166246  65.5946016  55.5679750
  31.2946868  76.0264301  46.2072372  30.4000282  75.9807873  45.8699894
  31.7599940  76.5776539  45.5780554  18.2348046  68.6740703  41.5597338
  18.8645635  68.1212062  41.0971636  17.3807273  68.3077259  41.3304419
  52.6117516  67.6199770  62.3162317  53.5426235  67.5383234  62.5236797
  52.3447371  66.7367458  62.0615911  61.8525592   2.2490638  58.4511709
  61.3444845   1.6288703  58.9740944  62.5368992   2.5584739  59.0446186
  32.6744390  77.8822613  28.5352612  33.5994196  77.7367020  28.7339020
  32.6468229  77.9833937  27.5838208  47.7114663  22.3979063   3.9988656
  47.0992074  23.0550832   3.6679740  48.1762824  22.8398532   4.7094054
  38.3585215  67.4576950  55.3125429  37.4505472  67.6510859  55.0792742
  38.5365605  66.6119337  54.9011707  44.4669533  77.9633665  54.7662497
  44.7138977  78.4732485  53.9947128  45.2119017  77.3816013  54.9173689
  22.7081571  33.9333314  21.4680285  22.1666799  33.5918970  22.1796889
  22.6834807  33.2492895  20.7989115  85.8279165   2.3689766  18.7514491
  86.6180762   2.3490018  18.2115550  85.1527818   2.7265567  18.1747622
  78.4901086  13.5103553  12.6831758  77.8509990  14.1181414  13.0551445
  79.2369167  14.0615504  12.4493277  56.7355797  28.6208553   3.0750699
  56.0580185  29.2948312   3.1289143  56.9274784  28.5483093   2.1401114
  21.2591825  21.3244648  35.7912058  21.1336980  22.1220464  35.2770514
  20.9080300  20.6258459  35.2390666  16.2222610   9.5863885  32.2168822
  17.0254884   9.1504116  32.5014586  15.9809146  10.1482648  32.9532809
  79.1076120   9.1515035  11.5318961  78.4660586   9.1342516  12.2420592
  79.9250444   9.4159097  11.9539446  48.5461044  51.0753298  58.7954283
  48.9470577  51.1287975  59.6629572  48.0271196  51.8762302  58.7216616
  62.6653671  64.2716217  42.2755575  63.1544447  64.3354464  41.4552164
  61.7584944  64.4525766  42.0284414  54.7023503   8.6996215  48.2613611
  54.5753924   9.5021765  48.7673378  55.6523697   8.5898631  48.2207298
  33.3792758  71.5126133  60.9447241  33.7992358  72.3683882  61.0314226
  33.3818555  71.3388109  60.0034428  42.0331335  63.3456230  31.4373684
  41.8107414  62.7292442  32.1351171  42.0314455  64.2020702  31.8648267
  11.0687981  18.4273309  23.4214015  10.5540333  18.1058664  24.1616149
  11.1866698  17.6605815  22.8606600  58.5743620  25.7206459   0.4866547
  58.2340476  26.6143436   0.5281062  59.0544658  25.6853075  -0.3406768
   9.2819772  44.6048374  18.2305045   8.7745223  45.0772972  17.5705905
  10.0399575  44.2671985  17.7533240  73.1100408  18.3377688  52.2163820
  72.5901691  19.0766948  52.5325298  73.5825245  18.6838477  51.4592743
  15.2093062  40.0227184  19.8193163  14.8333583  39.2136974  19.4723601
  14.5315871  40.6830425  19.6747298  77.8255312  13.2662051  50.0911570
  77.6555196  12.6338713  49.3929625  77.0459549  13.8214152  50.1065016
  83.0076210   2.4467986  63.1869316  82.4183170   3.1425612  63.4782743
  83.5241310   2.8475516  62.4877501  71.5693180  14.5458930  28.9985871
  70.9352199  13.8646357  29.2222834  71.4558689  15.2109664  29.6775866
  76.9323722  52.4685233  40.7853031  76.5805618  53.2279914  41.2496948
  77.8044788  52.3421138  41.1590433  54.2084885  48.3699656  68.2851934
  53.4385157  48.3411694  67.7172613  54.9505997  48.3985710  67.6812983
  33.0168948  24.1554756  20.2152056  32.1960769  24.0961475  19.7263617
  33.0297313  23.3673591  20.7582850  63.1668393  14.3015616  41.9710016
  63.2434694  14.0189116  41.0596991  63.1541435  15.2575724  41.9249916
  26.8804455  55.5442190  31.3155389  26.2430644  56.2480116  31.1944890
  27.5422168  55.9178877  31.8974876  29.2296290  64.6623373  69.0021372
  29.3825054  65.2949953  68.3002853  28.3447433  64.3349075  68.8408947
  55.7080619   0.7783740  62.4161053  55.8280460   0.8544867  63.3627033
  56.1291567   1.5596907  62.0577097  37.1408653  66.3177967  36.8446302
  36.5466404  67.0209265  37.1068120  37.9916596  66.7460680  36.7499399
  60.8519459  58.3518219  56.9976377  61.6745758  57.9576302  57.2876787
  60.1922178  57.9936123  57.5915051  19.0735135  14.5116062  32.2994799
  19.9778447  14.7172803  32.0625872  19.1463409  14.0166444  33.1155295
  57.1767990  21.1524527  42.2427225  57.7717106  20.5186599  42.6434994
  56.4655892  21.2472480  42.8763056  22.7153335  61.3244648   8.9627833
  22.8989778  62.0845909   8.4107728  23.3155284  61.4153213   9.7028822
  17.5379652  38.4271567  60.6949854  17.5816101  39.3831961  60.6773853
  17.2002309  38.1868880  59.8321772  17.5022119  21.2957042  53.2987833
  17.5684064  21.9120162  54.0281725  16.5778249  21.3160746  53.0511427
  47.4058990  22.2132724  46.6788197  46.8473868  22.0158427  45.9269428
  48.1941382  22.5992911  46.2968540  79.2478132  65.7175159  65.5879307
  78.9301205  66.2225342  64.8394251  79.2781162  64.8144436  65.2720547
   0.7210646  57.6699848  27.0691104  -0.0701322  57.6526661  26.5306563
   1.4240441  57.4186821  26.4700312  14.2382949  38.9989226  63.8397837
  15.0649827  39.4550269  63.9972115  14.1754764  38.3638804  64.5532274
  30.0636268  80.7163334  57.5060129  29.3399405  80.7664585  58.1305122
  29.7471857  81.1862755  56.7344856  46.8527651  68.0722046  57.4973583
  47.7875471  68.2780457  57.4909306  46.4583778  68.7316179  56.9265127
  67.4274031  10.2978080  70.3489161  67.2855226  10.0151770  69.4454670
  67.3754326   9.4920008  70.8629227   5.8701318  13.3912127  35.8921432
   5.6485694  12.6554625  35.3213334   5.9733814  14.1336005  35.2968025
  80.5625669  13.1592505  30.4846573  79.9930278  13.0012839  31.2375879
  81.1099378  12.3759215  30.4298687  25.6945586  75.7788801  51.4413691
  25.7065105  75.4054594  52.3226452  24.9627256  76.3957500  51.4525318
  22.1884441  73.8550711  41.0138226  22.8580260  74.0866375  41.6574621
  21.4311767  73.5957289  41.5387249  78.0947264  62.6471920   2.9896397
  77.2242459  62.5072689   2.6169200  78.0630668  63.5353012   3.3452839
  51.0768700  61.5784073  60.3961897  51.8616533  62.0717049  60.1574230
  50.7249355  61.2694740  59.5613670  13.1458745  55.3914661   5.4621071
  13.4808717  56.2093181   5.8296914  13.7673745  55.1679725   4.7692723
  66.8209457  77.6896667  57.2455597  67.6938152  77.3927736  56.9882822
  66.9426250  78.6067915  57.4911404  85.6468956  15.5408709  64.5954418
  85.6305973  15.1768153  63.7103271  85.8573667  16.4661830  64.4700003
  44.0097809  71.7808199  66.6398335  44.1069460  72.5705528  67.1719122
  44.8737717  71.3693953  66.6618299  75.2217245  80.7193470  53.4572411
  75.8753157  80.9316349  54.1235590  74.9568033  81.5680504  53.1026316
  50.4582057  58.4960575  14.3381400  49.8530469  58.0092830  14.8976607
  49.9167571  58.8054771  13.6119647   7.6662781  76.2925816  63.7019491
   8.2228710  76.9901466  64.0481329   6.8572952  76.3575602  64.2094421
  66.8595664  18.8988345  47.0065117  67.3059241  18.6030333  46.2131023
  66.3904468  19.6885150  46.7371321   0.8837948  61.3474292   4.9432845
   0.1537666  61.5752620   4.3676276   0.4691348  61.1029644   5.7706494
   0.6438241  54.0543193  19.7626967   0.1029883  54.6730728  19.2718978
   1.5395889  54.3678112  19.6379275  11.6332660  28.7808294  25.2994628
  11.0825238  29.5452661  25.4684252  11.0144363  28.0579204  25.1961321
  18.4220546  20.5282443  34.8492312  18.3538335  20.2531855  35.7635164
  18.2146781  21.4625972  34.8641062  16.5479940  22.5652354  60.9483290
  17.1044343  21.9430106  60.4798841  17.1621316  23.1749289  61.3574028
  45.5467544  66.5599365   1.8299288  44.6313129  66.3708515   1.6238970
  45.8965907  65.7288284   2.1510167  69.5240307  63.6591959  38.7555265
  70.4481602  63.9083672  38.7439275  69.2863274  63.5777092  37.8318977
  13.2807249   8.1379359   6.4059865  14.0342420   7.7687304   6.8665636
  13.0411285   8.9097731   6.9189090  77.3031084  10.2117675  34.4249344
  76.4412729   9.9271624  34.1208386  77.2036401  10.3063243  35.3722429
  83.7127391   6.1124556  20.7633638  83.5275261   6.3720649  21.6658759
  84.1278879   5.2535289  20.8416057   3.9735549   6.5280478  41.6176891
   4.5166439   6.7331832  40.8566332   4.3498701   7.0482009  42.3276615
  77.1803208  36.1375541  37.1167368  76.3444896  36.0789270  36.6539378
  77.0689972  36.8722553  37.7200980   0.2198118  34.9030059  27.4767900
   0.9171480  34.6556132  28.0840373   0.2986568  35.8535140  27.3959422
  51.2667934   8.9121001  51.6242886  52.1454326   9.2815726  51.7121458
  50.7128922   9.4819491  52.1578646  72.0168726   0.2381652  52.3667526
  71.2986366  -0.3944833  52.3556328  72.2427980   0.3602641  51.4446449
  62.7391831  17.2027056  42.5286531  62.6650492  16.7704146  43.3794546
  62.0683185  17.8852122  42.5475121  25.1076807  11.1956828  54.1418934
  25.6678785  10.4634993  53.8843775  25.2744977  11.3072722  55.0778151
  65.4543591  48.3829021  70.6658173  65.6565285  47.6654673  71.2663603
  64.9582911  47.9706526  69.9585724  11.5958273   8.9170128  44.9436235
  12.0633149   8.4048247  44.2838144  12.0589113   8.7341440  45.7611465
  79.3087105  24.5204830  52.3554230  79.5844643  23.8196588  51.7646313
  78.4933011  24.2010450  52.7418137   0.7609904  16.8707824   5.5935001
   1.4767908  17.0710349   6.1966258   0.6832262  15.9171808   5.6222898
  83.1047655  28.7914109  66.0743570  82.4477641  29.4124985  65.7599831
  83.5771478  29.2676210  66.7572260  20.7570171  64.1520596  54.2048359
  21.0588980  64.1246271  53.2968998  21.1645246  63.3896828  54.6158695
  18.4744442  23.4077644  27.7366853  19.0003800  24.1826034  27.5385690
  18.9882159  22.6758528  27.3952579   5.9220046   8.9999670  53.6904812
   5.4998255   9.6120512  54.2932653   6.4210594   9.5574969  53.0935431
   9.4606161  23.7044883  41.7982531   8.5131621  23.6269116  41.9102526
   9.7933197  23.8699746  42.6803827  31.0437924  62.7252311  66.8362188
  30.9493786  62.3490758  65.9611034  30.4870063  63.5037322  66.8236399
  72.2621356  24.0687442  53.3770752  71.9446550  24.9709892  53.4143305
  72.2659658  23.8545108  52.4441671  75.0106095  12.2419393  15.0283003
  74.8088525  11.3447976  15.2941227  75.9545766  12.2382128  14.8697293
  80.6768565  52.8801966  67.4440670  81.2837754  52.1968603  67.1595860
  80.4851572  53.3766651  66.6484547  63.7615502  75.3782875  60.6841040
  64.5876909  74.9060822  60.5804443  63.0905384  74.6962983  60.6546783
  23.2085395  28.6118913  46.5707970  23.4232712  29.4348860  46.1317015
  23.5207129  28.7304807  47.4678564  76.9025797  79.9285356  35.3613758
  76.3467437  79.5465196  34.6821547  76.4574272  79.7172854  36.1820126
  64.5723073  57.5047983   4.6007580  64.1695801  57.4739887   3.7329478
  63.8423339  57.3838355   5.2079959  81.7552454  68.9548547  63.7307501
  82.6979119  68.8280959  63.8381910  81.5434748  69.6833439  64.3144369
  84.1184421  16.6877592  33.3460498  84.4077491  16.5727079  32.4409008
  84.1513639  15.8079612  33.7216878  14.4827724  46.0403585  44.7816896
  14.3505418  45.9260702  45.7227993  15.2336025  46.6303301  44.7152233
  77.8327523  52.1896935  23.9894199  78.1789587  53.0730820  23.8629460
  76.8899397  52.2798157  23.8508105  10.9102499  13.9703262  35.3733826
  10.8434105  14.2133212  34.4499564  11.5497160  14.5830178  35.7365942
  79.1823989  74.0228028  36.7306590  79.0689069  74.2808081  37.6454186
  79.4641596  74.8239333  36.2890363  80.0662051  36.0546827  65.7152843
  80.2610425  35.9229565  66.6431427  80.9235291  36.1626840  65.3035069
  50.3952859  10.9625673  10.8812654  50.2348660  11.5508521  10.1434183
  51.3244818  10.7426071  10.8145845  38.9820433   7.3673069  34.4285846
  39.2856669   7.7514738  33.6061120  38.9352703   8.1062531  35.0352144
  47.9039572  33.9917707  48.0776215  48.4866236  33.7068462  47.3736668
  47.1182464  34.3019414  47.6274157  27.9684949   3.8552707  23.9986038
  27.4179316   4.4288310  23.4655547  28.2302380   4.3980139  24.7423458
  17.6685977  32.0052338  69.5903492  17.5993919  31.6661882  70.4828119
  18.1319726  31.3198018  69.1090012  66.8155694  52.0684321  41.4474916
  66.7004520  53.0185086  41.4657402  67.7454573  51.9434340  41.2579775
  76.9371814  70.7349093  39.9296737  76.4899165  69.8932345  40.0178194
  76.4868838  71.1708159  39.2061758  28.9142060  10.6509519  66.8313837
  28.7070704   9.8312140  67.2801113  28.9441013  11.3051999  67.5294495
  68.3798496  61.7454244  15.0288767  68.7711851  61.2144901  14.3352027
  69.1190569  62.0013239  15.5805392  56.9716303  21.8578138   0.4689259
  57.0089833  20.9491219   0.7674450  57.5476805  22.3310293   1.0693116
  75.3101276  11.0529208  59.6205854  74.6345828  10.3938484  59.7802544
  75.2893112  11.1927593  58.6738825  29.9889302  26.7391968  20.8123183
  29.3031573  27.3631835  20.5744362  30.5907226  26.7494154  20.0680232
  74.0997718  11.4124703  28.5485506  74.0519498  12.0093906  27.8018022
  74.7535966  10.7615900  28.2934022  24.0499557  67.6273062   7.2737593
  24.1785587  67.0996143   8.0619425  23.5228823  67.0733120   6.6979832
  15.4340339   7.3778099  26.5693164  16.0551214   6.6512692  26.6205120
  15.7214153   7.8855610  25.8104801  57.3122309  18.7358773  23.3881307
  56.7909573  17.9902840  23.6857843  56.8708156  19.0345609  22.5930381
  56.5819286  17.2955596  37.1166396  56.0536645  16.6902220  36.5963173
  56.0667418  18.1018841  37.1422338  86.1041821  27.0825892  66.6762017
  85.2998412  26.7396157  67.0656081  86.7538322  27.0227402  67.3766335
  80.8693342  28.6269522  45.6162500  81.2398241  28.0078363  44.9872303
  79.9313961  28.6300683  45.4252148  11.7847669   3.7803566  65.4859495
  12.4433208   4.2847368  65.0083113  10.9923029   3.8573626  64.9546289
  72.3038576  20.7149816  30.1824069  72.8173624  20.0200534  29.7705579
  72.6681386  21.5252566  29.8260570  14.9509132  45.3833055  34.2678070
  14.9271464  45.3136539  35.2221751  15.7474053  45.8812618  34.0837622
  26.9528365  23.8192368  28.4397054  26.8547082  24.7519636  28.6310792
  27.0456672  23.4069872  29.2985797  19.9087775  17.7653897  30.0229025
  20.4704237  17.2023892  30.5556440  19.8411262  18.5785866  30.5232668
  50.3726641  49.3670680  11.8514628  50.6962554  50.1369132  12.3192877
  50.3282301  48.6823668  12.5188822  64.1884874  49.4956541  60.5740309
  64.0049527  48.7442207  60.0102043  64.2734264  50.2332783  59.9699354
  62.9830557  69.3833108  22.9135299  62.1015755  69.7563488  22.9216981
  62.8589410  68.4819669  22.6161981  32.2681571  72.4390365   1.4548678
  32.0387808  73.2251908   1.9504304  32.9673705  72.0299913   1.9647832
  33.0605769  25.7889390  42.6284695  33.0882692  26.2781382  43.4507513
  33.8570261  26.0511923  42.1668148  22.3392177  35.1752305  13.3737004
  21.4811492  34.9966431  13.7584794  22.4158168  34.5458603  12.6565838
  16.4378130  19.7432852  26.9744182  16.4046931  18.7871921  27.0063782
  16.2673831  20.0190830  27.8750396   1.2965919  17.0022249  42.9411554
   0.6261472  17.6601303  42.7570438   1.0489737  16.2506890  42.4025345
   2.0648547   8.5820711  23.1791115   2.2253376   7.8816438  22.5467515
   2.0503844   9.3813640  22.6526570   5.0407493  22.5478673  39.9434686
   4.4635209  22.0828915  39.3377972   5.6189668  21.8692660  40.2918911
  20.3808266  77.1279741  59.1527891  19.9248439  77.8736405  59.5430326
  20.4867417  76.5077622  59.8741388  83.8510297  30.2506113  11.8150365
  84.2585532  29.6941924  11.1512947  82.9400970  29.9582744  11.8462181
  65.6580065  26.6775870  40.9144068  65.4165934  26.5947962  41.8369579
  66.5834520  26.4347005  40.8862734  36.0881972  19.3391359  63.5265589
  35.9042597  19.2015469  62.5973320  35.4021978  19.9385905  63.8203144
  83.3928901  80.1879471  32.1799660  84.0472776  79.4929531  32.2506213
  83.4293109  80.4588510  31.2626219  82.8351502  34.8791981  65.2327251
  82.5970487  33.9521241  65.2412844  82.6578192  35.1637578  64.3361664
  12.3025000  20.8657074  53.8804770  12.2724462  21.4310813  54.6522808
  11.7647159  20.1097727  54.1162395  62.7535500   8.0930776   3.5786862
  63.1170519   8.8381786   3.1002278  62.2780420   7.5919218   2.9161400
  52.1276323  71.5484120   9.8153014  52.9176013  72.0316030  10.0575919
  51.5200059  71.7048742  10.5381770  12.5235176   4.0047175  34.5968509
  11.7794228   3.4163225  34.7247005  13.2926285   3.4505299  34.7294235
  85.3848879  19.4438696  40.0123739  84.5944981  19.1682720  40.4766607
  85.9696702  19.7593641  40.7013750   1.8104813  33.8331771  18.8045585
   1.9729427  33.9692140  19.7380102   1.9253111  32.8916001  18.6761892
   9.4503975  36.0195518  26.0680413   8.9246345  35.2557564  25.8305073
   8.9727408  36.4231300  26.7927480  65.4387997  30.1703310  54.0303659
  64.5808886  30.5791950  53.9161253  65.8615015  30.6880188  54.7156048
  69.7201520  53.3033426  42.5457287  69.3534071  52.4387963  42.7308989
  70.6526166  53.2152540  42.7431679  15.7747793  36.1022735  63.6449766
  16.6082096  35.9500718  63.1994867  16.0143042  36.2360001  64.5620203
  24.3257386  70.6984312  57.9227018  24.6348650  71.2771232  57.2257137
  25.1253420  70.3750570  58.3377838  21.9401654  72.7847219  47.1681023
  22.6263245  72.5146509  47.7784109  22.3499878  73.4637249  46.6321659
  18.6201656  39.2907810  53.0034494  18.5179830  39.8585081  52.2395945
  17.8012228  38.7970853  53.0462027  39.3397999  17.5394022  27.1654677
  39.0658879  16.6838288  27.4959183  38.6347556  18.1329453  27.4240208
  72.8312574  58.7739515  58.7296200  72.0925449  58.2125568  58.4943151
  73.2253585  58.3453226  59.4893503  13.0769122  30.4975796  59.7445202
  13.7069726  30.0211239  60.2851200  13.3992469  30.3897285  58.8497019
  73.0345748  25.4719758  15.2117205  73.8235555  25.0968289  15.6028831
  73.0892299  26.4064741  15.4116154  33.7648320   3.7470379  46.2759781
  33.1439424   3.3405191  45.6714344  34.5078158   3.9946577  45.7256222
  79.5025156  20.4317904  49.0147495  79.5933233  19.8497355  49.7692060
  79.6636967  19.8691022  48.2573652  84.2753679  77.3356865  34.9890828
  84.2208916  76.9207920  35.8499718  83.6035830  78.0172650  35.0087452
  10.9183419  32.5432038  34.5321679  10.0058866  32.4566317  34.2561913
  10.9775722  32.0196414  35.3312969   1.4825322  44.7962236  42.0272398
   1.2115972  45.6509495  41.6921663   1.5841529  44.2536449  41.2452459
  84.6663765  23.1251335  16.2632978  85.2095075  22.3976755  15.9599078
  85.2796636  23.8514757  16.3752759  62.5740598  42.3263979  66.5034914
  61.6780971  42.0059967  66.6075325  63.1243966  41.5797329  66.7398310
  79.0368972   3.3340210  51.4030409  79.1259871   3.8014308  52.2336006
  79.9106680   3.3687395  51.0137463  65.9368227  23.8918138  59.2144823
  65.0191258  23.6216736  59.1814899  66.0638402  24.1993737  60.1119852
  60.8943437  23.6070848  30.6503725  61.4005063  22.7946758  30.6454015
  60.1689051  23.4409904  30.0483918   8.3017880  80.8353179  33.5257387
   8.2521016  79.8973822  33.7102365   8.9792353  81.1604938  34.1186666
   3.2964948  27.2072172  43.8865709   3.7923816  26.9831252  43.0990982
   3.9563578  27.2612095  44.5778704  67.6390467  31.1826444  52.3512793
  68.3610211  30.5933785  52.1327591  67.4632488  31.0130978  53.2767963
  53.1285692  58.1680042  60.8893156  52.9668373  57.2254164  60.9293699
  53.9816797  58.2467086  60.4624224  73.4464060  34.6492696  30.8310533
  74.3835519  34.7095537  31.0164070  73.0469499  35.3074932  31.3997412
  85.1646963  33.5339046   2.3459065  85.1463409  32.6597762   2.7355117
  84.2427997  33.7741280   2.2530028  28.6749983   3.6922845  19.8739457
  28.6658096   4.4622487  20.4425430  27.7606058   3.5732618  19.6171379
  83.4696585  74.1331292   9.1798931  84.3098909  74.1060365   9.6376097
  82.8180892  73.9919973   9.8667496  32.4404627  56.3202007  45.1232910
  32.8957731  56.6741712  44.3593311  32.9205758  55.5207355  45.3391075
  70.9985040  22.6886559  25.2823782  71.5240215  23.2711625  25.8307838
  70.1769481  22.5843596  25.7623792  78.3345137  23.6654592  16.2918079
  78.4294067  23.1717658  17.1063602  79.1322289  24.1915774  16.2362957
   8.5471320  27.7531004  14.8701751   9.1156596  27.4822450  15.5910397
   9.0345597  27.5198650  14.0800822  15.5340338  28.3661819  17.1075654
  15.6150389  27.7379394  17.8251886  14.7689021  28.8938522  17.3364079
  79.9892740  28.4226179  68.6641550  79.1714780  28.0006909  68.4006834
  79.8263322  28.7235928  69.5580769   1.7975144  35.7789254  56.9900227
   1.7250551  35.3284597  56.1485624   1.6410324  35.0955772  57.6417780
  13.9345292  59.9819269  23.8838286  14.1228704  60.3655423  23.0273242
  14.5185653  59.2257275  23.9412398  34.7481449  80.7033671  67.6867151
  34.8650177  81.2982010  68.4274864  34.7713383  81.2719277  66.9170189
  46.4365196  13.5464299  65.3066301  45.8611298  12.7846360  65.3761148
  45.8496571  14.2981386  65.3888083  86.0277687  17.7609551  66.8300772
  85.1976011  18.2242393  66.7186213  86.4867749  18.2524657  67.5112247
  51.8618477  74.2076332  50.5442810  52.0765174  75.1383651  50.4819393
  51.2232453  74.1562391  51.2554646  27.9507756  10.0231111  50.8400631
  28.7943244  10.4494750  50.9913015  27.7218723   9.6381962  51.6860390
   9.3016666  29.2535758  48.8718700   9.0263945  28.5259008  49.4294930
  10.2290809  29.0879655  48.7024355  44.4154835  27.7176595  69.6952486
  43.6928606  27.1045828  69.5603895  44.3192863  28.3597207  68.9918756
   9.9928037  31.7638906   1.1762662  10.6957726  31.3571663   0.6696648
   9.9451701  32.6600285   0.8432478  83.9200918  44.5167446  61.7958641
  84.1435572  45.3712988  62.1646929  82.9831360  44.5742655  61.6086817
   1.1187065  10.8741713  42.2501898   1.4047104  11.5457916  42.8693485
   1.0584988  11.3316119  41.4115238   2.2355326  81.2341372  48.1486273
   1.5237912  81.8240960  48.3968306   2.6471337  81.6587584  47.3959541
  84.2427738  33.9742994  40.8519983  85.0073938  33.4497690  41.0896015
  83.5215936  33.3457136  40.8202410  82.9255087  18.8119221  32.8771091
  83.3238111  17.9842007  33.1463027  83.6664928  19.4048846  32.7523303
  76.1042128  18.0789971  25.3178144  75.3537987  18.6611128  25.4371953
  76.8025498  18.4791374  25.8359313  23.1697989  17.5101054  19.8646724
  23.2351995  16.6703367  20.3193617  22.3534131  17.8932536  20.1855206
  10.4248865  46.6860969  27.4209595   9.9633630  45.8787043  27.6475525
  10.3634032  46.7374999  26.4671206  37.0468140  28.2622957  25.0645161
  37.1415544  27.3207045  25.2082491  37.9450417  28.5851836  24.9926472
  14.7195792  10.5808520  34.6015382  13.7990546  10.4701686  34.3635964
  14.8523140  11.5287602  34.6106005   7.1354663   8.3603805  43.8502693
   7.2351682   9.2035365  43.4082508   6.2739444   8.0463797  43.5756493
  51.2870137  50.3452207   7.7763266  50.6641809  50.9973122   7.4552531
  51.5652959  49.8730441   6.9915719  68.9720287  61.0085179   9.9744315
  68.0817785  60.9910132   9.6231837  69.3311634  61.8438365   9.6752734
  66.5845082  18.4425950  31.7777300  65.6813954  18.7596202  31.7669535
  66.8792747  18.5283196  30.8710909  75.3274141  36.3394237  54.4666052
  75.4643677  37.1475506  54.9609804  74.8337958  35.7752538  55.0618219
  29.0706849  17.7755141  46.4111996  28.9862084  18.4516501  45.7389402
  29.8171711  18.0560803  46.9406080   7.5441138  22.6704659  14.5287509
   8.2276336  23.3173372  14.3538470   6.7247287  23.1382252  14.3673892
  70.2517158  76.1237855  50.3944063  70.8368343  76.0433269  51.1476612
  69.4658262  75.6401921  50.6488609  81.3143424  36.4985919  48.2003069
  80.9827809  35.9262013  47.5084448  81.7432542  35.9053016  48.8169670
  66.4165853  20.3095603  50.8082056  66.4759181  19.6091485  51.4579296
  67.2088979  20.2137637  50.2797222  80.6923847  12.8345418  10.4501045
  81.4477561  12.8826010   9.8641562  80.5489264  13.7384188  10.7305658
  12.5060427  22.4463010  56.4886332  12.8279543  22.9761076  57.2179508
  13.2201743  21.8369412  56.3017368  62.9953349  66.5243680  48.8082123
  62.0546723  66.5297622  48.9852905  63.3039475  65.6972260  49.1781139
  16.7510760  25.3633070  28.6305571  17.1262920  24.5252037  28.3603263
  17.4942517  25.8584690  28.9751387  80.7169158  74.3547464  62.5706959
  80.5349499  73.4568841  62.2932720  81.2834055  74.2587311  63.3362722
  13.2245851  16.1495566  63.8436079  12.3666823  16.0768151  63.4253454
  13.8455558  15.8889651  63.1633711  65.9284232  45.8761787  63.2120228
  65.0294541  45.5528164  63.1526423  66.4714668  45.0955725  63.1025362
  13.9947796  39.2521405  41.3710499  14.1273701  38.3098936  41.2670279
  13.1396210  39.4188809  40.9746504  63.4768701  80.5671987  45.6880140
  63.0254889  81.3720933  45.4337883  63.9044142  80.7838314  46.5165710
  29.7290587  68.9120531  20.0247431  29.2182636  68.5787058  19.2870438
  30.1185942  68.1314087  20.4185510  40.5773354   5.1840180  35.0071430
  40.3460026   4.5475397  34.3306732  40.0031137   5.9312493  34.8393583
  64.0216923  20.0014091  16.4090109  63.7678671  20.4062533  15.5796087
  64.7520208  19.4261515  16.1811328   1.6371402  46.1717796  48.0747843
   1.3259274  46.2287807  47.1713877   1.6102016  45.2369738  48.2788563
  41.9591999  23.9926958  21.6585922  41.7684937  24.0908146  22.5914574
  41.4699888  24.7000575  21.2384224  23.7092787  63.9048035  47.4908972
  23.1334168  63.6888964  46.7574120  23.1561834  63.8082022  48.2661295
  33.7171745  20.4678416  48.1725264  33.0746889  19.7583377  48.1655741
  34.2662144  20.3012991  47.4063349  80.7318638  16.5573692  52.7475882
  80.8532701  16.5140367  53.6960697  81.1876438  15.7853246  52.4122620
  66.8136476  33.4810734  46.7469788  66.1359404  33.5677075  47.4173784
  66.6197858  32.6483297  46.3166428  22.2321320  16.0489273  27.7655125
  22.7392125  15.8240187  28.5455894  21.3390088  15.7740927  27.9729414
  16.5990496  13.8269675  38.0773115  16.4215219  14.4274116  38.8013148
  17.5277650  13.9537132  37.8832603  32.4425006  30.8439946  24.5354748
  33.3228064  31.0520649  24.2224216  32.2890496  29.9466109  24.2398643
  19.8246706  50.4813433  57.4080896  19.9818850  51.3432789  57.0226288
  19.1127789  50.1116467  56.8858194   6.4326972  27.4366069   5.4358107
   7.2779864  26.9896483   5.3916979   6.4548439  28.0628395   4.7122276
  74.9061433  61.6791345   5.0561900  73.9608804  61.7606880   4.9294657
  75.2884618  62.1228649   4.2991108  19.8592305  26.4458799  44.2103910
  19.3828142  25.8582306  44.7968435  19.1856062  27.0227599  43.8502884
  61.4832662  12.1654148   6.2541909  60.8029442  11.7994327   6.8193907
  61.4091786  11.6699524   5.4385562  85.9631462   6.2859249  29.7210050
  86.8012577   5.9019399  29.9786019  85.9106760   6.1352944  28.7771893
  79.6958453  73.0409605  45.9259272  80.6207806  72.8791971  45.7400322
  79.6273452  73.9935935  45.9894133  63.8089553  34.6287240   6.6758341
  64.6351496  34.9466153   6.3117213  63.5547821  33.9079853   6.0994954
  45.0307578  80.9635855  46.2217903  45.8440763  80.5161249  45.9882879
  45.2095813  81.8887646  46.0535717  25.7866819  77.0385076   5.0284047
  26.1617065  76.2674381   4.6029181  26.1744575  77.7804925   4.5643754
  84.2515006  72.7006962   1.1750264  83.6988439  72.9970052   0.4518361
  84.3331351  73.4665205   1.7434306   6.6346701  77.7468745  52.9020643
   7.2283443  77.0078058  52.7695465   5.7608899  77.3560865  52.8970814
  24.2108258  79.2013080   3.0292514  23.9738854  79.2853698   3.9528447
  25.1628312  79.1018189   3.0343080  13.3440125   8.5576558  28.9396334
  13.6481035   7.8815740  28.3340979  14.1381884   9.0296859  29.1900420
   4.9514278  75.5863089  70.2244902   5.4914792  75.7376225  71.0001707
   4.0609272  75.7923348  70.5087328  60.2003050  43.4330320   6.3314825
  59.4490290  43.7572289   6.8281865  60.9517527  43.5921383   6.9026560
  17.4495888  45.9122562  63.7732744  16.5004528  46.0354280  63.7874603
  17.8005552  46.7098141  64.1694546  25.5884647  31.1264873  34.2673230
  26.4132500  31.4741564  34.6065712  25.3668880  31.7048573  33.5375118
   8.1611222  27.8296590  31.4150119   8.5225844  27.5382805  32.2520757
   7.7599239  27.0450687  31.0412598  68.8319097  51.9932318  48.8374996
  69.2501043  52.7250957  48.3839321  68.5388480  52.3634529  49.6701336
  18.8895857  23.6222124  32.3134446  18.0749917  24.1179180  32.3967791
  18.6847103  22.9284263  31.6866112  14.2030430  14.6270549  46.8195248
  14.1991568  13.7492394  46.4378786  15.1175678  14.9054217  46.7706633
  37.4850971  70.3934748   8.5528553  37.8231651  69.9454803   9.3282533
  38.2275588  70.4209287   7.9493409  21.5189075  16.0633290  54.1227245
  22.2361302  15.5744970  54.5262909  21.4847040  16.8856382  54.6114683
  46.6790533  10.2291679  69.0764570  46.7839670  10.0980437  70.0188065
  46.6117811  11.1783504  68.9727354  78.0950705  39.8847795  56.6580343
  77.2945915  40.1919746  57.0835876  78.6954103  40.6283760  56.7117739
  34.1324162  11.0708916  59.1240835  34.2814732  11.4664745  59.9828768
  33.2660079  11.3834333  58.8635397  74.8474382  50.6548882  42.0547915
  75.5953203  50.1363564  42.3514891  75.2165256  51.2627602  41.4140940
  28.5225606  21.5280318  54.4833326  27.8488922  20.8551908  54.3849182
  28.7620234  21.7602420  53.5861349  82.1552025  36.8005490  39.6079278
  82.3858647  36.2236190  38.8797951  81.8940730  37.6210999  39.1899109
  34.3178944  60.9015824   5.3452725  35.1118157  60.3754045   5.2501006
  34.4117920  61.5967609   4.6940083  50.0785520  11.4553041   0.3730626
  49.4577469  11.4298172   1.1011977  49.8232688  12.2270078  -0.1324420
   3.8771644  34.9238300  26.6709375   3.6074585  35.5088162  25.9629273
   3.6059755  34.0535188  26.3789678   6.7597651  32.8812146  36.8174314
   6.0627049  33.0594754  37.4487495   6.3151699  32.8575325  35.9700799
  26.6730380  25.3721237  37.5107121  25.9439349  25.4383326  36.8940616
  27.3758245  25.8807039  37.1061492  67.9215573  37.0950484  64.3033934
  67.5354157  37.1586347  65.1769400  68.5771952  36.4020014  64.3812084
  17.1265149  66.2331676  24.4345856  17.4703574  65.8837938  25.2567434
  16.2423849  66.5291357  24.6512628  42.0586729   6.3871515  50.4263496
  42.5570488   6.7213321  49.6805763  41.1693001   6.7114961  50.2847672
  10.1832867  53.3558655  19.6673918  10.7133305  52.5605249  19.7195673
   9.6282208  53.2237864  18.8988292  65.4426406  32.1416903  43.7001991
  65.8742283  31.2993574  43.5572386  64.8269818  31.9771957  44.4144392
  54.8120068  27.9604483  44.0304947  54.2644189  27.3889351  43.4922075
  54.5549772  28.8468838  43.7767172  71.5490482  36.4035058  58.0985689
  71.1180077  35.7528925  58.6527681  71.3806329  36.1059093  57.2045326
  80.3108845  16.7850888  39.3812728  81.2655632  16.7960596  39.4498372
  80.0991480  17.5605834  38.8616490  11.3723159  39.7280312  43.4598732
  12.2032428  39.3677902  43.7697458  10.7696211  38.9844918  43.4717560
  18.9505112  13.3928514  34.7925591  18.7287676  14.0887260  35.4112840
  18.2768226  12.7268314  34.9296474  48.3800316  70.6489928  58.4868526
  48.8754362  69.8309321  58.5266399  47.9515267  70.7112641  59.3405151
  72.7760504  30.2094221  26.8511987  72.7701781  29.2656302  27.0107365
  73.2961426  30.3144288  26.0545111  81.3635973  43.7890673  61.4417315
  81.0429768  43.9818144  62.3228025  80.7316516  44.2106104  60.8593416
   5.0793517  35.1838923  16.4671016   4.6626624  35.9693480  16.1126125
   5.9814620  35.4504967  16.6441619  74.6060584  25.8938909  34.2039847
  74.4329451  25.3871870  34.9974036  75.4594384  25.5824661  33.9023399
   8.7583244  26.1906600  35.8833313   9.3601769  25.7411790  36.4766026
   7.9562008  26.3006473  36.3939500  16.9104302  20.4244637  57.6691294
  17.5763881  20.5358505  58.3476019  16.7396295  21.3117361  57.3532104
  53.8160419  26.4365244  39.9852037  53.3861017  26.7191482  40.7923651
  53.4342575  26.9900703  39.3039846   4.0181029  29.7104669  39.0812874
   3.2947007  29.1202712  38.8701248   3.5989943  30.4637194  39.4974470
  13.7439299  21.0360169  27.8193831  12.9295206  21.5299678  27.9141426
  14.3266106  21.6246343  27.3395467   9.2786086  31.0530734  18.7184250
   9.0148252  30.2122140  18.3447886   9.8563737  31.4374375  18.0591202
   6.6707253   3.0124402  26.4332843   7.2726429   3.0281585  27.1773815
   6.9769496   3.7172469  25.8625770   8.5270339  54.2785788  38.3176780
   9.0646458  54.6826124  38.9988279   7.7688318  54.8571539  38.2363415
  81.2751136  39.6179008  20.0418258  80.3988115  39.2328262  20.0351405
  81.8471680  38.9064598  20.3296447   4.7641879  49.4146776  27.1859694
   4.5354694  50.3029156  26.9121885   4.6456945  48.8833761  26.3986254
  25.4753399  12.0902514  13.7262714  25.7584929  11.5746856  14.4814193
  25.2549243  12.9475188  14.0906084  84.4477971  33.4483719  48.5572386
  85.1805752  34.0103292  48.3053017  84.8119263  32.5631523  48.5518074
  36.9240856  22.1090817  45.5806971  37.5402761  22.6602244  46.0631752
  36.0906982  22.2254586  46.0369349  60.5385540  28.2638884  65.8980322
  60.8103631  29.1503620  65.6603003  61.0904835  27.6927638  65.3637791
  16.4014542  38.0502629  35.1736951  16.8189895  37.2005677  35.0325823
  15.9092999  38.2119131  34.3687820   0.8229042  34.7501373  30.6016827
   0.4884036  35.6415868  30.6999469   1.7529878  34.8181748  30.8174300
  12.9915500  21.5119791  63.9417028  13.3515608  22.3281431  63.5945702
  13.1688368  20.8631968  63.2606125  24.6582103  57.8091002  13.1864214
  25.3259277  57.1276140  13.1092107  25.1550102  58.6196184  13.2981431
  44.9386168  28.7766790  18.9462519  44.1340733  28.8173985  19.4632423
  44.8052835  28.0369663  18.3535647  43.4017674  44.2250993   1.3443226
  43.3625368  45.1140107   0.9914345  42.8015725  43.7221579   0.7938237
  76.2030469  40.9772396  43.1550360  75.8487724  40.1152039  42.9368305
  77.0179663  41.0345554  42.6561832  10.9445643  27.8784823   9.7111112
  11.2144351  27.0345116  10.0732100  10.3626394  27.6526999   8.9854276
  19.9951371  79.0278653  39.4044733  20.8701762  79.4046673  39.4970036
  19.5078095  79.3667271  40.1554155  18.2622492  22.5121880  40.6189966
  19.0331745  22.9733205  40.2884483  18.5666668  22.0768738  41.4152765
  12.4104857  26.6936851  49.9376774  13.2197583  26.7945313  49.4365406
  12.6312137  26.0652781  50.6251478  20.4366946  21.7199850  52.4437094
  19.4802296  21.7315817  52.4794054  20.6764650  22.6018977  52.1591520
   4.1917026  10.2667212  65.5513144   3.6666545  10.8594513  66.0891151
   5.0754541  10.6329668  65.5841684  65.8954668  68.0794198  51.5087748
  66.3124663  67.2545750  51.2598228  65.7536155  68.5359378  50.6794930
  78.7051366  48.6142111  28.0258298  78.5598413  47.7027988  27.7719736
  78.5411118  49.1145515  27.2264624  33.0691719  42.3195314  70.1660967
  32.7897048  41.4187193  70.0027847  32.4575782  42.8553438  69.6610355
  84.1099639  29.3330121  40.1133251  83.3512573  29.6976471  40.5689955
  83.9035438  28.4040809  40.0098467  32.9017615  31.2514281  36.6785121
  33.4719539  31.5384221  35.9652472  33.0477977  30.3072309  36.7367673
  70.9029446  66.7498684  39.2216206  71.0771666  65.8229303  39.0583253
  70.8922289  67.1484804  38.3514333   7.1665907  39.7374368  32.5045586
   7.6354074  38.9687467  32.1796608   6.4712751  39.8827958  31.8629670
  23.9982843  20.0146222   2.7568871  24.1432023  19.2101705   2.2588024
  23.0483747  20.1323819   2.7506006  48.0928643   1.9612808  10.4419512
  47.6909776   1.4257593  11.1260123  47.3583873   2.2458810   9.8980994
  77.0032648  64.7220612  28.4917951  76.7968754  64.0511179  29.1425419
  76.7429773  64.3337107  27.6565313  43.8278356  63.3138757  64.9338698
  42.9947998  63.7840872  64.8994260  44.0145864  63.0903655  64.0220594
  64.2324708  19.7924781  54.4275856  65.0076960  19.6191609  54.9616432
  63.8216613  20.5517697  54.8410368  12.6237547  26.0773611  37.5355721
  12.0428586  25.3200078  37.4634123  13.2074416  25.8630419  38.2633162
  76.6041659  50.6797886  33.0183268  76.9727407  50.7951927  33.8941479
  77.0804535  49.9334764  32.6544619  32.0423921  24.5813198   5.8818049
  31.2529906  25.1074905   5.7544417  31.9496902  23.8567895   5.2631850
  70.2346514  69.6223688  54.6098948  70.7946263  69.3197489  55.3247929
  70.8005999  69.6040392  53.8381433  72.5215290  41.6246414  32.6564431
  72.5967632  41.4605474  31.7164183  71.9378780  40.9355831  32.9739022
  29.7849107  22.7022910  52.1207619  29.9292016  23.3880472  51.4687252
  30.6018877  22.6692867  52.6184464  84.8610827  48.5573292  38.8998175
  83.9683611  48.9019585  38.9224195  85.2810181  48.9290094  39.6755362
  16.6522110  23.9574313  17.0793211  17.4330974  23.4398532  17.2756934
  16.7478406  24.1947007  16.1569381  22.9311991  28.4089065  29.5105863
  23.1256938  27.6090431  29.0220928  22.5146294  28.1023431  30.3160191
   3.8287008  46.5609455  51.3060760   3.2753986  46.3320017  50.5593014
   4.1518646  47.4390888  51.1044216  63.5448587  73.1286026  53.4998035
  63.1299126  72.3464669  53.1360531  64.0739686  73.4751512  52.7813482
   8.1754124   9.6367776  48.3242607   7.2542799   9.4130641  48.4572983
   8.4788269   9.0175045  47.6604271  34.4582152  37.7216411  65.0765610
  34.1436100  38.1581402  65.8682203  35.4115200  37.7913570  65.1273727
  58.9770053   2.2328411  23.0082273  58.1584333   2.6984349  22.8367829
  59.4500635   2.2659631  22.1767521   2.4026987  15.9479451  55.3470993
   3.0050462  16.6794431  55.4824495   1.5365148  16.3151431  55.5235147
  47.8159523  42.9614878  19.2750704  47.7944660  42.2730494  18.6103690
  47.1409082  43.5816479  18.9994979  23.1746916  75.9397699   4.9488682
  23.1377898  75.0941564   5.3958697  24.0621732  76.2587692   5.1127190
  75.1440368  21.0579753  42.4389744  75.6672953  20.2707458  42.2882986
  75.7231126  21.6398931  42.9311848   4.0946007  43.7064791  62.0782280
   4.1015682  43.3207941  62.9542589   4.8756576  44.2592716  62.0536852
  23.0436563  23.8936973  35.6995225  22.4137545  23.7657976  34.9902296
  22.7525449  23.2968354  36.3889003  59.7083807  36.9472194  43.1278133
  59.3668699  36.0932398  42.8626299  59.0408850  37.2998762  43.7162971
   7.7907097  35.4085422  37.3873305   8.7459177  35.4662204  37.3653769
   7.6049310  34.4743371  37.2925615  49.7428751  54.9781084  21.2816787
  50.0065184  54.5798397  20.4521561  48.8544416  54.6546507  21.4309859
  56.9656243  80.9894562  48.8865805  57.3850231  81.8015085  48.6021376
  56.9146726  80.4557028  48.0936480   4.8981148  15.6445718  45.4409695
   4.5707607  16.3444614  44.8759699   5.2369767  16.0984206  46.2126112
  13.4052408  27.4023199  58.4268808  13.9873719  27.7717018  57.7628708
  13.6920202  27.8040147  59.2470217  80.6674580  44.3364716  67.8093767
  81.3384132  44.7509146  67.2668934  80.3360603  45.0438738  68.3625412
  48.6703857   0.2755947  14.4179720  48.2308980   0.4306717  15.2540488
  49.4979258   0.7511396  14.4905562  30.1592309  61.1053087   6.4425702
  30.5990301  61.0222794   7.2886843  29.4284766  61.7004945   6.6098542
  81.1324791   8.1207299  62.1120262  81.4028464   7.3059541  62.5354338
  81.5531121   8.8092923  62.6269817  71.7202018  12.6785004  63.9533615
  71.7198823  12.5798881  64.9054670  70.8832989  12.3074198  63.6738539
   8.7616736  29.8724651  28.2379508   8.2857925  29.0975618  27.9391289
   9.3485934  30.0874400  27.5130057   1.1567519  18.3276320  20.7224703
   1.9643539  18.2044816  21.2213135   0.5103907  17.7862799  21.1756682
  75.4989098  24.5114708  49.4665194  75.3790150  24.3532991  50.4029131
  76.1254774  23.8431597  49.1890192  32.1427917  21.1414075  51.0047150
  32.4182916  21.5323043  51.8338919  32.6276565  21.6276884  50.3378773
  18.9480138  14.9462593  37.2584271  19.3455899  15.8154678  37.2070289
  19.5554495  14.4363523  37.7943826  12.1167862  23.9704251  51.3487530
  11.1883116  23.7836742  51.4876461  12.3725677  23.3920002  50.6302595
  78.1512481  80.5114702  26.9255853  77.4770290  80.2135550  27.5362468
  78.8334066  79.8419332  26.9766760  74.2473565  12.7661693  52.7921247
  75.1234172  13.1298447  52.6637173  73.9517723  13.1407881  53.6218977
  34.7984958  42.0899439   3.8356400  34.6044731  42.5028419   2.9941526
  34.4219971  42.6829624   4.4858781  35.9459209  26.3249660  53.8169956
  36.2288809  26.3543010  52.9030466  35.1095629  26.7904663  53.8238430
  26.6838598  14.3512487  36.2879515  27.4946952  14.4519734  35.7893205
  25.9949350  14.3325257  35.6236744  22.5312781  19.0985727  42.7574205
  22.8337169  19.9811614  42.5434113  23.0547452  18.8436663  43.5171843
  47.4448852  79.6043159   5.4283804  48.3846263  79.7862913   5.4261107
  47.3843972  78.6584999   5.5625624   5.9355319  33.7849021  28.6025524
   6.6666865  34.3443513  28.3405232   5.2279109  34.0185237  28.0017829
  36.6516137   0.0350901  53.6497164  36.5155888   0.9825550  53.6434078
  37.4529862  -0.0952070  53.1427097   7.4925375  45.2425528  64.8608112
   6.9243610  45.1715994  64.0937567   7.5590819  44.3473864  65.1932049
  32.1851158  33.0800939  38.4788203  32.5919342  32.5071955  37.8288078
  32.0412898  33.9047766  38.0146599   9.2117846  13.4761870  49.9059963
   8.3261430  13.8289249  49.8196936   9.6905011  13.8467848  49.1645670
   8.4233101  67.8750224  38.7611389   8.1509860  67.3410208  38.0148721
   7.9858812  68.7156994  38.6264133  33.0299115  55.1382732  27.4719882
  32.5501442  54.7239304  28.1891870  33.9201069  54.7951031  27.5495625
  63.9263580  59.9748945   3.1236392  64.6104334  60.2389145   2.5083619
  64.2891548  60.1765728   3.9861572   4.7429264   1.2723604  45.1035547
   5.3800452   1.1217310  44.4052505   3.8948858   1.2650628  44.6597004
  80.1117460  26.4419746  21.6049933  79.4113533  27.0619202  21.8083382
  79.6737455  25.7305837  21.1377597  47.1966487  61.5746910  57.4795580
  48.0345744  62.0256264  57.3757744  47.3807198  60.8661825  58.0962944
  11.2488961  31.4980769  46.7281866  10.4027975  31.0515618  46.6969919
  11.7630446  30.9932423  47.3582888  80.9165031  56.8829949  52.6651144
  80.9622318  56.9454200  51.7110491  79.9811846  56.8123705  52.8559637
   5.8103657  14.6792686  56.2872458   5.0115448  14.9679351  56.7285967
   6.5049332  14.8251104  56.9295359   1.1237292  14.6942055  33.0096030
   0.2106998  14.8122633  33.2716537   1.4482725  13.9970434  33.5795736
  12.1031332  24.1915727  26.0349035  12.9761779  24.4195127  26.3543868
  11.9779444  23.2826972  26.3078570  34.9265504   6.9105142  37.4680614
  34.7699904   6.8253648  36.5276003  35.5847478   6.2433290  37.6626706
  11.7412841  16.8042397  30.9918714  10.9489894  17.0726109  31.4571452
  12.3098338  17.5736439  31.0234928  64.5382140   6.4272457  64.2622423
  64.7680495   7.3492825  64.1471052  63.6320351   6.4429337  64.5701838
  77.7165932  17.0017694  50.7461410  78.2527501  17.4007009  50.0608521
  77.1928686  16.3443206  50.2882080  80.5082534  42.3160410  37.9270029
  79.7297667  41.7787313  37.7804232  80.1738654  43.2109547  37.9865646
  79.4717125  37.5837302  13.7290347  78.5950337  37.3350692  14.0220082
  79.5189140  37.2737479  12.8246486  41.3704014  29.5449591  41.7717934
  40.8802414  28.8544774  42.2181177  41.7911959  29.1019821  41.0349512
  25.2166613   3.4867258   0.6302590  24.3928035   3.2198114   1.0379977
  25.7296832   3.8583488   1.3478512  80.3815800  76.5184451  54.7559881
  81.2179381  76.9815285  54.8038483  79.7529489  77.1170295  55.1594114
  38.9419627  26.4163136  39.9825716  38.3711362  25.6644177  40.1408100
  38.3432651  27.1282458  39.7568631  68.4247325  20.7734060  29.1728354
  69.1245125  21.2625384  29.6056056  67.7935789  21.4423656  28.9075637
  55.9711933   1.2075821  65.9917021  55.2739096   0.5764160  65.8137798
  55.5136728   2.0363589  66.1332560  86.1045211  20.0723195  27.9043388
  86.8475483  20.6443882  27.7122927  85.3681975  20.4727316  27.4420309
  24.3057847   2.3299095  50.2486658  24.0989733   2.0476729  49.3577099
  23.5282898   2.1023874  50.7585335  70.9081600  31.9534516  21.6986752
  71.4832066  32.1848726  20.9692955  70.3602443  32.7278090  21.8267107
   9.2586952  11.5162969  55.3737545   9.8622149  11.0453582  55.9483957
   8.4098524  11.4487648  55.8109426  12.2760487  11.9068205  31.1871457
  12.8026521  11.2011814  30.8116555  11.4954352  11.9433033  30.6343865
  72.5630758   1.0430077  33.5595560  72.6277171   0.3610431  34.2281199
  72.4569033   1.8549964  34.0551710  12.6200342  22.2013593  49.1724157
  12.2684777  21.3111830  49.1573238  12.6243246  22.4727702  48.2545090
   3.8537505  17.8190672  44.1806078   4.1392192  18.6487484  43.7980270
   2.9966134  17.6561189  43.7869120  10.2472603   2.2123000  35.8101368
  10.1687860   1.3085456  35.5046844  10.1826108   2.1495092  36.7630839
  -0.0350831  34.7475481  46.9637251   0.8215089  34.5811701  47.3571730
   0.0387834  35.6264710  46.5918779   5.2599484  20.3411293  14.3005085
   5.0845611  19.4203639  14.4945800   4.8363551  20.4927278  13.4556305
  38.2348895  25.0582242  36.5511870  37.5063944  24.4650531  36.7346931
  38.5258055  25.3542733  37.4137139  45.3621483  26.6300774  21.5107465
  45.0590086  27.0488930  20.7051826  44.6190548  26.1003232  21.7995501
  72.3148052  73.0254056   4.2432828  72.4943678  73.6971976   3.5854954
  71.3625375  72.9288914   4.2332978  18.2380939   5.5200201  36.1913395
  17.4388385   5.4039651  35.6775737  17.9332638   5.5898911  37.0960093
  39.3929791  25.8678317  27.3748279  40.2714777  26.2132573  27.2162437
  38.9019895  26.0895944  26.5836382  12.5285182   3.3845777   2.8693099
  12.0041642   2.7112073   3.3027358  12.4002919   4.1685886   3.4032769
   2.3456211  41.3377285  42.1286631   2.6314595  41.5514040  41.2404776
   2.4701205  42.1485519  42.6219130  24.8491478  14.7400308  16.3203132
  25.4745984  15.1715302  15.7382035  24.2234397  14.3197536  15.7303238
   7.8731185  39.7563601  26.6612411   7.6404655  40.5203199  26.1335397
   8.1225544  39.0899682  26.0209775  19.3270636   4.6755821  53.6676073
  19.3458176   3.8154757  53.2479668  18.5967398   5.1307201  53.2484293
  43.6292547  76.1505390  12.9767406  44.0644497  75.5551256  13.5869205
  44.1613502  76.9459430  12.9976654   4.6402991   7.5684077  65.1936817
   4.2857635   7.2932768  66.0391617   4.4977319   8.5146511  65.1706553
   6.1125416  52.0841789  61.7653418   5.4832321  52.7795792  61.5739679
   6.1033243  52.0087528  62.7195215   4.1756332  34.4470668  11.3559639
   3.9975020  34.9532533  10.5633259   3.5773101  33.7017417  11.3036919
   1.9926244  44.9983454  30.5478549   1.8362246  45.8863497  30.8691311
   2.9051757  45.0053930  30.2590084  28.9499927  65.3165007  22.6140690
  28.9911127  64.5318842  22.0673370  28.5855699  65.9898806  22.0396233
  44.6449200   9.2200034  22.5791025  44.2300347   9.8378032  21.9770837
  44.0323917   8.4861415  22.6289487  31.3146567  43.9268398  12.8589094
  31.9217539  44.0109062  13.5941625  30.4507089  44.0747595  13.2435453
  52.9449789  10.5833476  10.7361591  53.5321037  11.3013118  10.4994321
  53.0893413   9.9226325  10.0587785  42.5474505   3.6511653  39.0909624
  41.7432002   3.8141768  38.5981750  43.2441370   3.7041705  38.4367061
  28.7543514  74.9805691   2.6300711  28.6852618  74.3260195   1.9350714
  29.6868317  75.0043036   2.8448958  85.0723758  19.9519765  30.8877730
  85.4056267  19.9729133  29.9907017  84.1319538  20.1059365  30.7975769
  65.9275627  61.3017702  35.0295258  65.3099489  61.7974234  35.5672193
  66.3015127  61.9512081  34.4340205  41.1769533  24.2229605  33.1895804
  40.2863789  24.4551134  33.4526682  41.4122200  24.8801684  32.5346303
  44.7541571  55.7337475   8.5856956  44.6591568  56.2677002   9.3744278
  45.3570080  56.2297726   8.0318385  28.6286306  48.9850903  27.8564548
  28.3730364  49.6174526  27.1848750  29.5211005  48.7323189  27.6201534
  23.4856915  73.7096167  24.9574304  23.2394695  73.2542706  25.7625818
  22.7755618  74.3339586  24.8086166  28.0237675  18.5134006  17.5117409
  27.1184659  18.2276821  17.6343226  28.3896136  18.5359788  18.3959794
  48.8618183  71.1902475  37.2064734  49.0592575  71.2962532  36.2758756
  47.9582930  70.8747816  37.2252011   5.9797847  17.0121324  42.3297071
   5.2897203  17.3383117  42.9073286   6.4519727  17.7975702  42.0533752
  13.2377505  23.8943744  44.5316601  13.8900006  24.1568804  43.8821268
  13.6865377  23.2447100  45.0727320  20.7545972  37.9482484  20.0254941
  20.4933095  38.0642104  20.9390116  20.0412345  37.4437785  19.6345294
  47.5941942  65.2598667  25.1460958  48.2412146  64.8904181  24.5451760
  46.9124315  65.6145763  24.5754695  50.2886716   3.8548415  27.3448992
  49.4930927   4.2950385  27.0457077  50.4816524   3.2162516  26.6584682
  54.4452953  67.9422522  35.8754563  54.3322611  68.8732767  36.0668898
  54.6187115  67.9105091  34.9346304  32.9517579  57.7804899  35.9643221
  33.3604956  57.1662760  36.5741658  32.0427775  57.4870443  35.9020710
  18.1996357  68.9852381  23.4185171  17.7700114  68.7720633  22.5901389
  18.1831121  68.1667185  23.9144850  48.4658432  54.7410870  38.2136369
  47.6841450  55.2687836  38.3771062  49.1864443  55.3710604  38.2234144
   7.5222476  29.0460752  61.7970770   6.8952545  29.1487096  61.0811298
   7.7471312  28.1157230  61.7869829  37.8145234   3.7076037  27.4321651
  37.1162407   3.5976165  28.0775619  38.3015094   2.8841441  27.4634957
  17.2068143  42.1083117  63.5200310  16.3048029  42.4244070  63.4681654
  17.1450758  41.2868309  64.0074635  29.9703526  40.4059362  20.5511165
  30.7322335  40.5615854  21.1092758  30.1183224  39.5356393  20.1810861
  16.9583380  34.5925927  37.0760131  17.0287418  33.6385465  37.1087313
  17.1786404  34.8795438  37.9622149  15.7790637  40.6112671  32.9167151
  15.6163597  41.1575460  32.1477294  14.9705327  40.1118517  33.0311418
  37.9383183  53.4590578  35.5227256  37.2228694  53.7040901  36.1095166
  38.2364106  52.6103306  35.8498859  25.4471111  18.0618763  18.4045184
  25.1478648  17.9975510  17.4975753  24.6763611  17.8407753  18.9272928
   3.3036208  38.0009651  37.9874754   3.3136651  37.9912949  38.9445734
   4.1576275  37.6497149  37.7354264  21.1506224  51.5039921  30.0155449
  21.1911130  52.1961451  29.3556046  22.0639348  51.3492441  30.2566743
  16.5385854  23.9507675  14.3628860  17.4406242  23.8888121  14.0486920
  16.0135317  23.5662007  13.6609888  17.0483971  48.2879925  46.9843006
  17.0650470  48.5943127  47.8910112  17.9485142  48.0147314  46.8072367
  12.2747660  46.9695425  43.6225176  13.1321239  46.6661406  43.9210415
  12.1792555  46.5940809  42.7472258  24.5798445  80.4517078  43.1121254
  24.3194771  80.8214569  43.9557600  24.5447183  81.1912251  42.5054073
  35.9981894  67.6463223  54.0837383  35.9219837  67.8455925  53.1506157
  35.6425953  66.7617798  54.1695738  48.6038544   1.6543407   0.4400391
  49.3811627   1.9045372  -0.0593858  48.5836991   0.6987161   0.3889746
   9.8859996  28.0745769  18.1468749   9.3477166  27.3243546  18.3991611
  10.3742528  27.7723169  17.3810554  34.2496204  39.8857975  27.6670861
  34.7630405  40.3774643  28.3080983  34.9014306  39.4100142  27.1522999
  62.9908488  69.7818422  30.3838611  63.1731175  70.7194948  30.4456878
  62.5473831  69.6790648  29.5418358  16.6756916  25.4182529  31.5234184
  16.0537112  26.1161709  31.7290449  16.5694058  25.2719808  30.5834508
  22.6864409  49.3426514  36.9629622  22.1589780  49.6225548  36.2148523
  22.5366044  48.3991003  37.0220327  37.1231747   9.0559679  69.1938734
  37.7747202   8.7669325  68.5549831  36.6425586   8.2603759  69.4225073
  16.7650000   4.9615996  38.3150101  15.8380548   5.2000563  38.3269715
  16.8113343   4.1545623  38.8276386   9.4188595  68.8306379  61.5884161
   9.0701592  68.6547899  60.7145071  10.2554357  69.2676306  61.4290237
  14.8940504  51.8642044  20.3194404  14.8732531  52.6280117  20.8959842
  14.0620065  51.4194298  20.4810190  31.9493461  44.5251989  33.3740044
  31.1449099  45.0317907  33.2622933  32.6373553  45.0862312  33.0160737
  17.1987474  65.4731989  35.4308605  17.2243071  66.2298727  34.8451781
  16.4020586  65.5965567  35.9469056  38.0269623  66.3385153  47.1134233
  37.7925301  67.2663546  47.1329212  37.5056815  65.9747553  46.3977575
  44.4947004  64.1806078  58.6153269  44.8017931  64.7817516  57.9366875
  44.4539070  64.7152281  59.4082642  83.0058350  73.3079796  53.0658608
  83.2961955  74.1435438  53.4315901  82.4275889  72.9416805  53.7349539
  17.4550521  44.3549156  67.6478243  18.2875526  44.7850609  67.4525070
  16.7893934  44.9763775  67.3530149  51.0231018  73.2324886  43.3319807
  50.0859404  73.4253740  43.3593273  51.3635397  73.5811758  44.1558456
  19.1735232  50.0609970  24.5632529  18.9266098  50.1023197  25.4871345
  19.1647077  49.1268730  24.3545270  79.4735907  34.9510860  52.6867485
  79.3811999  35.6551981  53.3285570  80.3906302  34.9929643  52.4156094
  60.8891964  78.7388420  46.3828850  60.8271170  78.1050253  45.6682873
  61.4763117  79.4178343  46.0504675  28.0897164  44.3887091  47.7437782
  28.5328889  43.7821627  47.1505404  28.7141895  45.1038551  47.8655481
   9.0347904  38.5624003  55.9925795   9.0207678  38.2013154  56.8789530
   8.3076525  39.1846728  55.9759235  66.5191118   1.4649813  34.0716243
  66.0850898   2.2325175  34.4441199  66.3049952   0.7527583  34.6742177
  33.2470536  43.8787317  30.2470851  32.3424697  44.1496992  30.0904465
  33.5774374  44.5068693  30.8893609  11.7789102  48.9158773  18.4592044
  11.5414751  48.4563637  17.6537812  12.5877213  48.4924936  18.7469637
  72.8266287  81.1053944  39.5820355  72.6165390  81.2682724  38.6624885
  73.7576723  81.3150406  39.6557736  15.6090391  33.1545877  13.0412078
  15.1876104  34.0140128  13.0373585  14.8825610  32.5316858  13.0625808
  84.8981229   1.7613929  29.0625429  85.3768341   1.5469210  28.2618761
  85.3619854   1.2878649  29.7530699  41.3245726  78.9513254  40.1749849
  41.3883495  78.1652880  39.6324873  40.6181145  78.7599373  40.7918453
  78.3584062  28.3257621  37.5661445  79.1859762  28.7398665  37.8108358
  78.5583822  27.3901599  37.5362563  60.4991579  70.4842615  22.5033283
  60.4826927  71.1605358  23.1805420  59.5856762  70.3951311  22.2315907
  33.0040312  45.5360603  44.6521139  33.5723352  46.1306381  44.1624832
  33.5481524  44.7659492  44.8167229  57.3872709  61.3314724  50.1770926
  57.2706032  61.8686628  50.9607029  58.1540966  60.7916021  50.3687906
   6.5382969  74.2845535  50.7681656   6.9633412  74.8565006  51.4072609
   5.7311147  74.0026617  51.1985445  85.4422704  25.2549498  45.1829004
  86.3882772  25.3887503  45.2412033  85.0942508  25.6547969  45.9799194
  74.0914869  57.8059864  65.4151297  74.2646360  57.7578259  66.3553047
  73.3523607  58.4093285  65.3383064  25.1271629  60.1839590  42.5149822
  24.8524046  60.6778908  41.7424726  24.3116140  59.9864101  42.9755116
  13.0928731  59.8454809  58.8644600  13.8764751  59.3422079  58.6432886
  13.4097564  60.5413532  59.4402885  66.5540600  57.4526548  69.6728373
  66.3962078  56.6552210  70.1782227  66.0498333  58.1277657  70.1269484
  76.0003181  24.5102996   4.0378232  76.0544201  24.9915523   3.2121749
  75.4971226  23.7244768   3.8244862  41.1480049  20.0332301  54.6788931
  40.8806590  20.3332751  55.5476427  40.3671269  20.1438754  54.1364765
  51.0211611  56.1375618  25.7878184  51.8191528  55.8103704  26.2030149
  51.0489941  57.0840311  25.9280109  78.5228531   1.8631213  19.7607803
  79.0890352   2.3991435  20.3160810  77.8494445   2.4683898  19.4502831
  24.1831446  69.9251556  52.1545839  24.6300030  70.6221867  51.6742754
  24.2639852  70.1781130  53.0742073  62.3952818  42.3807144  47.9373503
  62.0222425  41.5112305  48.0825090  63.2711840  42.2107363  47.5907421
  27.5014377  48.2033682  40.2407312  27.9760242  47.3818922  40.3679037
  26.6067338  48.0087614  40.5197668  63.9885370  15.4350798  29.4291544
  64.8969165  15.7259982  29.5094299  64.0522114  14.4955485  29.2575264
  51.3004065  50.4288721  41.9231987  52.1419001  50.3203106  42.3662901
  51.3098431  49.7720814  41.2269449  33.6482048  53.6628914  44.5992184
  33.3350277  53.0394030  45.2545166  33.4714222  53.2375240  43.7601471
  39.8682499  53.6844110  70.2569723  39.9086022  52.9844332  70.9086132
  40.7718992  53.7856817  69.9579763  10.6768847  56.4720726   7.0720446
   9.8717135  55.9651804   6.9672006  11.1904263  56.2704134   6.2898427
  80.8651829  48.3409977  52.3113918  81.2097263  47.5469685  52.7200985
  80.0240898  48.0739355  51.9406414   7.7400488  54.5907688  33.2259440
   7.6587284  53.6717081  32.9710984   8.3057761  54.5760965  33.9979339
  44.0545273  52.2659826  67.5743866  44.2712069  51.9454813  68.4499216
  44.6464634  53.0055094  67.4367523  83.4196259  57.2199011   8.7962002
  82.6830218  57.8207350   8.6837524  83.0171953  56.3968515   9.0734571
  49.9745655  73.2820320  20.1192546  49.1417170  73.5866356  20.4795384
  49.7873354  73.1086397  19.1966975  61.3477468  53.8651800  49.2319012
  61.9316387  54.1058683  48.5126162  60.4687166  53.9291763  48.8584805
  17.8241026  65.1744604  40.4040194  17.9274070  65.4030943  39.4802856
  16.8788350  65.0832129  40.5239105  14.0958679  70.7852459  41.0520124
  14.0230405  69.8524857  40.8498096  13.9187276  70.8413076  41.9910049
  26.8485975  53.0333853  43.7176943  25.9640384  52.6863527  43.8332558
  27.0066452  52.9773426  42.7752972  18.7570047  50.4568672  48.0283213
  19.3871868  49.7399282  48.0997229  18.0926919  50.2584505  48.6882830
  10.0486279  68.6913300  13.0836546   9.2471027  69.2142200  13.1029999
  10.3153610  68.6957598  12.1643806  17.6256394  56.3011026  45.6573439
  16.9131756  55.6897879  45.8442211  18.2447124  56.1744165  46.3763237
  37.6645312  35.1243372   6.0183949  38.2687984  34.7314138   5.3885502
  36.8238244  34.7036142   5.8382935  83.4509087  78.8574028  51.8838978
  83.7193680  77.9927444  52.1945906  82.6694012  78.6905718  51.3569689
  54.4888926  33.1134534  58.0471277  54.2751598  32.7627373  57.1825218
  54.9263620  32.3908067  58.4972763  22.7928758  60.9775352  47.1029806
  23.5843539  60.9776068  47.6413012  22.0743394  61.0259724  47.7335310
  12.4677098  73.8598871  49.5440578  12.6904488  74.5494843  50.1694202
  13.2317066  73.8008595  48.9704227  26.1487126  65.2580595  61.2361288
  25.9089851  65.9312630  60.5992937  25.8571935  64.4375896  60.8385468
  64.4184923  80.5330086  14.0198517  63.5912943  80.9431553  14.2723382
  64.4456577  79.7191286  14.5229375  58.1438303  58.1167221  64.3603230
  58.8765574  58.7072515  64.5353127  57.3668194  58.6709070  64.4335461
  78.1520645  10.6774180  41.0112143  77.9617588  10.1002925  41.7507696
  78.5699789  10.1084750  40.3647709  19.9131000  69.2084980  49.6162891
  20.4482865  69.9670029  49.3828964  20.3165746  68.4775257  49.1481876
   7.9831374  76.6903830  23.3911943   7.9290950  76.6825533  24.3468356
   8.7015450  76.0916948  23.1870103  44.0982199  48.4458828  41.8190384
  44.0175915  48.0165434  42.6707411  43.4676218  49.1652203  41.8527794
  37.3198819  66.2453270  25.6364870  37.7634692  66.6604328  24.8967910
  38.0076408  66.1248112  26.2912369  46.2231064  59.6185589  33.7032866
  46.9459820  59.1518927  33.2838774  46.5577269  59.8493147  34.5698953
  59.9633614  11.0716193  48.4531260  59.9962823  10.2095263  48.8677835
  59.8266498  10.8855288  47.5241947  32.7128887  63.3054256  61.0685110
  31.9289851  62.8870678  60.7125568  32.5295424  64.2433214  61.0140371
  30.3403282  62.6321316  39.9304914  31.0905051  62.6319551  40.5250216
  30.6656790  63.0525255  39.1344714  61.5958023  45.9890079  59.3497944
  61.3927221  45.2961540  59.9782372  60.7519674  46.4029980  59.1687250
  54.4283009  61.1327839  38.8754678  54.3990803  62.0882082  38.9258838
  55.2903557  60.9009647  39.2209435  53.8154125  30.4210496  55.7449293
  53.3089781  29.8302531  55.1875114  54.2906952  29.8406959  56.3395119
   6.9793725  67.7621555  49.7018099   6.5570754  67.0231438  49.2639065
   6.6349328  67.7401686  50.5946207  32.0883703  42.6813936  46.1479664
  32.8617835  43.0370760  45.7102966  32.3079872  41.7648315  46.3150167
  30.9180593  76.3560390  21.9096017  30.7227135  75.8692598  22.7102995
  30.0943375  76.3555908  21.4220428  21.2444043  54.5290565  39.8806024
  21.9510436  53.9162588  39.6772122  21.4621425  54.8657799  40.7497644
  37.6301694  45.1035547  26.1845446  36.6793370  45.0535917  26.0862970
  37.8222275  46.0412836  26.1824679  80.1248590  26.0528701  65.8788490
  79.7022382  26.1306899  66.7341661  80.5207817  25.1814215  65.8857250
  48.5416412  58.6505365  32.8755569  49.3618965  59.0870333  32.6455855
  48.7412930  58.1749678  33.6819124  20.8112645  77.6870728  30.7026029
  20.9435701  78.3722639  31.3577700  20.6461740  78.1627512  29.8885369
  57.0755434  61.5517712  25.1042390  57.7039051  60.8986092  25.4120874
  57.1666622  61.5413618  24.1514421  64.9068491   7.1960967  50.0932026
  63.9852850   7.3637431  50.2902985  64.9111430   6.3291018  49.6875620
  28.1945276  66.7599201  32.2867632  28.8691306  66.8219709  31.6105318
  28.6604333  66.9275379  33.1059527  70.7715114  21.5535278  14.1248316
  70.1268073  21.4649887  14.8267932  71.1068900  20.6665439  13.9943881
  46.7380476  79.5108843  44.2632580  47.1177244  79.6793890  43.4008837
  45.8489799  79.2081308  44.0785217  56.9018316  64.6781397  39.4578505
  56.8995619  65.5008125  38.9685249  55.9987450  64.3653488  39.4046903
  10.5796140  10.8322757  22.8213716   9.9232000  10.9453242  23.5088086
  11.3058990  10.3843158  23.2550454  38.6427402  58.2676649  46.1061382
  38.2685447  58.9355135  46.6807556  38.3326292  57.4381208  46.4693451
  23.4489560  39.8378611  34.4699359  23.3663726  38.8846231  34.4973373
  24.3054414  40.0153399  34.8587370  80.4478733  10.2891391  48.6008453
  80.5706684  10.9061759  49.3222475  81.2160007  10.4158347  48.0439281
  85.2579077  32.2309990  19.0893740  85.9205874  31.6555042  18.7074179
  85.4132708  33.0812521  18.6780734  26.2393689  68.9818764  20.1555014
  26.7202687  69.7768164  20.3857994  25.4146600  69.0531445  20.6361341
  31.0271215  70.8171940  21.5372753  30.3992128  70.1918507  21.1754632
  31.7903805  70.2860451  21.7643285  39.1335702  64.5381832  50.8572388
  38.2238960  64.2421007  50.8246279  39.6173286  63.7881184  51.2030840
  14.3236709  62.4885368   4.8446828  13.6155343  62.9459095   4.3912709
  13.9303720  61.6652584   5.1340961  18.7789047  44.2650843  17.6521134
  18.5668218  43.6275578  16.9703424  18.0562341  44.8922491  17.6267278
  37.0504808  77.5617027  66.2808371  36.7968225  78.3105850  65.7413292
  36.4913392  76.8468952  65.9764576   2.3760646  24.5210974  55.9897709
   3.0495447  23.9671271  56.3844442   2.5775379  24.5132392  55.0540447
  30.4854584  54.1548300  18.9928305  30.8272719  54.1205978  18.0993974
  29.8226762  54.8450470  18.9694214  20.8875165  64.4426841   1.4860196
  20.0803170  64.2658538   1.0029072  21.5494762  64.5727081   0.8069510
  40.1968145  58.0335188   1.8678972  40.8183479  57.6797724   1.2316646
  40.5418301  57.7594662   2.7176565  80.2449117  49.7718620  33.8098431
  79.3593500  49.6623230  33.4634137  80.1155106  50.1163387  34.6934843
  47.3528337  77.5768375  46.7066193  47.5113535  77.6058054  45.7630825
  47.3723602  76.6449118  46.9242668   8.6386333   6.4467449   2.6807541
   8.0019984   6.1794395   2.0178217   9.3663654   5.8340425   2.5747675
  42.2083187  54.9945021  38.5920477  42.6325893  54.9740028  37.7342558
  41.4283657  54.4497299  38.4865665  20.9862552  29.0134306   2.2816319
  20.1873336  29.1642589   2.7868075  21.5261922  28.4608001   2.8466935
  63.0468321  73.7403822  16.8513227  62.1899223  73.9472342  17.2243476
  63.4046602  73.0683041  17.4314117  47.6182747  57.6089764  39.7217131
  46.9062948  57.2294569  39.2066574  47.4247313  58.5461426  39.7438145
  40.4945693  14.0082807   0.5127234  40.1609836  14.8358602   0.8592267
  40.3338800  13.3739776   1.2113423  46.9356346  47.6000881  19.5539486
  47.7796650  47.8084373  19.9544871  46.3219738  47.5743151  20.2881074
  57.2949934  55.1700306  50.9186983  56.3943720  55.4428244  51.0939074
  57.4650335  55.4654932  50.0242567  43.0191040  64.9524832  40.4630661
  43.4395123  65.6170511  41.0088158  42.2985220  65.4148531  40.0350380
  82.5348312  34.6862481  69.5350660  82.9198510  33.8785718  69.8751427
  82.1805984  35.1265405  70.3076549  19.2856705  74.0506649  46.3202477
  19.9321568  73.4168148  46.6309214  18.4710431  73.7930155  46.7517900
  63.3088398  43.0574417  42.9404545  63.1423664  42.1300602  43.1092310
  63.9515877  43.3099079  43.6033010  58.1828658  16.7980044  44.6431255
  57.5175635  17.0537131  44.0042067  58.4210841  15.9043925  44.3962479
  53.0929661  54.8122120  43.1233788  53.5278416  55.2890921  42.4164867
  52.7834845  54.0048838  42.7126789  45.9726906  70.5423737  29.1652608
  45.1432037  70.3544855  29.6044397  45.7249784  70.7503986  28.2643747
  31.9685245  33.0950499  60.1130247  31.0868692  32.7464628  60.2449465
  32.3373675  32.5552535  59.4138765  63.3286285  48.3480167  49.1600370
  62.7792692  48.7781668  48.5047483  63.4903574  49.0240622  49.8180962
  31.3751221  63.7585354  70.5021906  30.7102180  64.1216946  69.9171686
  31.4885402  62.8558064  70.2047920  41.7343760  42.9099655  30.9530902
  41.7297506  43.8654900  31.0095406  41.8689489  42.6174307  31.8545032
   8.9800155  46.5484667  56.6273117   9.5247138  45.7622290  56.5903807
   8.7566334  46.7282009  55.7140589  35.1010227  42.6034021  19.1003263
  34.2403936  42.2565651  18.8652706  35.6593895  42.3844814  18.3543146
  37.2475386  72.0280361  28.7648797  37.2499394  71.5928268  29.6174169
  36.5176105  72.6453733  28.8131618  44.2290306  45.4153347  37.6134634
  44.2125034  44.6226835  37.0771170  44.3202305  45.0953627  38.5109782
  18.6140418  65.9761858  37.7432775  18.4439540  65.7966995  36.8185687
  19.4990814  66.3405085  37.7576995  21.3739967  57.3509216   5.1925683
  21.5153050  57.9824448   5.8978641  22.1966624  56.8646145   5.1381284
  31.3004827  35.3782487   0.2848001  31.6133094  36.2535453   0.5133297
  32.0716906  34.9320292  -0.0649987  36.5186381  79.5058250  29.6355557
  37.4201393  79.8275518  29.6311808  36.0112667  80.2094173  29.2308736
  67.9097557  60.4655647  21.6491389  67.1062469  60.9600163  21.4875221
  68.5528469  60.8528328  21.0552645   0.0933578  75.9069920  33.9823699
   0.8739837  76.2448359  34.4213653  -0.6365965  76.3403463  34.4246411
  35.4847622  73.0575371   2.9600886  36.0726237  72.4791431   3.4460047
  36.0599256  73.5387373   2.3652261  31.8156791  56.7726707  17.2626734
  31.5802264  57.6634645  17.0032871  32.6906276  56.8569136  17.6416206
  37.1469736  40.6969929  28.4890938  38.0025554  41.1212158  28.5542488
  36.5213537  41.4212036  28.4703755  45.8550167  73.1476355  59.1350985
  45.6515503  72.6121807  59.9019909  46.2041140  73.9619684  59.4973564
  39.5521569  67.4595499  37.7973056  40.0287008  68.2671928  37.6053333
  39.9567628  67.1274376  38.5986948  35.5414438  32.0051384   3.1925726
  35.6292415  31.4862299   2.3930371  34.8615074  31.5568995   3.6955625
  18.3580017  72.4698400  55.6722736  18.7426245  72.6244688  56.5350533
  18.2902181  73.3406496  55.2806997  31.8921375  64.0795660  42.7050543
  31.4234781  63.2459021  42.6651716  32.0833063  64.2026186  43.6348629
   8.8084660  60.9751720   6.8386788   8.1155238  61.5065403   7.2307391
   8.6297093  60.0856227   7.1436066  45.3319836  70.9029293  26.4929485
  45.3570652  71.8537331  26.3853788  45.1797295  70.5659389  25.6100631
   7.3965037  36.0722232  28.5983300   8.3436513  35.9519219  28.6666703
   7.2610527  37.0053005  28.7634182  15.9849590  16.0406440  39.6613646
  15.2477830  16.1966269  40.2516794  16.1574548  16.8937342  39.2629790
  58.3667509  12.7876990  50.5668879  59.3236105  12.8082316  50.5820227
  58.1508247  11.9039767  50.2691793  28.4991320  16.8975566  60.9800833
  29.4109972  16.8144725  60.7011085  28.2064494  15.9960483  61.1136901
  46.0372639  70.2475071  55.8932877  46.0283566  70.9917641  56.4951420
  45.1310110  70.1697111  55.5951500  69.1717855  36.1183589  52.0194721
  68.9925996  37.0258944  51.7734861  69.0060703  35.6166785  51.2212992
  14.7231000  23.0401175  50.7987261  14.0731805  22.7537196  50.1569986
  14.2608303  23.6820548  51.3376617  60.1472092  54.5867634  55.0399256
  60.0510502  53.6402655  54.9344254  60.2294827  54.7152948  55.9848833
   9.4009149  66.9742870  44.6098137   9.8041743  66.3649321  43.9915085
   8.8065434  66.4315271  45.1278543  64.9608040  73.0371094  63.0140781
  65.5346918  72.6811075  63.6924219  65.5579710  73.3426332  62.3312330
  11.1401737  56.8469810  57.7688408  10.2440703  56.5164948  57.8321838
  11.4603829  56.8453455  58.6708879  67.2791481  57.0783520  45.4505634
  68.1259108  56.7571020  45.7604313  67.4905396  57.6069975  44.6810961
  44.2288637  46.0981226  11.4532351  44.6425390  45.2397013  11.3625693
  43.3073997  45.9430647  11.2456524  56.7142487  66.4754629  29.1939545
  56.9237804  65.9925985  28.3944750  57.4366570  67.0951271  29.2957902
  73.0194950  64.2709589   0.2327328  73.5721827  64.8892927   0.7106797
  72.6687431  63.6911488   0.9087700  42.6190090  70.5348587  64.7328758
  43.0920744  71.3250446  64.9937391  42.8653717  70.3992891  63.8179111
  60.1877451  72.0335531  29.2958879  60.4861069  72.1903658  30.1917815
  60.8583498  71.4659119  28.9160109   2.1025890  29.3029921  62.8822470
   2.8403610  29.9081748  62.9576683   2.4876874  28.4375422  63.0198336
  35.4287219  76.9227552  41.5978289  34.5069146  77.1767139  41.6426802
  35.9071851  77.7117968  41.8522263   9.4180530   5.2022021  51.8968630
   9.8321432   4.8148101  52.6680183  10.1381629   5.6153529  51.4204407
  65.3685951  56.9203615  22.4523330  64.8278379  57.5753164  22.8937483
  64.9165678  56.7546892  21.6250157  82.1622467  62.6917744   8.7104726
  81.4207935  63.0634451   9.1883332  82.1639252  61.7659187   8.9534181
  59.0233994  72.4905729  36.0173368  59.9528074  72.6712370  35.8766580
  58.5811329  72.9322815  35.2924037  18.3978170  26.2332766  70.5806065
  17.7317756  26.1893981  71.2666798  17.9534286  25.9153312  69.7946930
  39.7116566  75.6500769  41.2898064  39.4621897  76.5288210  41.5758228
  40.5666828  75.7667255  40.8756161  42.6123333  77.1020031  33.1211209
  42.6779079  77.8757524  33.6808014  41.7372084  76.7548466  33.2939625
  59.2516796  29.1824286  16.2857270  59.8391334  28.8069003  15.6298971
  59.8001615  29.7949164  16.7758894  73.6280401  56.6296787   2.2192139
  74.4848176  56.4815921   1.8189187  73.8208123  57.0988197   3.0309910
  63.2039690  63.4520721  58.2228041  62.8278303  62.5762415  58.3103895
  63.6426449  63.6090565  59.0589571  46.0255671  57.8996420  49.3121433
  46.6277504  58.2470322  48.6541700  45.8733416  58.6328363  49.9083662
  34.0305600  40.4252643  12.8846068  33.7692628  41.2103767  12.4034018
  33.3484778  39.7840042  12.6851554  81.3535404  53.7301016  70.2176952
  81.0024261  53.5277700  69.3505096  80.6704140  54.2537260  70.6364918
  72.5038576  64.6866751  69.9545145  72.1646309  63.8940477  70.3703213
  71.7521238  65.0535202  69.4891596  56.3384000   5.8628505  39.4281220
  56.0512892   6.7744963  39.4800186  55.6747595   5.4330771  38.8885736
  11.4780188  63.5998154  40.6248426  11.9575989  63.3540249  39.8337531
  10.9632683  62.8231096  40.8439112  55.0814247  62.6675272  22.9240775
  54.5786095  62.5939226  23.7352419  55.7334137  61.9691277  22.9822230
  11.9657264  27.9347009  13.3431048  12.7979884  27.6194925  12.9906649
  11.3030706  27.3965473  12.9100890  54.2158651  54.5786095  67.1081352
  54.9208736  54.1245174  67.5696516  53.9609289  55.2876568  67.6984692
  61.5206146  69.5932198  66.3564444  60.6849527  69.2089128  66.0914660
  62.0981741  69.4509888  65.6064939  78.1747238  15.6246226  20.0640845
  78.5270063  16.3830893  19.5984018  78.8825933  15.3520243  20.6479025
  64.1441011  48.5867453  53.7523842  64.1669512  48.0427170  52.9651451
  64.7702122  49.2890644  53.5764360  48.3052007  28.5755103  56.0448647
  48.7063483  28.8205664  55.2110434  47.4721471  29.0467780  56.0575438
  31.1933994  58.5487938  33.0528164  32.0611382  58.8303804  33.3425856
  31.2563396  58.5231972  32.0980310  36.1807942  67.6725531  30.7277155
  36.6760182  68.0752087  30.0143743  35.2716684  67.9185629  30.5568290
  75.1606417  80.8530140  68.9398432  75.3676176  81.6259098  69.4652319
  74.5941782  80.3253841  69.5028305   2.5747770   7.3644107  38.2037520
   2.4578136   8.1502288  38.7376428   3.4668201   7.0751040  38.3955789
  32.2087359  76.4252949  57.1180010  31.3108301  76.6851521  56.9119120
  32.6931143  76.5724850  56.3056278  10.8516893  15.4262418   0.6860489
  11.6732965  15.4543562   1.1763615  10.9082565  14.6221895   0.1697821
  35.6048625  15.0932353  17.4163651  35.8494609  15.8980601  17.8731585
  34.9746364  15.3759997  16.7537284  15.0067282  81.6523075  59.7387981
  15.5269051  81.1697388  59.0963268  15.2438390  81.2626266  60.5803204
  64.2776680  78.0361080  45.2349138  64.0178299  78.9173412  45.5035114
  64.8187590  78.1725407  44.4571972  72.7055875   0.2784293  49.9317455
  72.3863641   0.4516356  49.0461254  73.4117071   0.9118121  50.0599766
  13.4516382  66.6717720  26.6635728  14.3025732  66.3331079  26.9418693
  12.8647733  65.9174156  26.7162180  29.7758937  81.2270260  68.6645126
  30.3744078  80.7772064  68.0681229  28.9100218  81.0977077  68.2775021
  82.5702564   4.7179454  44.7797680  81.9901697   4.3858283  44.0946150
  83.0992500   3.9615195  45.0331688  43.1653690  53.9802027  40.9964895
  42.4190807  54.0055370  41.5953588  42.8468180  54.4026852  40.1988268
  30.7055354  70.2161360  64.4995546  31.2011647  69.9146700  65.2609348
  29.8882580  70.5551815  64.8647022  72.2463369  36.9812202  39.6207690
  71.7991686  36.1979198  39.3002844  73.1775713  36.7809272  39.5263243
  35.2268386  49.4715452  31.7912555  34.2760062  49.4859600  31.9005322
  35.3601217  49.1691923  30.8928943  46.2130213  75.0762939  50.9534550
  45.5329561  74.9247789  51.6098022  46.9559813  75.4159021  51.4523649
  60.3713481   7.2473948  42.5503826  60.7749097   6.8418162  43.3177662
  59.5129339   6.8294280  42.4821520  15.4275697  18.6632769  34.0967512
  16.0508054  18.0534976  33.7018204  15.3224653  18.3500045  34.9951053
  42.5016975  57.4557018  44.7887945  41.8991566  58.1626749  44.5577765
  41.9347525  56.7026901  44.9554634  81.9098193  36.9371103  59.2103701
  81.8914897  37.0188163  60.1639002  82.8348452  36.8120406  58.9984363
  55.9720373  69.0989494  39.0186548  55.0833988  68.7956619  39.2045903
  55.8630180  70.0126362  38.7549734  67.7449576  13.6088221  34.3823099
  68.2672755  13.0417865  33.8149571  67.7887479  14.4697612  33.9662576
  48.7943649  55.3879786  44.4238472  49.6457243  55.7150888  44.7143841
  48.1866932  55.6567049  45.1128674  21.1020780  67.1153116  37.7161717
  21.9931483  66.8010569  37.5629807  21.1349225  67.5140858  38.5857296
  22.4008441  55.6234550  10.8235669  22.2579098  56.5541363  10.6514227
  22.7652907  55.5967283  11.7082667  17.9849475  20.9822028  18.1852520
  17.1519416  20.9478896  18.6555278  17.8037494  20.5591910  17.3459291
  54.0437078  79.8794508  16.9862878  54.4538689  80.6285858  16.5540910
  54.7262192  79.2085028  17.0014858  44.4867039  59.2472601  45.2799702
  45.2775812  58.7830067  45.5542088  43.9274549  58.5668993  44.9050236
   8.7504055  40.3431654  20.6596351   9.3244316  39.6307325  20.3782678
   9.2586662  41.1381149  20.4985213  42.8867606  24.8777240  57.3936224
  43.7786500  24.6101516  57.1718740  42.7638153  24.5782225  58.2944059
  27.1621650  23.2818930  50.6940031  26.8825382  22.3742430  50.8131838
  28.0605930  23.2152312  50.3705740  29.6600580  60.7370663  29.9775648
  29.5745230  61.6904116  29.9704933  30.5834246  60.5809021  30.1756501
  21.4905351  12.4593299  59.6509027  20.9994739  12.0356314  58.9469385
  20.9687131  13.2292121  59.8772049  39.5472860  62.1170616  36.4816833
  39.7921634  63.0368137  36.5832806  38.7528372  62.0212936  37.0069551
  59.5826435  63.6658907  46.7861462  58.9548731  63.8876534  46.0984230
  59.2759037  62.8264093  47.1288061  55.1562872  69.3899637  56.6538661
  55.8349099  68.9604311  57.1746402  54.9148550  70.1622587  57.1652382
  19.8754847  69.3256378  16.3897038  19.9211800  69.6661043  17.2831404
  19.1161191  68.7429094  16.3939989  32.6650286  67.4727774  37.3664117
  31.7418623  67.2777224  37.5274897  32.8867102  66.9581175  36.5903878
  77.8996849  75.7879448   6.2834281  78.0043840  74.8608303   6.4972615
  78.2871962  75.8781958   5.4128420  67.2985427  -0.2487046  38.3900619
  66.5582005   0.1148646  37.9043221  67.6681272   0.4995673  38.8588142
  73.2956163  26.9898360  71.0189199  73.7485592  26.7204707  70.2198458
  72.3929922  26.6972773  70.8928156  45.6634045  68.5596800  69.7484207
  46.5295076  68.8647604  70.0186539  45.4977989  69.0113497  68.9208984
  75.6564713  71.3395166  37.5352120  74.7433233  71.1315823  37.3373318
  75.6990242  72.2948599  37.4935508  61.5771166  17.4704974  38.0481267
  61.6226308  18.3082717  38.5088897  62.3680417  17.4501841  37.5093722
  29.1829300  66.8400669  54.7190905  29.6671677  66.1007309  55.0866890
  28.5606456  66.4404392  54.1113997  81.9812012  70.5258131  10.7911813
  81.7308617  70.0272274  11.5689826  82.9375553  70.5524635  10.8213198
  46.2412357  51.4018297  42.2152185  46.3549232  52.2677946  42.6068926
  45.7337523  50.9112692  42.8617811  16.4973676  66.3802290  63.0042696
  17.2675300  66.1177731  63.5084486  16.5281200  65.8344936  62.2184849
  81.5744972  81.8081188  70.3697014  81.9733620  81.3186073  71.0890865
  81.4297009  81.1539078  69.6861267  56.7069864  72.4412203  46.2890339
  57.2236729  72.4091005  45.4839039  57.3566294  72.4177027  46.9916296
  67.4953032  50.6751728  46.9033241  66.9886494  51.3216591  46.4118052
  67.8842688  51.1724138  47.6228237  37.0722723  72.5657988  64.7704077
  36.7704749  71.8719053  64.1841793  37.1162629  72.1497297  65.6313229
  84.8393003  29.3778460  61.0140514  85.2273885  30.2513545  60.9629250
  85.2155630  28.9945929  61.8063736  61.6816235  78.5052299   4.8769206
  62.2674942  78.0905342   4.2436644  60.8026075  78.2709265   4.5791519
  55.7970238  77.3580074  58.6425686  56.4403296  77.9551840  59.0243721
  55.6551552  77.6929903  57.7571917  33.3848224  18.2523412  12.4645609
  32.7051244  18.0718727  11.8151946  33.7648139  19.0862579  12.1881194
  36.3016939  57.3496819  39.2928076  37.1236229  57.2880173  38.8061237
  36.4711523  58.0080509  39.9666500  30.5046272  77.0568848  68.6633730
  30.4130030  76.2836313  68.1066704  29.8307419  76.9499111  69.3346882
  54.6647358  80.8519459  46.7234087  54.6683645  81.3399315  47.5468731
  55.4013729  81.2111664  46.2288809  50.3880930  53.8840723  60.1240778
  49.9807549  53.3204269  60.7818079  49.6533585  54.2327404  59.6192741
  75.6082861  28.3680575  24.3135858  74.8644773  28.9554637  24.1796470
  75.4132835  27.9183047  25.1357388  62.1419239  80.2411652  43.1234550
  62.2833824  79.5435810  42.4834633  63.0197573  80.5697441  43.3175659
  86.3796751  10.5836528  62.3462582  85.5303995  10.8949511  62.0331144
  86.9555132  11.3447802  62.2733021  28.1242681  59.4277620  31.5674353
  28.5339999  60.0167179  30.9338069  28.2070780  59.8826075  32.4055839
  29.8131108  73.5670233  48.6311102  30.7044768  73.2883310  48.4212780
  29.2636704  73.1138277  47.9916096  17.2068399  16.3247054  53.6997747
  17.4451393  15.5970042  54.2741489  17.3111576  17.1043914  54.2451620
  74.3798780  71.3638210  21.1402130  74.0560198  72.2007656  21.4731979
  74.4934464  71.5076303  20.2007174  74.5496464  50.5637360  31.2407637
  75.1356840  50.4420090  31.9877410  74.5126677  49.7034645  30.8226705
  44.2167759  57.1618128  42.7564192  43.8119268  57.4098444  41.9252729
  43.5199022  57.2692537  43.4037638  77.7958624  29.5531695  45.0901890
  78.2652322  30.1651328  44.5232534  77.4364607  28.8990157  44.4909048
  66.6265059  79.0606022  54.3768835  66.3204432  78.8376236  55.2559948
  66.1779070  78.4400415  53.8025188   6.3100326  61.1996078  48.6096096
   6.4361548  60.2838373  48.3612442   6.1413962  61.6510344  47.7825642
  60.3584242  71.8057775   6.8324697  60.1678228  71.2239456   7.5682539
  59.5557833  71.8032169   6.3109380  38.0517864  66.5862751  70.2582932
  38.4909749  66.6849661  71.1030436  38.5944247  65.9610319  69.7778273
  63.5906887  54.8306704  65.9819651  64.1148472  55.4026842  66.5425825
  64.2067003  54.5119286  65.3222942  58.8086033  72.2189856  48.3928108
  58.7227535  71.3561630  47.9873419  58.1838894  72.2060919  49.1179323
  41.8667889  58.0168247  34.6758056  42.8108644  58.1067467  34.8056817
  41.4791059  58.4035492  35.4609060  52.7756071  66.0330105  38.4434652
  53.0908871  66.8994808  38.7004900  52.7021074  66.0779524  37.4901509
  23.2738624  47.7299518   2.9439778  23.9568601  47.4788208   2.3221440
  23.1894431  48.6774368   2.8372950  84.0242767  64.4392586  48.3108425
  83.4717846  64.5636606  47.5391483  84.3253422  65.3199577  48.5343599
  35.1731716  19.8682349  55.8187294  35.6095497  19.0949481  55.4611874
  35.8792220  20.3815882  56.2114048  63.8595263  11.6397612  32.3033309
  63.9802066  12.5573581  32.0590377  63.1695310  11.6572135  32.9665303
  22.2801113  72.5430250  59.0072870  22.7974892  71.7415190  58.9289141
  22.9086089  73.2493687  58.8579512  32.5360131  65.9219551  60.1138735
  32.7356696  66.8580484  60.1237297  33.3508396  65.5062199  59.8319960
   0.6658875  65.7687187  47.5213575   1.4852893  65.8160400  48.0138731
   0.7742084  65.0094795  46.9485950   6.6940832  35.3975844  24.9840760
   5.7979488  35.7338452  24.9942613   6.5948105  34.4488335  25.0631309
  43.1858889  24.1172164  66.3200808  43.9606825  24.0887873  65.7587242
  42.5049392  24.5031398  65.7690811  30.3060746  61.2739706  13.3333695
  30.7725739  61.5609121  14.1184020  29.7276211  62.0054817  13.1176960
  76.4259325  73.0841064  55.2631998  76.8662350  73.8110685  54.8228645
  76.9873886  72.8820276  56.0116386  31.4617920  73.5734987  63.0111504
  31.3128138  73.7377357  63.9423132  30.8404040  72.8805304  62.7877474
  16.9418097  62.8222752  20.9703040  16.0044014  62.6374578  21.0280895
  17.0424080  63.6809492  21.3811493  41.3394260  66.2919569  53.9383602
  41.2852764  65.6183052  54.6162176  41.8600893  66.9900894  54.3355370
  53.5257570   6.4521640  22.3006439  53.4828250   5.7645457  22.9651523
  53.9995925   6.0516112  21.5717626  31.4175367  74.0636396  44.0789795
  31.5098453  74.6310663  43.3136415  31.6929483  74.6088362  44.8159599
  42.4522018  55.3107643  54.0802813  42.3270178  56.1827374  53.7058258
  41.7858458  55.2459526  54.7643852  79.3039409  42.1880286  56.2600470
  80.1666633  42.5868838  56.3733768  79.1479389  42.2188609  55.3161478
  13.5141444  78.4194469  47.6741123  13.6617935  79.3239355  47.9504013
  13.0200052  78.0268145  48.3937645   8.3340907  48.6786079  26.9534254
   8.4787416  48.5933161  27.8957796   8.1942177  49.6155643  26.8164110
  31.3040107  10.3824942  20.8629251  32.1810573  10.0555079  20.6626964
  31.1417240  11.0540335  20.2004051  69.4590139  73.4628677  43.8307714
  69.5030260  74.0461206  43.0730677  68.5240459  73.2969093  43.9512825
  16.3963032  60.7856274  28.7403965  16.0911572  59.9972534  28.2914114
  15.8162892  60.8699369  29.4971704  81.5734474  13.5072272  55.6614065
  81.0868303  14.3214171  55.5328131  81.1065380  13.0578559  56.3658857
  84.4704421  56.4956970   0.5085940  84.6533283  55.5595417   0.4286236
  84.3147691  56.6303272   1.4434046  47.6120472  65.2252150  21.9104028
  47.8719234  64.8857737  21.0539699  46.7239094  64.8927307  22.0403790
  25.1560552  11.2344020  56.8594313  25.4391314  11.5071528  57.7321911
  24.2190201  11.0634177  56.9541073  65.3759567  10.3319114  44.2884350
  66.1494867  10.6150954  43.8008976  64.6367995  10.6117480  43.7484598
  67.2036123  68.8992119  28.6451888  66.4666653  69.4076681  28.9837384
  67.4562645  69.3507242  27.8398705  22.9678903  52.4780578  27.8509612
  22.8300033  51.6903514  27.3249049  22.3761735  53.1269855  27.4701685
  41.7478848  79.2989206  48.3471489  40.9345150  79.7098827  48.6400080
  42.1718550  79.0054798  49.1536093  10.0955701  47.1866369  49.5489979
  10.8877385  47.4357653  49.0729332  10.3806674  46.4901686  50.1405048
  80.2071285  78.1662130  37.4296045  79.8729658  78.6599874  36.6807723
  81.0372734  78.5910702  37.6454639  82.2278301  32.1598285  46.5596247
  83.0684892  32.4036830  46.9469929  82.1952573  32.6432936  45.7341290
  30.9332871  79.0592957  32.9765081  30.8161378  79.5006657  33.8177562
  30.0969696  79.1766930  32.5259256  38.7772012  69.7551489  39.6020055
  38.9963698  69.4235182  38.7312484  37.8222442  69.7049522  39.6440530
  36.8639646  61.8137569  11.8667216  36.8932710  60.9122867  12.1872134
  36.7675290  61.7277546  10.9182829  27.6339841  28.3362031   6.6305763
  27.1131039  28.2894397   5.8288741  27.3779345  27.5596476   7.1282017
  49.6010296   3.6141341  50.0756359  49.3044035   4.4408362  49.6950960
  49.9740450   3.8602965  50.9220982  81.6843073  10.9657042  33.1959820
  82.3342411  11.5307753  33.6137223  81.8595401  10.0948470  33.5525441
  26.0264648   6.7831366  56.9217396  26.7990209   6.4385360  57.3696709
  25.3335784   6.7525714  57.5814390  43.4648991  62.1656561  22.8969359
  42.9983664  62.1332598  23.7321162  42.7769613  62.2891760  22.2429371
  66.6710424  59.8212576  28.1132412  66.1781883  59.6602154  27.3086357
  66.9423819  60.7369232  28.0486965  41.0799456  81.1953640  35.7369614
  40.6658173  81.5486336  34.9496078  40.3859854  80.6983757  36.1701560
  42.7759743  61.8537045  66.9382334  42.5554323  62.4432325  67.6593733
  43.3374405  62.3758268  66.3651943  65.0175476  62.8719521  69.1204500
  64.4754124  63.3350420  68.4817982  65.5085897  62.2353506  68.6009836
  75.4813711  10.0279372  56.4299440  75.6331293   9.1286795  56.7207146
  75.6952182  10.0173037  55.4969978   3.0974420  43.5088847  43.6392265
   3.4780463  44.1576408  44.2312437   2.4674877  44.0034412  43.1150084
  66.5655104   4.9050467  64.7948503  66.4154307   3.9618247  64.7311926
  65.8215109   5.2973311  64.3378973  36.1919951  68.1569099  57.6146078
  37.0941281  68.2837534  57.3208380  35.7788134  69.0120745  57.4954319
  14.4567430  66.2114573  18.7738109  14.2744005  67.1491480  18.8348186
  15.3937566  66.1373997  18.9547849  65.5300236  79.0301895   8.5554731
  66.2364531  79.6622181   8.4223348  64.9859381  79.1105509   7.7720535
  44.7558117  39.8907471  59.8874998  45.3567600  39.5099783  60.5278969
  45.3242445  40.2155018  59.1891813  30.4874024  50.4815597   0.2014489
  29.9689708  49.8262233  -0.2654510  29.9349961  51.2632484   0.2086777
  41.7862272  69.4414711  33.5013843  41.7785835  70.2234602  32.9494190
  40.8650923  69.1922569  33.5764313  31.2687421  71.6822338  42.8641224
  31.9312859  71.0871744  43.2150841  31.5195537  72.5435972  43.1978607
  26.2535558  60.0778312  13.7430090  26.9507918  60.1056022  14.3982310
  25.8522878  60.9459228  13.7833113  33.5673809  77.0398521  36.2244081
  33.1975436  77.9059458  36.3956761  32.8057241  76.4787340  36.0785961
  34.5932364  65.3131342  54.9035501  33.8942194  64.9431133  54.3643904
  35.2804399  64.6468687  54.8950624  39.8027277  56.2659264  40.4939413
  39.5543814  56.5439987  39.6123338  39.9170494  57.0828867  40.9794664
  65.1850128  68.0899096  48.6074734  64.4431305  67.4852228  48.6215878
  64.7866392  68.9557362  48.5187387  80.4732601  12.7973216  49.8337841
  80.7713977  13.1683486  49.0033102  79.5847980  13.1365245  49.9424314
  70.3787661  63.2645130  68.5332870  70.9251881  62.8303766  67.8781652
  70.6935978  62.9247904  69.3709612  40.5748081  73.0309391  19.3880939
  40.1667452  73.3635569  18.5886657  40.9233379  72.1744823  19.1406250
  17.4470705  11.1818450  35.4402232  16.5947526  11.0997241  35.8680630
  17.9747098  10.4796736  35.8207321  61.2202088  28.7319987  29.3627954
  62.1576730  28.8003104  29.1819048  61.0874526  29.2680304  30.1446319
  40.8085155  67.6156807  30.4739213  41.6710091  67.2018719  30.4407334
  40.2572155  67.0652628  29.9177408  52.5394201  63.7282848  56.2340450
  52.9600954  63.6224174  57.0873070  52.5537014  64.6721411  56.0754204
  66.5687132  62.7191401  42.4246883  65.9691811  62.1408224  42.8962135
  66.4144278  63.5844851  42.8036356  43.5591125  44.1456509  26.3160563
  43.1687260  43.6975622  25.5656934  43.3488894  43.5871553  27.0644712
  82.0642511  -0.0378663  33.5125208  82.5435154  -0.0200040  32.6841402
  82.2734872   0.7985156  33.9283681  54.2798662  60.7893610  63.1013870
  54.3627930  61.5835810  62.5735807  53.3858871  60.4873037  62.9407740
   1.0423048  24.3675254  69.0465067   1.0839947  23.6860393  69.7173792
   0.2031358  24.8021959  69.1984650  83.6444799  19.2682975  52.4145412
  83.2259218  19.0784209  51.5749025  82.9394476  19.6166365  52.9602718
  64.9308650  74.3901040  11.6616339  63.9787189  74.4847180  11.6880507
  65.2642099  75.2506496  11.9157500  80.0018779  16.8279116  62.9148674
  79.5587389  16.1472171  62.4083900  80.8357803  16.9578593  62.4632597
  82.9675730  26.0096998  15.3023429  83.3075555  26.3327808  14.4679160
  83.4840520  26.4682455  15.9650702  27.8242874  51.2713289  45.5416822
  28.6909223  51.0546970  45.8855534  27.8675127  52.2095680  45.3571033
   5.3014042  73.6210537  32.5285840   4.5515205  73.7390757  33.1116676
   5.9171821  74.3061876  32.7886486  53.6217022  65.4555893  50.0500584
  53.5825443  66.2653446  50.5589771  54.5544338  65.2450275  50.0063705
  64.0967703  59.1185856  34.2013645  63.1917381  58.8914013  33.9879632
  64.1178322  60.0749779  34.1681957  20.3480697  70.5630541  18.7712884
  20.6024170  69.9100733  19.4233298  20.5470872  71.4035749  19.1837800
  81.0466043   0.4368251  29.8575330  80.3899852  -0.0412137  29.3510151
  81.3083879   1.1602633  29.2880273  47.1608052  13.3582277   0.4243226
  47.0322785  13.1529731  -0.5017333  46.2772594  13.5051317   0.7619567
   3.9628364  46.9015551  16.3894379   3.8996746  46.5830088  17.2898674
   3.0817367  46.7882967  16.0329545  83.9921657  15.8401530  21.3534617
  84.1024009  15.0451606  20.8318639  83.1754581  15.7007735  21.8328261
   9.8891920  19.7362941   3.5446548   9.8563999  18.8216536   3.2643294
  10.6393283  20.1034014   3.0769396  36.4052486  52.3214674  26.0946417
  36.9507003  52.9099989  25.5727792  37.0028663  51.6296959  26.3784409
  54.7382847  26.2773936  56.2891626  53.9401142  26.8031352  56.2366390
  54.9907366  26.1334746  55.3771353  82.6461594  46.6828871  21.8797565
  82.1768294  46.5927792  21.0503960  82.7416174  45.7857800  22.1996355
  48.6562792   9.8871463  44.8147058  48.2679264   9.5384448  45.6170940
  49.4087402  10.3970473  45.1147604  77.2373430   0.1231044  33.6502457
  76.6359226   0.8665126  33.6069870  77.9179613   0.3280299  33.0091548
  60.4532528  79.0428686  49.1264772  60.7918882  78.5866165  48.3561563
  61.2200928  79.1722822  49.6845484  50.5508089  72.8059292  47.6085949
  49.6198511  73.0071974  47.7036715  50.9355545  73.0485868  48.4508085
  30.3400230  55.9474802  35.8514857  30.6136942  55.1171589  36.2412357
  29.3835258  55.9194708  35.8752203  26.0163007  61.4146156   2.7911467
  26.1850772  61.5046901   3.7290330  25.0884662  61.1859817   2.7356238
  79.9628536  23.6393969  60.8733463  80.4413644  24.4210379  60.5971241
  80.3437845  22.9299968  60.3557873  49.6349231  28.9861911  20.7000303
  49.1003338  28.2364981  20.9615612  50.3591673  28.9938777  21.3258457
  27.7927059  44.6229880  16.2800276  27.8496307  45.2544539  16.9971335
  27.9733604  43.7773936  16.6905963  79.1604034   6.6687339  56.2397766
  80.0401394   6.4718859  55.9179974  78.9896003   7.5613349  55.9392452
  51.7331123  60.6504965  57.7778959  52.2666979  61.4431524  57.7211761
  51.5313816  60.4319620  56.8680716  33.8777447  67.6565838  56.0599232
  33.8661051  66.8176746  55.5991316  34.6492290  67.6090384  56.6245317
  54.6508598  80.4053116  60.1923466  55.5464792  80.0972557  60.0537729
  54.6459627  81.2945843  59.8382425  23.0705303  10.7434790  47.9867029
  22.9493183  11.3693946  48.7006760  22.1961969  10.3869002  47.8297567
  76.5904180  13.9999335  52.8856802  77.0771543  13.4210055  52.2990274
  77.0187847  13.8951915  53.7352467  52.9722732  29.9940627  59.0697718
  52.5647300  30.4046004  58.3071423  52.8468841  29.0551703  58.9319611
  21.0003942  10.8443110  31.8171120  20.2962011  10.5584567  32.3990345
  21.7868179  10.4285853  32.1705866  68.7383604  74.8536587  61.0088205
  69.2599297  75.1126766  61.7684984  69.0314817  75.4353762  60.3074503
  76.6268198   6.4974635  46.6645479  75.8778183   6.1105578  47.1179152
  76.8434612   5.8663886  45.9782219  67.8630066  70.5144596  23.8561440
  67.1804523  70.2699804  23.2311773  67.6055717  70.0852108  24.6720505
  20.4932016   1.6146605  26.8374276  20.3930276   0.7031291  27.1118546
  21.3425916   1.8791812  27.1907020  54.9510781   4.9041121  70.4693604
  54.7214762   4.1565841  69.9173450  54.1386525   5.4046195  70.5448246
   9.1237873  14.2192786  53.7337351   9.0142721  13.5938208  53.0174637
   9.0630859  13.6875861  54.5273685  59.1244698  64.7079515  59.5734596
  58.8137293  63.9286089  59.1127014  59.5112848  65.2530050  58.8882399
  84.4954816  29.1179889  34.8113441  83.8762418  29.4479316  35.4624295
  84.2482320  29.5609133  33.9996076  47.3010969  64.8882055  52.8433323
  47.4534941  65.5240488  52.1442556  47.8716707  65.1748848  53.5564137
  -0.2145432  76.0424232  53.7539577   0.1725437  75.3803682  53.1811666
   0.4351093  76.7448664  53.7813187  75.2038280  19.0813296  45.1964998
  76.0386984  18.7970202  44.8244810  75.4226581  19.3716662  46.0819674
  48.5468245  76.4475203  44.0910292  47.9066324  76.5932846  43.3945084
  49.1815853  77.1560907  43.9850330  23.6526912  15.2077334  21.1676240
  24.1901821  14.6418708  20.6134176  24.2689651  15.5811637  21.7976904
  40.9114394  33.4039707   5.6424517  40.2650390  32.9956216   6.2183375
  40.9073339  32.8605957   4.8544449   0.8040565  13.2233851  51.8446207
   0.1518005  13.9002173  52.0254040   1.4149946  13.2771151  52.5795364
  34.2637620  31.5421409   9.2585225  34.5523677  32.4501581   9.1666407
  33.3763728  31.5353984   8.8997359  12.6038259  15.2922671  51.7931414
  13.3381742  15.3952830  52.3984098  12.9681676  15.5101817  50.9352350
  13.8110004  40.5112762   0.8866448  13.7981067  39.7730751   1.4958472
  13.3662734  40.1842613   0.1046509  83.3766842  80.8465290  29.4539189
  82.9598236  80.5032635  28.6635876  84.2461014  81.1237907  29.1649985
  53.5193443  75.6514215  62.3137951  52.9193354  75.2035236  61.7174625
  53.7190962  75.0002623  62.9863405   9.6039241  16.7470591  46.7506313
  10.2464574  16.2656253  47.2717857   9.4793933  16.2100165  45.9681368
  17.4343562  70.3529024  32.3043776  17.9127359  69.5847750  31.9923401
  18.0704677  71.0666132  32.2573972  71.3392965   3.7679045  45.2440214
  72.1952478   3.8656943  44.8268700  71.1987154   4.5978492  45.6997204
  60.7008791  50.1000595  44.3602943  61.2598467  49.3953085  44.0330172
  60.6432390  50.7180500  43.6315966  65.3697681  68.4171391  56.4460182
  66.2012911  68.8708162  56.3082600  64.7047806  69.0445089  56.1624193
  14.7521347  38.3306353  61.2287092  15.6969160  38.1772845  61.2184763
  14.5257657  38.3690017  62.1579599  33.5095668  68.6004686  60.0472069
  33.1561422  69.2826843  59.4763279  34.3126893  68.9794159  60.4044485
  18.9706597  29.7021551   5.1463027  19.1857658  30.6251449   5.2806611
  18.2666097  29.5269556   5.7706828  23.4917927  62.0969057  35.6982231
  23.8166857  61.4707470  36.3452196  24.0163565  61.9267941  34.9158359
  74.9401999  57.6250076  23.3567071  74.5860577  57.5339603  22.4721003
  75.1677847  58.5519171  23.4293580  70.8541052  12.3552172  56.6081333
  70.7670490  11.5146106  56.1586571  70.2672998  12.9430812  56.1324215
  24.9560874  10.4014914  42.4032879  24.6738380  11.2791198  42.1457195
  25.1348728  10.4729502  43.3409262  64.1664735  12.4202101  37.1060896
  63.2163827  12.3847335  36.9951773  64.4696681  12.9850428  36.3952708
  59.7314644  60.6640005  34.2126203  58.7964630  60.8482838  34.3023014
  60.1635075  61.4067221  34.6344447   5.1751238  44.0865517  40.4605770
   6.0157210  44.5264196  40.3335190   4.9399379  44.2770910  41.3686562
  43.5803270  64.6411419   7.9276794  43.1497812  64.1440392   8.6231971
  44.2983389  64.0774679   7.6396507   9.5565885  26.9550078  64.2405272
   9.9062389  26.9292109  63.3498478   9.3858140  26.0384887  64.4574356
   4.2616266  10.7084983  56.0837793   4.6119970  10.5709784  56.9638681
   3.5182041  10.1083701  56.0254669  86.2126295  30.5894416  44.1530132
  85.8026592  31.4216655  44.3887281  86.3003246  30.6269305  43.2005739
  24.2101615   7.0707457  59.0072155  23.4750122   6.5710776  59.3623495
  24.7105449   7.3406928  59.7772694  13.3581251  11.7406791  50.9806824
  12.5016206  12.0381778  51.2874699  13.9356369  12.4916785  51.1174345
  59.9612951  54.2874432  44.0329504  59.9352503  53.8271236  43.1941032
  59.1414690  54.0461588  44.4641161  31.3024364  60.1583213   8.8962407
  31.8502174  59.3735904   8.8772149  30.6524835  59.9802990   9.5760150
  84.5906830  54.0747499  64.1073895  84.0908337  53.7872458  63.3433723
  85.3539181  53.4973669  64.1253948  55.3449726  77.6536465  37.7094603
  54.7939777  77.5380945  38.4835958  56.1370230  77.1518898  37.9021573
   9.3948549  19.9457972  27.2788262   8.8769096  20.7339041  27.4427247
   9.2169565  19.3814986  28.0312538  44.1119522  30.4393904   9.1097307
  43.5153335  30.9100478   8.5276908  44.6904510  31.1173766   9.4588697
  26.9121313  68.2090282  24.2743254  26.2187195  68.5191250  24.8567772
  26.7497659  67.2697067  24.1875076  12.0570224  10.7228511  56.7180586
  12.0440334  11.3597243  56.0035992  12.9765552  10.4684966  56.7954969
  74.4557285  62.8137207  45.7299137  75.3527641  62.4831820  45.6819630
  74.1953421  62.9331732  44.8165894  17.4338001  27.9643958  45.9167004
  17.0233100  27.7576773  46.7563438  18.2826656  28.3395713  46.1510181
  41.2658725  64.8117752   6.1659903  41.8582473  64.6008319   6.8876738
  40.3912149  64.7616405   6.5515990  31.6076183  75.9565783  51.8463421
  31.5773296  75.5350971  52.7052164  30.8046627  75.6706238  51.4107656
  22.0377707  54.0747356  46.0701609  22.1056724  54.2727280  47.0041943
  21.6424918  54.8579931  45.6874132  72.7369825  29.0547316  20.4487300
  72.6388399  28.1195491  20.2697802  72.7557460  29.4634955  19.5834017
  75.3643886   0.2935927  39.9501634  76.0360233   0.5443232  39.3159199
  74.8115389  -0.3302152  39.4795823  55.0678158  42.0193291  70.0052691
  54.3873167  42.6190186  70.3110790  55.0363445  42.0879173  69.0510464
  77.4237434  17.1126979  53.4182119  77.2559539  16.2062018  53.1606483
  78.0665104  17.4272578  52.7824879  45.4449940  65.1945496  56.2816334
  46.2399769  65.5718994  55.9050083  45.4231262  64.2983055  55.9462261
  35.3538299  75.1194000  57.1930552  35.5378318  75.0630999  56.2553930
  36.2089372  75.0192451  57.6113749  58.4327118  15.4627269  66.1765051
  58.8650767  15.0739615  65.4161358  58.9302818  16.2612288  66.3526917
  42.5017118  68.5474110  44.0070963  43.0409098  68.2269287  44.7301435
  41.8952322  69.1648579  44.4159651   0.8845800  12.8691428  62.0966387
   0.3403562  13.5364955  61.6786861   1.7678207  13.2378619  62.0838308
  15.7872909  12.2215121  53.9290047  15.8898633  11.3911670  53.4639978
  15.6079286  12.8613131  53.2400036  70.8417408  31.7682593  50.8190870
  70.2516452  31.2080996  51.3233042  71.5090553  31.1707633  50.4815722
  37.9822087  70.4344177  26.3501596  38.0751443  71.1999226  25.7830644
  37.4244308  70.7343578  27.0679021  68.0531923  14.0728705  23.0539012
  68.5194794  13.2411139  22.9703450  68.6766354  14.6542781  23.4892392
  24.9342618  53.5414810   4.1986079  24.6113858  54.4384880   4.1127438
  24.8246751  53.1629486   3.3262963   4.4033577  32.7461243  56.9270897
   3.8119652  32.9868388  57.6402092   4.0467789  31.9255543  56.5868711
  18.9141226  67.9663754  31.2175250  19.3139434  68.1592607  32.0655632
  18.4110546  67.1657658  31.3664603  57.5411336   9.3602793  70.7829285
  57.8366605   9.5366996  69.8897457  56.6523830   9.7142546  70.8154631
  66.9159365  63.5047674  52.5137901  66.6382742  63.6648798  53.4157324
  67.1774912  64.3657064  52.1872902  15.8650630   0.5116217  33.0997872
  15.9688467  -0.3481729  32.6920938  16.7328638   0.9111636  33.0404282
  15.3129619  44.9096530  39.7235656  15.5089038  45.3558104  40.5474472
  15.9184450  44.1685813  39.7026181  27.8642058  80.6500149  43.3354282
  27.3904276  81.4770985  43.4231281  27.3538113  80.1478100  42.7001905
  42.9771566  62.8969622  29.0000463  42.2372198  63.4222269  28.6953759
  42.9766035  63.0109739  29.9504328  48.5655785  67.1964502  61.5201616
  49.0193653  67.7228260  60.8619547  49.2613077  66.6999435  61.9510698
  45.0463631  79.0452528  41.9177246  45.3469326  79.0969706  41.0104132
  44.1633941  79.4143724  41.8989468  13.3715290   5.6744426  25.5307627
  14.1521972   6.0460990  25.9414387  13.4631294   5.8905642  24.6027899
  30.1973987  52.7368927  43.6843157  29.4445872  52.3375750  43.2483673
  30.3537846  52.1819973  44.4484234  38.4181581  46.0283012  15.3248496
  38.5772882  45.4889125  16.0994238  38.4812532  45.4175014  14.5905680
  66.0191003   7.9356711  21.3594437  66.5699307   7.2634261  21.7605734
  65.7430331   7.5534385  20.5264258  14.7707075   1.5022986  58.8072681
  14.6619123   0.5634825  58.6555529  14.5066064   1.9103663  57.9826689
  75.8164446   8.6945575  10.0690615  75.9623901   9.6387999  10.0112557
  75.6570713   8.5333197  10.9990275  18.4155744   4.6714824  62.6470661
  17.9734510   3.8484137  62.4389267  17.7520793   5.1918738  63.1000519
  23.8880580  20.2449553  51.5927267  24.3877166  19.4326918  51.5103436
  23.2181495  20.1841872  50.9117174  63.8095395  17.7401870  22.3914957
  62.9343263  18.1253379  22.3480177  63.8800828  17.4061911  23.2857561
  77.8926794  26.0690062  57.6883507  77.3893158  25.5538123  58.3187723
  77.5004903  25.8598464  56.8406057  33.6144519  76.9387960  54.6864414
  34.4531107  76.4785719  54.7193146  33.0526519  76.3751888  54.1545010
  15.2942604  10.4127352  29.8189211  15.6381553  10.2490943  30.6970954
  14.9171394  11.2910788  29.8692107  83.5690443  18.9972728  69.4760847
  83.8337175  19.9150031  69.5389271  83.2616893  18.8978045  68.5750484
   8.7271207  20.0195735  31.9552517   8.2625764  19.4522136  31.3400030
   9.0512031  20.7418196  31.4171481  66.8892519   1.2184756  28.0841112
  66.2428347   0.8376448  28.6785412  67.1702806   0.4864829  27.5350738
   6.0931160  76.5280247  45.8099031   5.8542396  77.4123287  46.0877037
   5.2577450  76.1064529  45.6082630  85.2424717  66.3228989  30.5825019
  85.0468159  66.6857624  29.7186279  86.1966133  66.2486267  30.6005931
  41.0965866   7.1635573  42.6745558  41.1230892   6.7400401  41.8165588
  40.3227371   6.7943805  43.1000948  80.6920528  78.0774021  50.0066233
  80.5074024  77.1885824  50.3101540  79.8305273  78.4865284  49.9252319
  59.6660519  77.2728968  16.3509774  60.1375008  77.9115772  16.8858159
  58.9731359  76.9452667  16.9243538  47.7994197   8.9481108  47.4499989
  46.9385379   8.6825125  47.1266079  47.6120037   9.6174281  48.1081200
  64.0577841  66.9698763  60.5494213  63.3923769  67.4594259  61.0329580
  63.9035654  67.1975374  59.6325684  57.3584072  13.7633269  54.7254705
  58.2783906  14.0270369  54.7074556  57.2952310  13.0695193  54.0690708
  73.9006321  54.9880831  16.1197007  73.9210741  54.3797629  15.3809440
  74.3057720  55.7873385  15.7831120  11.3400795  54.9682140  16.7515850
  11.4253570  55.8405542  17.1362615  10.4417183  54.7050953  16.9514477
  11.3376087  27.4069636  16.1203635  11.5701192  27.8020327  15.2800727
  12.1460479  26.9927352  16.4221454  83.6379997   2.0128958  48.0045938
  84.4796650   1.9550364  48.4567928  83.1468717   2.6713603  48.4959745
  73.0761337  53.7908173  26.4858508  73.1185818  54.3070602  27.2907901
  73.8135958  54.1033268  25.9617186  64.1328780  20.3401702  24.0163302
  63.8274471  20.6563037  23.1660318  63.3318297  20.1958888  24.5200515
   3.2977670  18.5272830  18.3450544   3.7888521  17.9673140  17.7438104
   3.0919307  17.9591315  19.0873933   8.4515947   5.0187438  25.5139661
   9.2377418   5.3541987  25.9448600   8.7828773   4.5056288  24.7769475
  24.6503212  77.1692991  29.5785856  24.3078567  77.2380829  30.4697752
  25.0277950  76.2907887  29.5341945  75.9207241  16.4159434  32.8267074
  75.3466503  17.1818869  32.8239322  76.2559597  16.3646453  31.9316006
  35.2953672  81.0597324  58.4193707  34.4038844  80.7112789  58.4108448
  35.6841540  80.7429409  57.6040649  73.4988634  37.2927516  44.1173744
  72.8410045  37.3572200  43.4250641  73.1793586  37.8753417  44.8063850
  16.9987633  66.1476517  31.5484190  16.4171745  66.1102295  30.7890844
  16.7975189  65.3535986  32.0436096  78.1756393  21.5298121  67.1111298
  77.5086824  22.0601504  66.6750813  77.9437009  20.6269686  66.8935966
  50.0091362  67.8561544  25.0984955  49.3752623  67.3218822  24.6199703
  50.8071470  67.8101206  24.5719123  76.5519754  13.1044810  22.7715659
  76.4836685  13.8586562  23.3570361  77.3884479  12.6989978  22.9998970
  86.4164726  14.6283953  67.1701622  86.5131513  14.0387576  66.4223528
  86.2997429  15.4941790  66.7789888  14.3128150  10.2328341  37.7558112
  14.2950529   9.4765513  37.1693397  14.3778509  10.9878867  37.1710849
  68.9365053  77.4570942  44.8089123  69.2079496  78.2094240  44.2830420
  69.5245743  77.4680424  45.5640888  12.8849721  66.3630390  37.9715157
  12.4770010  66.5697861  38.8123751  12.2098410  65.8864832  37.4884772
   5.8307260  23.5628932  49.2248106   5.7306331  22.6169818  49.3318653
   6.2954086  23.6620467  48.3938646   0.3620332  10.8258097  47.5317192
   1.0466903  11.1741774  48.1027794   0.8336299  10.4915278  46.7687750
  13.2917454  79.5694590  62.9318237  12.4623443  79.8928213  62.5800323
  13.4961750  78.8026142  62.3966646  51.7527056  73.3019400  37.7436566
  52.0729494  73.2848024  36.8417811  50.9706974  73.8528919  37.7097130
  20.9671157   9.8700850  20.4042697  21.2694496  10.0689738  21.2904239
  20.3559297  10.5765670  20.1955199  59.2260210  34.9118655   3.5436887
  58.9424268  34.8257296   4.4538468  58.7239234  34.2470019   3.0724305
   2.8876632   9.2733615  59.0146923   2.8320545   8.7432616  58.2196188
   3.7872594   9.1545050  59.3193674  72.6362228  74.2752266  46.7848635
  73.5800028  74.4224215  46.8468761  72.2465515  75.0309706  47.2244549
  59.5509434  60.1722336  51.0563421  59.3883371  59.3402958  51.5009356
  60.0423384  60.6917858  51.6926003  31.1337098  36.8890022  66.2341490
  30.5230959  36.4704583  65.6273489  31.5816983  37.5494502  65.7056188
   3.9038938  17.3518698  39.9910998   3.8696712  17.3448127  40.9476614
   3.0103773  17.5638144  39.7210240  25.9266609   3.2226031  43.7741899
  26.4889949   2.4482672  43.7943363  25.1048416   2.9321616  44.1697788
  40.6505871   2.4635728  25.1898575  39.9668431   1.7940801  25.2123880
  41.1051846   2.3138437  24.3609095  73.2606087  13.2817352  26.8148398
  72.6999508  13.7827575  27.4071836  73.7959991  13.9425480  26.3756180
  42.1214914  48.3210754   9.2246681  41.8310404  47.6385021   9.8296160
  41.3975716  48.4164667   8.6057419  83.5309212  36.3822246  19.5553088
  83.0017407  36.5825868  18.7832630  83.1991283  35.5378461  19.8605466
   2.1201536  18.9715385  48.8616037   1.3612397  19.0316868  49.4418287
   2.0506097  18.1028891  48.4655666  81.9581181  49.7941143  44.6026564
  82.7244646  50.2791435  44.9087429  81.2719423  50.4565842  44.5218658
  84.2124731  49.3108232  25.3706789  84.1713649  48.8260300  24.5463490
  83.4993750  48.9492709  25.8969879   7.2093129   3.6380437  52.3214149
   7.8334343   4.2825228  51.9877243   7.2325450   3.7517691  53.2715511
  39.5706252  30.7569422  14.3116374  38.8253645  30.1872732  14.5021529
  40.3030399  30.3584279  14.7817320  66.8152023  73.3481885  43.9640379
  66.6133410  72.5854684  43.4220600  65.9903968  73.5546453  44.4037008
  75.0853120   7.5039500  25.5224705  74.1912053   7.8398097  25.5857396
  75.0377451   6.6242170  25.8966899  28.5430360  14.9858260  45.9002256
  27.7732801  15.1559114  45.3572941  28.9232278  15.8506501  46.0543871
  86.4820582  72.0534367  60.3051996  85.8856589  72.1803326  61.0430622
  87.0716697  72.8066094  60.3415346   5.9550804   3.4972152   5.0735664
   5.1593220   2.9668167   5.0326073   5.7333225   4.2987579   4.5996627
  59.2075642  77.0272721  64.3991852  60.0021847  77.5351880  64.5629835
  58.5469445  77.6821811  64.1735506  80.8442531  21.4236021  28.5493803
  81.1308728  21.9272637  27.7875376  79.9663959  21.7547441  28.7389660
  71.7444629  59.1419322  20.2518177  71.9065970  60.0843580  20.2096391
  72.2787458  58.7752182  19.5473349  83.7747355   7.3750597  44.2067862
  83.6682664   6.4325392  44.0781307  83.9570637   7.4700963  45.1416445
  79.3944937  80.5145007  23.0854630  78.9240414  80.3647351  22.2654152
  80.2284628  80.8995513  22.8162718  86.0596100  11.5896988   6.8981618
  85.1152213  11.7117572   6.8008828  86.3357375  11.1903930   6.0732132
  56.4867585  58.7404210  49.2185640  55.7784635  58.7515456  49.8623228
  56.9360958  59.5764835  49.3423700  24.1071653  16.8906796  32.0566154
  24.7704506  16.6088772  31.4266372  24.4824171  17.6697040  32.4671507
  24.3538912  42.4711520  33.7578773  24.0039690  41.6199882  34.0211439
  23.6038550  42.9329474  33.3831501  73.4393484  78.5341386  43.0204630
  74.3705613  78.4901924  43.2375860  73.1894380  77.6255340  42.8524923
  52.9623117  57.3965459  69.9970572  52.5400152  56.7447656  69.4375230
  53.6322250  57.7926486  69.4397850  76.9013749  45.4429626  70.4483700
  76.7920248  44.5081139  70.6225348  77.8115986  45.5289268  70.1649380
  26.0709167  25.2918243  41.2131834  25.5315924  25.7792211  40.5904436
  25.4936028  25.1381922  41.9610739  34.3517039  24.6417369   0.3072686
  35.2254413  24.7893216   0.6692547  34.1894011  25.4058899  -0.2458673
  22.8697570  16.1320835  63.2861911  23.7536558  16.2833410  63.6209684
  22.5912943  16.9845157  62.9514515  74.3500362  22.9708910  47.2336769
  73.4872244  22.7722955  46.8698788  74.2486916  23.8351583  47.6324272
  30.8049059   0.8068861  37.2122788  29.9021864   0.5978297  36.9722342
  31.3329887   0.1592305  36.7454767  77.9224187  64.2595179  54.0068531
  78.6305839  64.3738205  54.6406269  77.5806457  65.1427288  53.8677120
  36.2080479  23.2415748  36.5864277  35.7791090  22.3899221  36.5031552
  35.5003905  23.8774776  36.4811659  55.4770231  23.9310646  52.8306913
  55.1187706  23.8009715  51.9526434  55.1317978  24.7800565  53.1068563
  29.7468209  20.4739761  37.0894074  29.3516207  20.8033681  37.8965950
  29.6672797  21.1996603  36.4703059  19.2123127   8.6746192  12.1528637
  19.8080361   8.4817892  12.8768539  18.3624804   8.3481050  12.4485052
  76.9102985  73.2170380  23.1738615  76.8661446  73.9487983  23.7893367
  77.6790852  72.7180041  23.4498405  64.8586774  68.4533376   9.9650186
  63.9019370  68.4369464   9.9897248  65.1221407  68.4490413  10.8852363
   7.1486600  81.1985236  18.0025399   7.0832666  80.2687208  18.2203066
   7.7100047  81.2241265  17.2276425  55.8637585  66.0237319  33.9626837
  56.4549983  66.6267068  34.4133377  56.4145763  65.2755363  33.7323880
  21.8238974   7.0066100  27.0894837  21.5648293   6.1177909  27.3326206
  21.7811012   7.5009400  27.9080415  11.1724329  13.1958044  16.5155423
  11.3213754  14.0416765  16.9380927  11.3319826  12.5519454  17.2056317
  25.4850586  80.8253242  65.1315641  25.5962571  79.9567750  64.7449255
  24.5615395  81.0338080  64.9905682  11.0524666  10.7469165  17.8436387
  11.0419118  10.5093765  18.7708366  10.1539028  10.5997097  17.5484359
  65.4716420  71.2489803  65.1054716  66.2345702  71.4398629  65.6511211
  65.1831132  70.3824050  65.3918839  12.5319684  33.8145590  65.3775597
  12.1521306  33.9226794  66.2494898  12.1091568  34.4896007  64.8467302
  64.8131633  81.4656569  53.6662817  63.9776194  81.9166406  53.7875700
  64.5791453  80.5393146  53.6083412  33.4073710   9.8397726  28.2188368
  33.0337834   9.3046713  27.5186014  34.2460585  10.1404989  27.8689790
  82.3334752  40.8436012  12.1356380  82.8256358  40.8790970  12.9558516
  81.4524077  40.5753660  12.3964071  21.3260802  34.3012197   2.6754996
  21.5192183  35.0763280   3.2028896  22.1066626  33.7536533   2.7596954
  16.4474833   2.9532170  14.1252422  16.3358033   2.0039350  14.0740335
  17.3922205   3.0787757  14.2143333  84.0909010  73.7767924  19.3192685
  84.6507293  74.0292854  18.5850537  83.9928967  74.5787496  19.8325825
  11.6518378  14.5220208  25.4572701  12.4588501  14.1100562  25.1486468
  11.9408345  15.3367567  25.8682656  74.3754047  76.1779548  11.8910563
  74.4490248  77.0993997  11.6425586  74.7928041  75.7021500  11.1729896
  12.0068955  23.9983296  47.1485806  11.6875744  24.8982358  47.2151566
  11.6246152  23.6680675  46.3355494  79.6822034   6.9496250  30.9695292
  80.0887428   6.2609303  31.4955115  78.7954478   7.0277721  31.3213658
  40.3255224   4.1226953  37.5092268  40.1057863   4.8912770  38.0357528
  40.2493620   4.4230601  36.6035724  20.6240654  36.2492490  31.4115953
  21.2948084  36.4430475  30.7567835  19.8724413  36.7806363  31.1490703
  85.6760105   5.5480182  22.7973676  85.5114996   4.8291349  23.4075928
  85.8841219   6.2953174  23.3581376  56.4871691  16.0308778  24.2021370
  55.7367395  15.4722595  24.4047046  57.2055433  15.6628072  24.7166204
  70.1259262  69.5932228  38.9749765  71.0464925  69.3417175  39.0493703
  69.7266418  68.8912971  38.4610677  27.3100805  35.5257845  37.8745365
  27.6549697  35.7460403  38.7398529  27.9413414  34.9014068  37.5169182
  69.0478945   3.0123377  27.3829842  68.6190796   3.5661334  26.7305565
  68.6991405   2.1360050  27.2197461  70.8898376  48.1040812  37.8751850
  70.4643152  47.2515726  37.9667878  71.5099309  48.1417370  38.6033988
  38.5786033  11.4993131  59.7920513  39.4258809  11.5789580  59.3538618
  38.2041168  12.3792648  59.7510862  12.1637082   9.8307216  25.9735274
  12.3565412  10.7373893  26.2122750  11.6822886   9.4826180  26.7240548
   8.5526451  77.3614115   2.8347939   8.8114556  76.4611025   3.0315018
   7.6696285  77.4410487   3.1955832  61.7762635  15.9157395  44.6789217
  61.4106486  15.9004986  45.5634117  61.0646008  15.6033897  44.1201639
  36.8151736   0.4856835  23.3141088  36.6400981   1.2657863  23.8404369
  36.0385394   0.3893758  22.7629304  45.9111738   4.1988036  22.0838356
  46.4070177   4.7779071  21.5050340  45.8748627   4.6674222  22.9176879
  72.9635936  80.2954809  23.1208181  72.1896977  79.9798099  22.6542687
  72.7709395  81.2137047  23.3105063  23.6013484  54.9105263   7.9867518
  24.0661788  54.1014433   8.2001877  23.4758496  55.3444147   8.8306850
  15.4028237   5.4878974  18.4511364  14.5405948   5.1141417  18.6330664
  16.0198379   4.8642635  18.8340282  -0.0107516  15.3283715  12.1144712
  -0.2086975  14.4679666  12.4842703   0.6557722  15.6920063  12.6973498
  13.8841426  18.6441600  21.1914444  13.8585174  17.9723465  20.5100918
  12.9745018  18.9279246  21.2823415  83.8239948   1.4785227  16.6386807
  84.7465785   1.2275635  16.5929568  83.5011743   1.3682453  15.7443333
  33.8355894  39.5827975   2.9730267  34.1048417  40.4123945   3.3673710
  33.2200573  39.2070380   3.6024375  14.5710039   1.6212070   0.3439868
  13.6298048   1.6080216   0.5177722  14.6654296   2.1890952  -0.4207476
  81.0158358  46.6238737  39.2256546  81.0249482  46.5180302  40.1769400
  81.8987696  46.3787651  38.9489245   8.5569366  78.1325893  34.8605323
   9.4574436  78.0596683  34.5443058   8.1903966  77.2560797  34.7438598
  31.7656398   6.3759649  36.4678764  31.9427133   6.8760645  37.2646046
  31.7444110   5.4638398  36.7573738  31.2445545  32.8578138   3.5933673
  30.5056286  33.4662580   3.5970870  31.6011858  32.9087043   4.4801915
  56.1850739  49.9410820  14.2666399  56.7954397  49.4968605  13.6781251
  56.3784885  50.8717823  14.1542840  28.5695815  19.5915329  33.1604385
  28.6522913  19.5616901  32.2072840  29.0456533  18.8195574  33.4664464
  82.5509529  38.0857277  24.8575234  83.4880618  38.2039714  25.0126910
  82.3065991  37.3487663  25.4173541  47.6710958  58.8795955  36.1291647
  46.8779499  58.9502771  36.6603494  47.9248435  57.9592807  36.1989093
   0.6703281  17.4448049  30.2202129   1.5699878  17.1281719  30.1390481
   0.7348116  18.2033396  30.8004713  27.1271896   6.3391995   0.3172539
  27.6110196   7.1607816   0.2327310  26.2088227   6.5909827   0.2200992
  70.9471999  13.2036602  24.5419526  70.3169881  12.5379956  24.8175526
  71.7229543  13.0350482  25.0767493  10.9321082   6.3847041  41.9088984
  10.0026035   6.4996397  42.1064901  11.1132133   5.4715860  42.1317148
  15.4242778  29.1906047  51.8641949  14.5520353  29.0315199  52.2249126
  15.7047451  30.0114775  52.2688437  41.8490839  22.6920557   3.0458274
  41.4393616  21.8360734   2.9207098  42.0199680  22.7406120   3.9863980
  54.0778065  56.6235072  57.1324444  54.1182414  57.5748236  57.2303963
  54.9071339  56.3101084  57.4933147  19.7186387  18.5720778  19.0481651
  19.6961296  19.3796730  18.5348272  20.3139973  17.9982769  18.5659504
  39.4950432  78.9661286  32.5611520  38.8757044  79.3552185  31.9436884
  40.2890820  79.4924269  32.4676394  18.2480216   2.6640132  33.8104153
  19.1744637   2.6246986  33.5729456  18.2460093   2.6663822  34.7676110
   3.9798033  33.6820889  42.0876551   3.4545603  34.3709326  42.4948978
   4.6395448  34.1532040  41.5787125  66.2110160  49.2570543  51.7304182
  65.6257699  49.8010349  51.2033415  67.0585452  49.6991444  51.6805840
  79.7475305  50.7789456  48.4994584  78.9729371  50.2241497  48.5913067
  80.1781812  50.7322251  49.3530326  15.2589178   4.0130356  50.8684111
  15.7483971   4.7260925  51.2785244  14.7056270   4.4454452  50.2179337
  56.5731285  24.6852493  45.7573032  57.3990224  24.2883372  46.0340500
  55.9996055  24.6005511  46.5189648   0.6169160  47.1565390  41.1495161
  -0.1804470  47.6860762  41.1553383   1.3220620  47.7869987  41.0028028
  11.8532586  33.2542992  13.5586464  11.5560615  32.3677325  13.7633538
  12.3287916  33.5340905  14.3408346  50.9642591  51.2350493  69.7234286
  50.9287991  51.2578993  70.6796986  50.9037437  52.1531516  69.4595022
   3.7498244  77.4906711  49.7282553   3.1612666  77.5038818  50.4830122
   4.2293008  78.3172501  49.7839260  33.9324188   8.9689738  42.8595209
  33.4131670   9.2188001  43.6238480  34.6737647   8.4837973  43.2217932
  38.7547755   8.7876230  38.9092588  39.1027474   9.4389677  39.5182729
  37.8509426   9.0625441  38.7552023  20.4937339  39.9658394  31.7209792
  21.4401197  39.9487329  31.8634319  20.3821850  40.4664564  30.9127903
  22.7677464  15.5627620  43.9815474  22.2955084  15.9036863  44.7411489
  23.4926438  16.1750436  43.8555908  25.0220656  19.1111672  33.1595516
  24.7181630  19.9254811  33.5605097  25.8680129  18.9412796  33.5739708
   9.7277339  76.3176466  49.9990320   8.9048942  76.7387516  50.2477026
   9.5615729  75.9647269  49.1249180  51.4074268  39.7441743  60.6295579
  52.0574155  39.5246034  61.2970429  51.9157567  39.8476198  59.8251121
   1.8994339  70.9946151  24.0936613   1.9424947  71.8060155  24.5996308
   0.9633621  70.8105690  24.0153599  56.8489231  66.7589969  26.3939404
  57.2557072  67.2556860  25.6839705  57.0531560  65.8453161  26.1946726
  57.8462289  11.6014230  56.7423010  56.9797490  11.4615524  57.1242428
  57.6744841  12.0626545  55.9213257  28.7961745  21.2215376   1.2763977
  29.2583489  20.7117486   0.6110080  28.0529332  20.6722236   1.5255547
  78.8174135  74.4359131   3.9447945  78.1073195  74.4542480   3.3031848
  79.4603235  73.8318408   3.5733199  27.7637601  31.8267727  41.0087395
  27.6530576  31.3052654  40.2137518  28.5357285  32.3657370  40.8360720
   9.2498571  26.7502141   4.7900304   9.4069678  25.8144665   4.9162269
   9.5729500  26.9304061   3.9072087   8.8775118  80.4818648  20.9404540
   9.2854699  81.3227928  20.7339525   8.6326679  80.5545510  21.8629503
  36.0856517  39.9614465  67.1016925  36.9100519  40.0896258  67.5709113
  36.3376816  39.5190554  66.2911355  39.0732986  63.5061915  43.2713270
  39.3735534  64.3593378  42.9579258  39.8140425  63.1594498  43.7686205
  29.0140629   9.4139874  29.5925164  29.3248844   9.4057530  30.4978085
  28.3583617  10.1109898  29.5707369   2.0039250  28.9511752  41.4913034
   2.0609380  29.1093993  42.4336147   1.4566942  29.6638918  41.1614466
  29.4580126   3.1019533  41.0322189  29.1403556   2.9527307  40.1416779
  30.3352809   3.4666952  40.9156179  48.7220460  81.1361610  41.3996029
  47.9075700  81.5188158  41.0733557  49.0551615  81.7794690  42.0252371
  41.1989260  11.2466919  13.4824216  41.7680502  11.6951358  14.1079021
  41.5764427  10.3709269  13.4002721  41.4257002   5.0497133  23.7713361
  41.7164326   4.5690706  24.5463777  40.6919479   5.5811000  24.0803170
   0.4112645  32.2186089  31.7606997   0.1174889  31.6844153  31.0227537
   1.0456698  32.8255725  31.3794422  73.2738799  56.3654668  45.2836895
  72.4307591  56.3930447  45.7360363  73.8473791  56.9206936  45.8119440
  18.0851126  28.9912009  52.4104071  17.4148309  28.6011624  51.8493128
  18.9019990  28.8721919  51.9258785  33.3971977   1.3039917  30.6503797
  32.6615691   1.0738219  31.2179232  34.1742110   1.0996272  31.1706805
  54.6376586  53.3181507  11.8209326  55.4044387  53.7884814  12.1481478
  54.2335901  53.9225967  11.1983514  45.0277919  71.7005176  45.4709911
  44.5738334  70.9570927  45.8678198  45.2228266  72.2820581  46.2058401
  86.0312683  28.7610934  63.3881920  86.9298297  28.7993978  63.0605429
  86.0767371  29.1563199  64.2588019  49.2223978  24.4034219  41.0111284
  49.7169399  24.2037058  41.8059731  49.7328949  25.0867653  40.5767679
  74.6427475  29.2091608  45.0542212  74.3068634  29.7087622  44.3100357
  75.3987096  29.7114491  45.3582954  69.0667862  63.3507986  12.3487389
  68.6695606  62.6649101  12.8853965  69.7488827  62.9003317  11.8506849
  43.8485384  13.6782289  25.1921344  43.5870934  14.4697106  24.7215676
  44.0759516  13.9854407  26.0697079   2.1802557  34.6766496  21.8526244
   3.1111974  34.8652101  21.7342019   1.7556731  35.5337310  21.8155718
  53.8391981  61.3700373  15.2926838  53.1331635  60.9462459  15.7806861
  54.6085561  60.8270700  15.4644608  16.0835218  20.4016209  20.1578498
  15.8576727  21.1657834  20.6882071  15.4555428  19.7304845  20.4251528
  29.6035695  35.9029794  30.9367561  29.0951133  35.2510881  31.4191890
  30.4879737  35.8304501  31.2956452   9.8787069  50.8007717  32.1177101
   9.8905057  49.8594475  31.9444823  10.6169164  50.9446144  32.7098131
  44.5199680  15.9354389  13.7632334  45.4236937  15.6403041  13.8746333
  44.5607615  16.8837631  13.8867223  36.4430475  54.9742222  33.1788635
  35.8238029  54.2691326  32.9901433  37.0337057  54.6049213  33.8353467
  80.4804449  54.6888399  50.2266169  79.9668441  54.5296955  49.4347095
  80.7006936  55.6194782  50.1862526  53.4709597  11.8363822  18.0192006
  53.2793236  11.0525727  17.5042737  53.7087727  11.5024829  18.8841784
  29.9071288  29.5471144  19.1969168  30.0913882  29.7061563  20.1226521
  29.5571566  30.3782868  18.8761282  45.8237886  12.0647347  27.7748346
  46.2013102  12.1843481  26.9033957  45.9189939  12.9188168  28.1963944
   1.4909537  12.3326206  13.3189523   1.2019484  12.4175835  12.4103880
   0.6799073  12.2690237  13.8233244   3.2943734  60.8008320  32.5533009
   3.3347209  59.9906237  32.0451999   2.8298481  60.5583222  33.3543229
  76.2529105  77.9806296  24.8234391  76.3746697  77.9182340  25.7708097
  77.1280343  78.1625412  24.4809508  82.9475860  49.4491720   1.9045928
  83.3081265  48.9814091   2.6578790  82.7160261  50.3124619   2.2471470
  55.2047300   7.3691463  61.5564680  55.5629206   8.0657911  62.1065760
  54.3591642   7.1610034  61.9538689  10.4260524  76.7833258  10.5951214
   9.7278603  77.1883465  10.0806141   9.9765547  76.3976241  11.3470650
  69.0830642  80.3412365  54.3295670  68.2201869  79.9281483  54.3616867
  69.5343703  79.8976693  53.6113691  56.1909380  52.7594226  67.8859311
  56.4245715  52.3672800  67.0445805  55.4717102  52.2179275  68.2110851
  85.5873579  56.3517809  52.5079155  85.1799433  57.1378231  52.8717613
  85.0250037  56.1091423  51.7723083  36.2388325  28.7208891  44.5679808
  36.9615865  29.0486550  45.1031685  36.5659642  28.7669945  43.6695957
   1.8031320  13.6659253  43.0165243   2.3369509  13.5919607  43.8075972
   2.4151567  13.9581192  42.3410368  49.3370438  33.9294839  63.2735157
  49.2769527  33.9687848  62.3190117  50.2726316  34.0119815  63.4581947
  32.6397753  22.9138637  45.8448410  31.9036651  22.4086237  46.1899614
  32.2534323  23.7477732  45.5773211  78.4958295   8.2918543  13.8621652
  79.2120783   8.6770803  14.3669617  78.0758969   7.6822644  14.4690323
   2.9863608  42.9811001  32.2217846   2.5217783  43.5418987  31.6005754
   2.9932210  42.1184778  31.8069720  34.8949075   1.5363330  14.9804318
  34.9288964   2.2794731  15.5827773  34.5030546   0.8297471  15.4936767
  26.5298708  77.1833954  11.1721671  25.6081732  77.3493198  11.3700855
  26.9099100  78.0539126  11.0538340  11.2162455  69.9739046  10.9036982
  10.9861048  70.7876701  10.4553092  10.9858139  69.2840988  10.2813625
   1.1030794  13.9365101  20.7924891   1.4852741  14.4683886  21.4905310
   0.2799071  13.6146855  21.1599779  30.5357456  16.8333614  63.9700556
  30.7823682  17.0388842  63.0682945  30.0562739  16.0074711  63.9049292
   1.6482256   6.4841092  17.6112306   1.2954028   7.1724170  18.1751275
   1.8498991   6.9288617  16.7879725  29.3661737  10.7764792   3.6979553
  29.6660423  11.5254009   4.2131498  29.5989037  10.9975207   2.7961743
  21.9365072  30.4994392  34.9505210  22.2374487  31.3701463  35.2104020
  21.9506788  30.5168557  33.9935827   4.9634131  80.5167130  43.9821100
   5.8979901  80.4934976  43.7765360   4.6497353  79.6374542  43.7705898
  16.2652262  78.0382786  65.5040121  16.3706454  77.8786624  66.4419079
  15.3178604  78.0460153  65.3673697  36.5930154  64.1452628  62.5819658
  37.2530618  64.3735295  61.9273924  36.1386158  64.9684697  62.7610832
   2.2212537  66.2485940  59.0259838   2.6098164  67.0170576  59.4439697
   1.7637952  65.7961006  59.7346497   3.0257686  73.2291002  25.7792783
   3.7908514  73.4483255  26.3110852   2.3328598  73.0557264  26.4165020
  36.0855412  18.3373773  26.3240576  35.6366777  19.1636693  26.5029311
  35.3984785  17.6736426  26.3843298  38.7358910  63.9619918  56.0848999
  38.4401077  64.0581841  56.9901562  39.3960327  64.6463043  55.9746218
  69.3489709  76.1466985  53.2276266  69.7987475  76.0796266  54.0699046
  68.8315239  76.9491034  53.2956486  40.5732822  13.8749242  34.1029882
  40.0073433  13.8990080  34.8745847  41.4622927  13.8794947  34.4577789
  21.7097569  47.9174614  17.8490674  21.2919331  48.5369349  17.2508156
  21.0579586  47.7694607  18.5342574  17.0594013  45.7031202  20.8494449
  17.7428508  45.8385658  21.5057874  17.3372102  46.2321758  20.1016808
  42.1212006  22.1046233  47.3438978  41.7562675  21.2792659  47.6630259
  42.9646921  21.8618107  46.9620705  33.8565445  19.6438336   5.1789021
  34.7104597  19.2858064   5.4215437  34.0428567  20.2332664   4.4480899
  36.6074443  19.8338437  31.2905407  36.7329884  19.0603232  31.8402123
  37.4284387  20.3196025  31.3695192  33.5397243  19.5383751  28.2662892
  33.6019778  19.6814382  29.2106891  33.7986040  20.3749132  27.8797436
  67.1328805  30.1818681  49.0293312  67.4914442  31.0564685  48.8785267
  66.2274049  30.3372860  49.2980146  31.2086439  21.3117671  33.6918950
  30.3484392  20.8985162  33.6176968  31.0237932  22.2509456  33.6939669
  57.0127676  24.9020410  18.3499229  57.2267697  25.7890248  18.0606222
  57.7112911  24.6752644  18.9638197  27.6009941  28.8355088  21.6446114
  27.4216628  29.2864013  20.8195257  28.5090637  29.0599442  21.8477559
  19.0973032   2.6925322  15.0178301  19.4126701   2.0504716  15.6538606
  19.8422301   2.8376630  14.4345188  39.8796606  31.8312049  42.4446583
  39.8439336  31.7012334  43.3923197  40.3094912  31.0437369  42.1109390
  40.7851791  31.0920954  21.7392063  41.1185884  31.5317130  20.9570265
  40.2025127  30.4118299  21.4016104  29.2109942  56.2335825   8.6530960
  29.6719480  55.9259653   7.8726321  28.7726092  57.0365334   8.3714491
  28.8775229   5.7134008  13.6113751  29.0365243   5.6459159  14.5528603
  29.7078204   5.4580516  13.2093382  86.1809697  55.5032413  38.2778745
  86.5062156  56.3427740  37.9528599  86.8806472  55.1785236  38.8446598
  78.4694638  72.2154742  65.7807710  77.5255933  72.3204713  65.9004011
  78.7986531  73.1083875  65.6779521  57.8823662  25.7688046  13.0435205
  58.2530975  25.6098938  13.9115870  57.9925442  26.7094326  12.9045570
  36.8909224  79.7651721  11.6472876  37.1770342  79.3392817  12.4553657
  37.7032812  80.0266230  11.2137485   6.0017451  58.1034500  15.3301966
   6.5936573  58.4925945  15.9739637   6.5283593  58.0300266  14.5342588
   8.3767422  78.3177088  57.4077797   8.7387880  77.5852163  57.9063845
   9.1428002  78.8185067  57.1274424  17.2502351  45.6871700  14.8486352
  18.0496466  46.2127924  14.8187566  16.7438495  45.9780407  14.0902162
  37.2841382  18.6202168   3.6514115  37.7445650  17.9372597   3.1637570
  36.8378925  18.1514835   4.3566686  80.8701378  60.1965697  60.2710247
  80.7552368  60.7103498  61.0704374  81.5578634  60.6551511  59.7883558
  59.4427791  49.4639521  60.7404547  59.1749396  50.3444719  61.0034721
  58.8490333  49.2367249  60.0248676  86.2822730  62.8030438  35.3361416
  86.1020547  63.0235214  36.2500048  85.7920581  63.4524209  34.8319316
  45.4042210  36.8674781  67.0906305  45.3052571  36.4333110  66.2433191
  44.6015801  37.3788869  67.1929037  28.9831877   1.4954886  25.1105499
  28.5622978   2.1976066  24.6144533  28.3023953   1.1812556  25.7055378
  38.0305147  27.5966477  17.4791253  37.9521465  26.6856027  17.7621245
  37.2193933  28.0099487  17.7749193   4.1368288   4.0000999  43.0412006
   3.2521668   3.6516556  43.1516171   4.0115178   4.8308718  42.5825644
  33.5611391  21.6358066  21.5016198  33.5810757  21.1965609  22.3518538
  34.2021275  21.1616278  20.9719777  82.5833231  24.5641731  64.9997192
  82.7381212  24.6188710  65.9427341  82.9085285  25.3958152  64.6549826
  47.0742035  20.7965469  20.8223772  47.4045324  20.4344726  21.6445780
  47.5967789  20.3676724  20.1447225  19.8813486  38.2638836  27.8992009
  19.9708784  38.0275965  26.9759536  20.6777930  37.9282904  28.3106422
   9.5900544  75.5880035  12.5886643  10.2397784  74.8929227  12.6933265
   8.9693411  75.4452176  13.3031964  43.7693405  27.3794985  13.6836755
  44.1764021  28.1486106  14.0824234  43.8372755  27.5339484  12.7414644
  85.5067426  69.2348273  30.3405046  85.7755357  68.3202357  30.4271269
  84.7401840  69.3139810  30.9082699   5.6522908  29.2090958  68.7176154
   5.0996032  29.9111324  68.3742305   5.0815549  28.4408193  68.7331701
  17.4314173  79.4966673  14.1938269  16.5936669  79.9579867  14.2337763
  17.3557289  78.9286474  13.4271085  67.0898400  60.1834631  46.2993288
  68.0080650  59.9249792  46.3785839  66.7469035  60.1256132  47.1911144
  37.0286655  37.6252246  19.5237565  36.7220640  36.9579148  18.9098144
  37.0323634  37.1850729  20.3737473  39.9494505  11.9184804  27.7519751
  39.9144077  12.6270413  28.3945847  40.8509016  11.5996051  27.7959704
  19.8987353  21.2917924  26.1225510  20.6179976  21.7573500  25.6957603
  20.2156544  20.3931785  26.2135887  42.0469141  50.8840418  20.8883119
  41.8425035  50.0774765  20.4151297  41.9144630  51.5796804  20.2442813
  79.3779097  37.5140524  31.9604135  80.2562718  37.8088760  32.2008133
  79.5154403  36.6588449  31.5530562  63.7363386  25.2242088   9.9229860
  64.0881109  26.0335898   9.5523286  64.0774059  24.5328712   9.3555701
  82.2430147  12.5049317  40.4693699  81.6812046  11.9427502  39.9359322
  81.6484181  12.9046392  41.1041260  13.8112267  69.7383506   1.5653858
  13.2904251  69.9797363   2.3313701  13.4898575  68.8704378   1.3210884
  12.6151713  71.1492212  13.1937706  12.2567614  70.3779621  12.7545273
  11.8482788  71.6060264  13.5393763  85.2927676  27.3704553  50.8658648
  85.4197103  26.7579842  51.5904284  84.5741941  27.9343700  51.1520195
  33.5240316  11.9955873  26.0143113  34.2465973  12.4923837  26.3981414
  32.7985692  12.1158326  26.6270733  37.0822144  17.4056649  42.2741795
  36.8877101  16.7565906  42.9502726  36.2775874  17.4632883  41.7589235
   1.3802011  37.8129625  11.2374461   1.4030838  37.0735264  10.6300390
   1.7070954  37.4550962  12.0628572   9.9298161  36.6353297  29.0755844
  10.3328371  37.4914074  29.2202735  10.4685879  36.0281539  29.5828247
  30.0612926  12.8853488  38.0534863  29.8153687  13.4404516  38.7934971
  31.0174274  12.9248786  38.0317760  30.3191304  17.6660538   2.2434364
  30.5500126  17.9207253   3.1367832  30.8297372  18.2543159   1.6871430
   2.0461668  23.2200861  37.0035124   1.3281408  23.5966969  36.4947534
   2.8289190  23.6653018  36.6789913  15.2807820  29.7352171  34.3145776
  14.9786723  29.1514254  35.0103855  16.2074304  29.5206022  34.2073607
  81.4989839  24.0561199  20.6430864  81.8452258  23.1638789  20.6271172
  81.9428561  24.4720912  21.3821268  51.3241186  58.0498426  64.2713176
  52.2200289  57.7938812  64.4905525  51.4258256  58.7414902  63.6174750
   9.6780086  18.3408260  39.0036893   9.9566066  17.8259087  39.7609711
  10.2276409  18.0272222  38.2855058   4.0756306  42.7288389  56.4633179
   3.4722358  42.3748875  55.8099651   3.5509038  43.3584976  56.9577074
  78.0630046  80.0459118  31.7238808  78.6051327  80.8164375  31.8930483
  78.6414391  79.4443109  31.2551332  62.0534149  76.0456950  51.7130852
  62.3263097  76.6113443  50.9907246  62.8115243  75.4850114  51.8778133
  32.5193310  22.6845622   1.3292524  31.6335559  22.8652787   1.0146432
  33.0548072  23.3819771   0.9509528  14.1321588  55.3887129  60.6620216
  14.8532379  55.0684929  60.1200485  14.1134965  54.7938299  61.4116859
  70.5157870  66.4002306   8.6386371  70.6820292  66.3547046   7.6970840
  70.3636164  67.3295302   8.8103282  16.5475750  29.8594952  40.2663279
  16.5736198  30.6387711  40.8215618  15.6363356  29.5688891  40.3040314
  75.9095383  38.8895845  27.0340157  75.6540489  38.3944654  26.2556744
  76.8461704  38.7174726  27.1306038  45.3736973  11.9410706  53.0135584
  45.6100273  11.5438509  53.8517714  44.4899654  12.2822297  53.1508827
  58.9094114   2.4817413  34.3328023  59.0155888   2.8896582  35.1921988
  58.2863951   3.0461752  33.8750935  78.6343923  38.4749231  60.6752317
  78.2544818  37.7912014  61.2269770  78.1448474  38.4199657  59.8545270
  71.0124254   4.7849324  37.0140648  71.5919828   5.5270481  37.1861386
  70.5315781   4.6617487  37.8325057  31.5258813   3.0902001  20.4940701
  32.0941567   2.6601297  19.8550594  30.6788063   3.1584826  20.0535798
  81.8718834   5.6423348   7.5017166  81.4493422   6.1483514   6.8077147
  81.2043534   5.5670631   8.1836033  22.0561862   6.1566812  37.5783205
  21.8339181   6.1272043  36.6477513  22.8260612   5.5935901  37.6586366
  15.1680708  63.9661837  29.2745280  15.5755711  63.2640314  29.7816324
  15.3320718  63.7287378  28.3618641  39.8278538   7.9204314  31.7999506
  40.3627268   7.8107207  31.0137534  39.3995039   8.7682479  31.6818309
  56.7481217  57.3665554  26.5763235  57.3514586  57.5785477  25.8640909
  56.7180937  56.4098961  26.5880322  19.5391238  34.4393253  14.2328548
  19.4094396  35.3435445  13.9468479  18.8894713  34.3112373  14.9240685
  22.8669286   4.8876932  44.3746519  23.1568623   4.1097409  44.8510551
  22.2086668   5.2858514  44.9442053  61.5980259  70.2341313  27.7743959
  61.9755227  70.5240483  26.9439292  61.0086641  69.5195288  27.5330901
  16.0328138   9.7449100  10.1312673  16.7131996  10.0088310   9.5118713
  16.2753689  10.1751888  10.9511817  33.1779146   9.2204010  35.2723122
  34.0562296   9.3728280  34.9236512  33.0058265   8.2961667  35.0922894
  14.6187115  30.8401847  19.1026890  13.7472057  30.4527521  19.0214086
  14.6824968  31.4437342  18.3624923  82.0535429  19.3668008  48.0206060
  81.4713184  18.6329126  47.8239965  81.9115235  19.9841154  47.3029804
  12.2070169  17.2044432  11.9728637  13.0881095  17.5724077  12.0400262
  12.3041523  16.4563394  11.3836789  29.7132778  25.6655121   5.1344126
  29.7987866  26.1258578   4.2995456  28.8391542  25.2765703   5.1050293
  40.1287746  32.8943324  61.7294025  40.7622623  33.3668685  62.2694302
  40.5829477  32.7487469  60.8994865   8.7154365   4.4478068  16.1208582
   9.4108927   5.0793916  15.9373546   9.0204430   3.6330014  15.7217407
  84.9983317  80.1172748  14.8526514  85.7668740  79.8869356  14.3306172
  84.2542440  79.8335172  14.3215716  16.9633162  37.4988413  27.9541421
  17.8797221  37.7343321  27.8093147  17.0010757  36.7184043  28.5070658
  51.4671898  30.5811357  11.4990246  51.4676046  31.0292840  12.3448348
  51.2239838  31.2592769  10.8687794  48.2362270  13.0303288  69.0177059
  48.7486744  13.7554669  68.6602116  48.8700676  12.3220420  69.1308928
  47.2278214   1.8128537  50.4527807  48.0332279   2.2667739  50.2047873
  46.5257263   2.3967883  50.1658726  56.7380164  22.9899883  23.4679389
  56.3135861  22.1341085  23.4082603  56.3010023  23.4234548  24.2009854
  10.6217082  78.5479430  14.1567051   9.9574836  78.0330358  13.6985481
  11.4477309  78.2937486  13.7452364  73.4370341  79.0422349  70.1809887
  74.1606440  79.1938477  70.7889649  72.8993716  78.3764749  70.6098448
  62.2007122  51.2284594  64.0737735  63.0835118  50.9171813  64.2737829
  61.6461697  50.8189844  64.7378843  16.2112816  50.4665262  23.1599927
  16.6510447  50.2455790  22.3390031  15.6997116  49.6866209  23.3751082
  65.2023602  19.5915818   6.6671354  65.3793001  20.2505636   7.3384535
  65.9124899  18.9567471   6.7616242  33.8642144  34.2982388   0.9058186
  33.4303665  33.4576368   1.0520919  33.8562703  34.7242260   1.7629673
  79.1404752  31.4546776  50.1876307  79.1850690  32.3977995  50.0302649
  79.5219557  31.0625005  49.4021988  23.5425830  29.8791122  42.7058935
  24.4338226  30.2009416  42.5704432  23.0315208  30.6644249  42.9016733
  47.2864437  18.9660692  12.6950479  47.1592188  18.4842408  11.8778050
  47.9131126  19.6544337  12.4721730  20.6900841  75.0786282  69.5199156
  20.6249649  75.7720358  70.1765585  21.3192541  75.4125912  68.8805056
  11.3206184  17.5234592  36.8181038  11.6859090  17.4951506  35.9338021
  12.0857632  17.5530326  37.3924828  66.9119213  22.5679135  52.7813196
  66.7540739  21.8188214  52.2067070  67.1416901  23.2818103  52.1865129
   2.8165007  59.5202780  28.2173705   2.3492801  59.1423464  27.4723172
   2.6190311  60.4558992  28.1743121  72.5178737  79.8930455  53.4047651
  72.5189096  79.6918669  52.4689436  73.3623320  80.3162695  53.5596991
  39.6700430  25.6208682  42.6523876  39.7554278  25.3603840  41.7352772
  38.7598109  25.4239154  42.8735638  21.5075064  19.0077055  49.5540094
  21.5220881  18.0755365  49.3370295  21.0586166  19.4186080  48.8151646
  15.6939399   6.2541938  69.0104437  16.0500681   5.7654846  68.2684422
  16.0863531   7.1239841  68.9348841  11.2258112  21.8333817  15.7629859
  10.8899808  21.7857838  16.6580749  12.1693730  21.9559503  15.8673882
  50.2146578  11.2793658  69.5346060  49.8507750  10.6937383  70.1985777
  51.0608340  10.8917068  69.3111379  82.7230172  42.2923994  34.9852252
  82.3956810  41.9052362  35.7971263  83.3005227  42.9994917  35.2728701
  84.2520935   1.4943622  42.6351934  84.2400652   1.7385314  43.5606485
  84.5886404   2.2703622  42.1870976  33.3031702  17.8073049   9.0185374
  32.9575992  18.6759949   8.8131338  34.2018461  17.9688168   9.3058139
  84.1765791  76.0383953  13.6745048  84.2824275  76.9648621  13.8905776
  83.2317001  75.9221108  13.5749352  64.6036434  28.6332130  67.4315739
  64.6512651  27.6781201  67.3896027  65.4990816  28.9093113  67.6270056
  48.2967854  28.6036801   5.5566329  47.5639963  28.2082772   5.0845051
  47.9186249  29.3705368   5.9869325  83.3177740  75.9520174  20.8147287
  82.5482923  76.1457152  21.3500905  83.3329946  76.6471536  20.1568651
   9.1685804  29.7735141  64.3021201   9.7698291  30.2374194  63.7194347
   9.4924076  28.8728164  64.3126260  52.7497091  46.4411186  47.2834783
  52.1426358  47.1370809  47.5351363  53.5955658  46.7238330  47.6310807
  45.7066496  79.9633058  69.2558289  44.9588402  80.2385321  68.7254906
  45.3279408  79.7394105  70.1059341  27.8808689  10.5730593  24.0900040
  27.8448367  11.0241091  23.2465053  28.7836838  10.6900144  24.3857765
  78.8080935  42.3868179  24.0247631  79.4682912  42.0385218  24.6239805
  78.2273160  41.6459513  23.8514161  13.9111829  25.0872517  14.8643267
  14.8044825  24.8007202  15.0544536  13.5858822  25.4265118  15.6981826
  65.6068800   6.8550384   6.6030598  65.5415939   7.7569348   6.9169903
  65.5884383   6.3226813   7.3983508  12.6991379  40.1064444   9.1225541
  12.3032415  40.8315468   9.6060002  13.4417677  39.8357773   9.6624362
  30.4551721  61.2415981  18.8211215  31.0293818  61.7633057  18.2604659
  31.0501647  60.7927465  19.4217467  35.1272368   1.7085847  21.5354943
  34.2215824   1.4058577  21.6016531  35.1387167   2.5365183  22.0157290
  42.7840996   4.7462112   4.8927480  43.5058594   4.9860257   5.4739416
  42.6286173   3.8192487   5.0738525  78.3349649  50.0089931   0.9754135
  77.8854249  49.2182302   1.2734799  78.5965226  49.8112488   0.0761266
  69.9078614   6.5531562  58.0462723  69.4246513   6.1128829  57.3470574
  70.0989753   7.4226545  57.6945882  46.9705296  23.6819386  11.7957258
  47.7985382  23.3439064  12.1368480  47.1594477  23.9025021  10.8836448
  17.1441245   2.2459200  20.2846265  17.5894523   1.5410817  20.7548594
  16.8284702   2.8311285  20.9731936  15.3729713  13.5340655  51.4778614
  15.2392185  14.4370162  51.1897230  16.2550259  13.3149767  51.1775112
  31.0484886  44.6679020  22.3554873  31.3150930  43.9435387  22.9215717
  30.5951762  44.2467928  21.6251397  23.9704370   9.5225900  11.2038934
  24.5571184   9.4064176  10.4565382  24.4145536   9.0812242  11.9279015
  23.4526992  48.0898142   6.7678881  22.5328493  48.2292175   6.9929987
  23.7396884  48.9271784   6.4036179  42.9056652  80.1278757  18.0792165
  43.7235936  80.2618585  18.5580409  43.1262692  79.4875989  17.4027455
  21.8092163  67.2185142  14.4286537  21.5349205  66.3168032  14.2615879
  21.0000332  67.7276582  14.3814600  26.2377858  43.7478542  12.9726219
  26.0719657  42.8114986  12.8631973  27.1894312  43.8312292  12.9122269
  86.3622600   1.3126491  63.1202047  86.3949973   2.1656345  63.5533088
  85.4431254   1.2028812  62.8765302  37.9731798  61.1413813  20.0396466
  37.6105881  61.2325859  20.9208083  37.7132297  60.2625275  19.7634649
  40.7332277  22.9073930  10.8685923  40.6132555  21.9695282  11.0177660
  41.3451099  23.1821871  11.5514672  47.6156378  29.1982388  35.1746845
  48.5314369  29.2365074  35.4505014  47.2568321  28.4424233  35.6396914
  39.5141721  51.0967112   3.2809472  39.2077565  51.0266733   4.1850680
  39.0641999  50.3886843   2.8200239  48.0224151  17.1896432  66.8824174
  47.5370533  17.8596805  66.4010563  47.4575705  16.9707511  67.6235446
  68.1684055  69.4937616  68.7067922  68.3711877  68.7663918  68.1185361
  67.4587717  69.9645644  68.2697595   8.0153376  40.0613594   1.5928110
   7.9149640  40.9054947   2.0328021   8.8288873  40.1456833   1.0955607
  67.7032755  15.2389777  36.5675735  67.6685904  14.6477044  35.8156276
  67.3604117  16.0687900  36.2357783  85.0348719   7.9025287   2.6995177
  84.1499074   7.5379152   2.7109189  85.3074868   7.8410072   1.7840237
  41.4524460  27.9749250  22.9675937  42.1691990  27.5731897  23.4586167
  40.6935120  27.4232793  23.1571746  12.0204234  19.1473794  51.5607309
  11.7935479  19.8325682  52.1894407  12.9365432  19.3173170  51.3414669
   9.3063086  31.8820834  52.9409552   9.1474366  31.9450903  51.9991398
   9.7315681  31.0322595  53.0557919   7.6560171  75.5317558  47.8984499
   7.1959933  75.6867630  47.0734739   7.6982101  74.5784516  47.9737043
  16.0935116  35.6475616  43.6958694  16.1005116  34.8819947  43.1213379
  16.3070071  35.2993226  44.5615387  55.3440523  31.9764280   1.6001247
  55.2195263  31.8006492   0.6674800  54.6022511  31.5467596   2.0259702
  43.3266544  25.8275270  34.6600294  42.8109074  25.6310725  33.8779521
  42.8447151  25.4123402  35.3752828  17.4139142  15.5958128  15.4116547
  16.5398026  15.6828916  15.0314212  17.8509116  14.9460089  14.8611832
  82.8883726  71.1789102   7.4676043  83.3797175  71.5450008   8.2029873
  82.7292687  70.2681703   7.7155393  16.8226409  46.8509388   2.9854071
  17.3990917  46.0963917   3.1062481  16.0440922  46.4918280   2.5598076
  77.9492569   2.7212322  14.1335166  78.2355928   3.5774475  14.4515407
  77.3965788   2.3775861  14.8354316  33.0806303   2.4182004  27.8438687
  33.1165934   3.3374083  28.1084347  33.5251665   1.9483201  28.5494399
  40.9997082  23.6908913  30.1498818  41.4831352  23.7188578  30.9755635
  41.2438536  24.5007658  29.7018480  24.6218514  30.0400662  11.7697370
  25.3157425  30.5274510  12.2138143  23.9426041  29.9304008  12.4351907
   8.7180932  53.0279095  22.0864964   9.4122680  53.0325467  21.4274549
   8.0853184  53.6737973  21.7724037  32.9031157  40.8973646  18.8330162
  32.1678209  41.5101147  18.8434255  32.8708386  40.4992628  17.9631269
  47.1873522  38.0677152  16.9658947  47.6662493  37.9947805  16.1403215
  47.4153709  37.2717476  17.4461806  38.7322211  58.4066296  33.6128616
  38.7383223  58.0877733  32.7103519  39.2563200  59.2072010  33.5875869
  30.6076050  27.1584320  13.8806939  31.5507555  27.1890140  14.0412068
  30.2498364  27.8634858  14.4202626  52.7639771  77.0272064  42.7580643
  52.7070236  77.4144983  43.6315632  51.8583298  76.8182802  42.5291872
  41.9451189  53.6892128  32.6893830  41.5414143  53.2092047  31.9663000
  41.8779087  53.0961132  33.4376836  80.7947288  28.4878254  17.9839289
  80.5441366  27.9613757  17.2247934  81.2395946  27.8719473  18.5661829
  50.4693174  27.4070120   6.3671774  49.7221231  27.8570104   5.9729201
  50.4799175  26.5470219   5.9470147  40.0158691  53.1255293  28.0027890
  39.3734431  53.2124233  27.2985363  40.7168627  52.5954771  27.6234746
  16.4139088  12.4350332  67.3584541  15.5874642  12.1212886  67.7255919
  16.9549902  11.6492913  67.2805341  62.4862780  72.3834043  61.9907206
  63.3875408  72.5459581  62.2691672  61.9574156  72.5813322  62.7636122
  15.8643758  34.1756749  15.8939207  14.9505532  34.3986297  16.0712695
  15.8616078  33.8528299  14.9928141  23.9952588  55.5935287  42.8732157
  23.0947948  55.5076742  42.5601244  24.1758990  54.7630930  43.3136415
  64.0186739  59.1156816  17.9521549  64.0396547  59.6173429  18.7670958
  64.9085808  58.7762451  17.8568673  64.2719603   9.4798946  30.3889441
  65.1977730   9.2961246  30.2297997  64.2703962  10.0605690  31.1498976
  73.7904229  72.5415998  59.7384303  73.0032840  72.7378159  60.2465098
  74.4767966  73.0691939  60.1468032  86.3603749  68.2981782  65.6749844
  85.7339396  67.8154164  65.1357733  86.2559667  67.9290467  66.5519520
  82.7607105  14.6915066  59.9670219  83.0125715  13.9026904  59.4868517
  83.3078243  15.3832662  59.5950460  32.6166511  50.4765654  21.7524362
  32.1285653  50.1387167  21.0015273  32.7829099  51.3942194  21.5368080
  34.7654653   2.9857287  36.2395525  35.1151180   2.1489015  35.9334564
  34.7466779   3.5377884  35.4578185  57.2760239  71.7370706  50.5342274
  57.5908747  72.3435145  51.2045472  56.5829434  72.2183710  50.0823169
  19.8405635  47.3677826  32.0033693  19.8401976  48.3182716  31.8901992
  19.9389243  47.0210361  31.1166191  44.3758869  50.6453133  44.3583012
  44.0774918  51.5512228  44.4390249  43.6124706  50.1195145  44.5969582
  47.3583317  41.1871672  17.3950434  46.8440628  41.2130594  16.5881443
  47.5287485  40.2565861  17.5406909  63.0863375  13.8448642  65.1454764
  63.4061700  14.5699762  64.6086805  63.1624943  14.1614507  66.0455909
  56.9303036  44.0033627   5.8798236  56.3099098  44.7288942   5.8094901
  56.6035414  43.4788227   6.6107929  40.4809332  32.3226047  24.0633130
  40.5353165  31.7895150  23.2701612  40.8429861  31.7650056  24.7519588
  62.0945325  80.1887470  51.7815750  62.3712268  81.0453635  52.1069723
  61.1493292  80.1694994  51.9314175  40.2515936  19.0045965   8.9264661
  40.5148077  19.1712654   9.8315477  40.6689119  18.1720817   8.7051064
  38.9365721  34.6360302  27.5053263  39.2758465  33.7496781  27.6298332
  38.7992406  34.7094536  26.5608788  82.2152311   2.5802730  59.2273622
  82.9737693   3.1269906  59.0225296  81.5062052   3.2037137  59.3849605
   9.2196417  27.4167848  45.3012848   9.6176469  26.5930319  45.0197601
   9.4717813  28.0474353  44.6267939  29.8802447  39.6025395  17.5736070
  30.3756166  40.2703094  18.0478656  30.5399847  38.9670563  17.2958696
  43.4910297  62.2351694  26.4747906  43.0882978  62.5532389  27.2827959
  44.3643141  62.6270914  26.4720488  37.4411273  56.1723614  30.6223798
  36.9335985  56.0548544  31.4253974  38.3377624  55.9473324  30.8706498
  62.3814487  60.4428339  11.0018718  62.5094175  60.5627012  11.9428754
  62.3266649  61.3322687  10.6523895  42.0399523  60.4302692  54.0963316
  42.9281950  60.7725239  54.1969156  41.4758730  61.1238384  54.4383955
  51.2442780  55.4648685   1.5771621  51.8364000  55.8072710   2.2467771
  51.7422915  54.7672033   1.1511549  14.8638070  21.0647488  52.8370094
  14.8916221  21.8040752  52.2296762  14.0515888  21.1886406  53.3281136
  48.1876612  18.1038475  55.3271818  47.7005196  18.0046058  54.5092106
  48.9266825  18.6677396  55.0989199  57.1579123  59.1358614  36.0687566
  56.7784786  58.7753344  35.2673292  57.4711800  58.3705282  36.5507936
  12.0360255  33.9855599  45.8202696  11.3593686  34.4277692  45.3076077
  11.6429687  33.1472659  46.0631657  76.3461731  31.1575890  28.4756994
  76.7735480  31.9920206  28.2825541  75.5243323  31.4022303  28.9010954
  30.7308459  24.3272209  33.6407423  31.3740754  24.7877049  34.1796708
  30.6292892  24.8789263  32.8651524  66.0527325  72.9277134   8.1022495
  66.4108276  72.0483208   8.2233673  66.6515493  73.3471727   7.4844301
  38.5744715  67.1868372  23.1177187  38.7381315  67.8127337  23.8231969
  38.0410647  67.6707220  22.4871898  34.3235326  51.1930084  39.8160505
  33.4808850  51.2266111  39.3632317  34.9045062  50.7367277  39.2073560
  78.4140269  51.1458445  13.2380593  78.1004081  51.9310856  12.7894282
  78.2631014  50.4366064  12.6132083  45.1793146  37.2950840  23.4351873
  45.6116104  37.7397227  24.1643286  44.2500162  37.4931669  23.5509348
  27.1272969  15.8382332  33.6787915  26.1995029  15.6361949  33.7996554
  27.2989774  15.6345785  32.7593970  68.5934250  19.8203891  49.2214298
  68.4005705  20.2822821  48.4055281  68.5559527  18.8932460  48.9864016
  26.2737298  37.4180126  17.4168801  26.1386943  38.3109808  17.7340591
  25.8360744  37.3973751  16.5658426   8.1141645  20.8840203  51.5866995
   8.4438711  21.4575839  50.8949280   8.4605449  20.0193429  51.3662815
  81.2269030  46.2727261  19.7303987  80.9019731  45.3839302  19.5865440
  80.9158604  46.7671204  18.9720738  31.5546942  26.7798901  18.6671495
  30.8361220  26.7209935  18.0375326  32.3368025  26.8965077  18.1277597
  14.8171890  52.5251818  49.1462088  14.9728203  52.6869440  50.0767136
  13.8645577  52.4740314  49.0680504  15.9269246  71.1321003  57.8661633
  15.1409634  71.3436300  57.3624229  16.4761742  70.6385798  57.2570705
  22.4906882  80.0552867   1.0083430  23.0477007  79.5907588   1.6329919
  23.0926140  80.6222744   0.5262206  67.7959170  13.8034563  65.5750477
  67.3045792  13.8606410  66.3945278  67.3621144  14.4261842  64.9917328
   2.4702938  80.7095263  11.5568352   2.8214391  81.4150585  12.1001148
   1.5216502  80.7701989  11.6691995  35.0146914  71.8255424  42.8455973
  34.7456384  71.0139322  42.4153280  35.1833439  72.4336576  42.1258831
  34.6007156  20.7815051  11.5276968  33.6671734  20.9868574  11.4770937
  35.0175095  21.4162302  10.9449112  69.8213196  58.6178446  43.2037067
  69.1465616  58.4749556  42.5399971  70.4466152  59.2100430  42.7859306
  36.8988132  47.8136015  25.2414274  36.2692881  48.5288239  25.1498342
  37.6067734  48.1837177  25.7687187  34.1580462  58.4275913  14.6598041
  33.8129306  59.0629625  14.0325642  33.4771013  57.7576971  14.7213984
  17.0951319  36.7870355  16.6292167  16.3696694  36.4729428  16.0895121
  17.2859108  37.6611090  16.2888789  39.7073936  55.1312351  31.7512465
  40.2970791  54.9909306  32.4920678  40.2808094  55.1284456  30.9848142
   5.6836802  26.7746925   2.7320170   5.4326057  26.7021251   1.8111873
   5.8206803  27.7119684   2.8697711  33.1046009  39.5923758  16.2221360
  32.9865003  38.6575794  16.3907743  33.8514638  39.6355462  15.6250060
  62.5721264  15.6359029  13.2748497  62.7907324  14.9176586  12.6810765
  63.2209921  15.5731535  13.9757538  31.3832688  22.7242613  56.8510294
  32.3165059  22.5738382  57.0015955  31.3337231  23.0367231  55.9476233
  21.5951729  53.9656878  22.7730751  21.2735748  54.8405981  22.5555134
  20.8917356  53.5737658  23.2905793  33.9957476  57.7547264   6.0643303
  33.4611702  58.1479788   5.3745395  33.6846161  56.8513966   6.1228269
  56.2707663  34.3959236  11.2894583  57.2007608  34.6169305  11.3394499
  55.9460926  34.5231581  12.1808779  16.0151064  47.4241352  37.2208333
  16.5826130  47.2306442  37.9669762  16.5827775  47.8812933  36.6003609
  25.1380404   4.7327207  69.7443913  25.1487740   5.1128457  68.8659715
  24.3466528   5.0876592  70.1493082  52.3286810  54.4354802  63.4917098
  52.3388281  53.4798282  63.5451560  51.4511433  54.6823864  63.7835943
  36.6896065  79.1832612   9.0239239  37.3344000  79.8865362   8.9472538
  36.5986594  79.0434081   9.9664748  31.4366198  36.5208101  22.6039815
  31.0704279  35.9920430  23.3128834  30.6724739  36.8897820  22.1610665
  11.4535252  66.7828112  61.4995634  11.3711182  67.5273591  62.0954590
  12.1928231  67.0085507  60.9350186  80.5534472  60.1974421  66.5642735
  80.4230990  59.5892780  67.2918569  81.3927092  60.6180983  66.7511433
  30.0238848  26.9151330  29.0858674  29.4937706  26.4791632  28.4186769
  30.7672119  26.3277864  29.2226791  47.3642969  44.5648623  13.2023263
  47.6101637  45.4356241  12.8899860  46.9546700  44.7223711  14.0529919
  42.1225119  71.8086147  32.1076751  42.5428534  72.6595259  32.2321630
  41.4946890  71.9529057  31.3996816  31.7392468  27.3724818  34.3492103
  32.5668979  27.4045444  34.8289967  31.8401814  28.0224609  33.6538196
  41.3513470  38.4019947   6.3815069  40.7397985  38.0769777   7.0422685
  41.5802813  37.6286292   5.8660215  27.0385885  67.2487593  59.2683601
  27.9334903  67.5380754  59.4463491  27.0103145  67.1276808  58.3192682
  11.7452872  77.4700642  29.0551615  12.3585153  78.1009531  28.6781144
  10.8996141  77.9181290  29.0375137  44.1251945  42.5455570   5.3592306
  44.0182400  41.6206074   5.5811769  45.0724649  42.6830387   5.3557098
  41.4137983  25.1969838  47.0298052  41.0025406  25.6137967  46.2725973
  42.0053720  24.5457268  46.6527891  40.3356123  62.8207207  11.4575672
  40.5339098  62.6157904  12.3713040  39.3966627  62.6549053  11.3732421
  37.5085664  61.3173962  38.2247090  37.5574636  60.8168221  39.0391207
  37.0203328  62.1070194  38.4578562  68.5256567  48.1189751  47.2938900
  68.1091657  48.9798062  47.3355775  68.4233131  47.8473049  46.3817769
  76.1636877  48.5329199   2.3871246  76.2769270  47.6223564   2.1145707
  76.6088581  48.5869360   3.2327819  16.1568296  27.1099091  14.3791687
  15.8663297  27.1707153  15.2891922  15.3483486  27.0158505  13.8754404
  43.1407078  27.6446889  40.7569962  43.7897356  28.3471273  40.7966381
  43.5164603  26.9412540  41.2863617  16.0445398  22.7641719   6.7946970
  16.6861862  23.1906932   7.3626792  15.3782648  22.4295752   7.3949981
  48.2204914  64.3875360  10.0510383  47.8256083  65.1879740   9.7052038
  47.4811077  63.8826036  10.3895354  44.4742346  52.3704672  11.8973887
  43.5240746  52.4741173  11.8455637  44.6700001  52.4209833  12.8329933
  33.4710288  53.1337833  41.7512274  33.9205027  52.6050425  41.0919523
  33.9509678  53.9618969  41.7620325  27.8445697  53.2112980  20.9589481
  27.3885441  53.4541941  20.1531744  27.1534538  53.1603575  21.6192484
  22.7457070  45.7077456  27.6799655  22.5474811  45.9867287  26.7860389
  22.0131207  45.1412392  27.9220796  72.4374247  80.4039955  58.8813162
  72.5278330  80.0323296  58.0038643  72.9313135  79.8090124  59.4455004
  44.8803473  64.8156214  22.0305681  44.6323681  65.5729723  22.5608110
  44.4618368  64.0720987  22.4644518  47.6598773  11.3499517  10.7507510
  47.5777755  11.7439479   9.8822684  48.6015020  11.2251968  10.8691210
  42.7248335  38.4771299  24.3101549  42.0419216  38.7948966  23.7194872
  42.3070097  37.7691579  24.8004937  43.7416220  50.1716328   6.1127490
  43.3045292  50.9359360   6.4882785  43.8342714  50.3812790   5.1833963
   1.4894098  12.7070563  28.7682915   1.8199724  12.9572528  29.6310568
   1.9373649  11.8848746  28.5693526  43.4176111  60.2515793  60.4750967
  42.5115299  60.3543091  60.1840734  43.8239527  59.7030210  59.8041248
  79.8146439  32.3777580  23.4067678  78.9705372  32.2319722  23.8339281
  79.8956728  31.6556191  22.7837253  55.1574564  49.1596699  22.1634007
  54.7245836  49.0334845  23.0077505  55.0782156  48.3126402  21.7246604
  24.1701388  43.7656641  24.9492526  23.7900496  44.5983315  24.6692109
  24.0470958  43.7533903  25.8984327   1.4174469  33.3860563  58.4673624
   0.8359726  33.5436080  59.2112034   0.9780558  32.7034066  57.9602592
  75.9316506  70.7354479  63.0945205  76.4097466  71.5403562  62.8950732
  75.0447860  71.0290699  63.3030533  78.1511784  55.7793331  56.1188602
  78.5132933  56.1633778  55.3203535  77.2319841  56.0463810  56.1175632
  47.2357416  78.1584406  15.9214032  47.0398808  79.0150785  15.5418766
  47.2594118  77.5639963  15.1715302  49.9123383  49.6216011  19.2340136
  50.3793573  50.3152847  19.6997690  50.0144005  48.8491106  19.7899616
  48.2651949  55.2271748  11.1629200  48.8800001  55.9551573  11.0718536
  48.0343580  55.2234077  12.0918608  48.8846874  43.3542585  10.2277744
  48.3638525  44.1543484  10.1584005  48.9610720  43.1990671  11.1692166
  52.0157671  54.3509054  13.6790836  52.0643854  53.8236809  12.8816485
  52.1961975  55.2443743  13.3868635  32.0837116  60.1700735  20.9854341
  32.8933167  59.7905779  20.6437397  32.3243213  60.5123281  21.8463635
  37.5346375  43.6251831   0.2258707  37.3574257  44.5658350   0.2234300
  38.3602476  43.5357618  -0.2501553  16.2168455  67.7467060  13.7278259
  16.1601293  67.8828049  14.6736026  15.3492498  67.9826546  13.3994401
  24.8748469  71.4078712  15.2445734  24.4943213  72.2701073  15.4118383
  24.6887517  70.9059191  16.0380757  57.8840685  53.1717777  45.5269623
  57.2203159  53.4629536  44.9017620  57.4458218  52.4960375  46.0442162
  26.7081499  49.9556446  15.9494483  26.3137627  49.4840336  16.6831172
  26.9075847  50.8230257  16.3017380  76.9268370  69.2716169  36.3507009
  77.1001816  68.5101461  36.9041872  76.5815163  69.9312973  36.9522047
  73.0444288  69.3160105  39.2667675  73.8595247  69.1510105  39.7407150
  72.8625536  68.4947681  38.8099170  36.6385317  52.7764893  16.4637899
  36.5670443  51.8351698  16.6220295  35.8934832  53.1550789  16.9304872
  41.2818670  48.9434958  32.1297050  41.3685465  49.2856598  33.0194473
  42.1830988  48.8340855  31.8263102  41.2622833  60.2968931  23.5187674
  41.1901426  61.2042189  23.8150620  42.0793390  59.9827242  23.9060020
  55.6173706  53.4571171  37.6370478  54.8102045  53.6582661  37.1634936
  55.3284883  53.2510757  38.5260510  43.2144594  80.6269646  38.8527894
  43.9278936  80.0027943  38.9856482  42.4281168  80.1531315  39.1236711
  41.3744974  60.6026554   7.0751077  41.1656761  60.0609303   6.3140845
  41.8432474  60.0140381   7.6667434  33.4767485  59.5121527  43.4843206
  34.4053841  59.5158005  43.7163830  33.3267021  58.6438513  43.1104660
  45.3789902  49.8729134  29.1482568  44.7125196  50.4359531  28.7545156
  46.2109518  50.2587509  28.8740301  42.8630066  32.3893428   7.6356071
  42.0796585  32.6837826   7.1709532  43.4507418  32.0838881   6.9445980
  61.3549614  80.3466892  29.2735910  60.7373142  79.9841595  28.6385202
  60.8887005  81.0842896  29.6670055  11.5057027  77.3898554  19.3363035
  10.7439101  77.8833818  19.0324438  11.1656392  76.5144920  19.5215869
  22.6899719  58.6849308  40.7986879  21.7546391  58.5857391  40.6210804
  23.0511832  57.8067923  40.6777096  57.0686960  42.9872036  64.6447420
  57.4097347  43.1178474  65.5295324  56.6539574  42.1249723  64.6728039
  30.8870316  50.1045036  16.0348165  31.7057514  50.5984354  16.0791028
  30.5563903  50.1078653  16.9330907  18.4542358  44.8932600   3.7291968
  18.6983049  45.0259638   2.8131992  18.9836216  45.5276537   4.2124438
  37.2999525  48.0881310  13.8752580  38.1072211  48.4531212  13.5128593
  37.5882936  47.3367214  14.3934000  67.5564957  50.9954691  14.3194342
  66.6403294  51.0572243  14.5897162  67.6118422  51.5402412  13.5343266
  53.4689951  70.6795120  17.6552308  53.3188105  70.0386143  18.3501589
  53.0179071  71.4685440  17.9555261  11.4155817  70.7037020  25.1139712
  12.2039306  70.3428888  25.5196214  10.9875453  69.9491167  24.7094774
   5.6610425  12.6779197  65.2986359   5.9325250  13.4304736  65.8241790
   4.7066339  12.7420161  65.2636384  32.9900177  32.6489900  70.3620937
  32.4630650  32.2897886  69.6482833  32.6450022  33.5321162  70.4935612
  41.0855007  55.3681421  29.4532728  40.5852938  54.6861601  29.0050220
  41.9072819  55.4222059  28.9654374  47.6349783  41.0533381  47.1357346
  47.7154350  40.3734207  47.8046656  48.4860229  41.4914703  47.1359730
  22.0490026  57.8187609  21.1041784  22.2881746  58.2290316  20.2730918
  22.4176526  56.9370127  21.0508418  43.6088324  68.3798981  13.3384681
  43.2445240  69.0226746  13.9470363  43.9196777  67.6688528  13.8988411
  54.4683456  63.9032221  38.9219713  53.8107061  64.5311451  39.2210603
  54.5529890  64.0735912  37.9838657  84.0711880  50.0599718  17.8117979
  83.3721352  49.6456099  17.3059714  83.9669895  50.9962273  17.6420772
  85.9685705  70.3122187  24.7964454  85.2224447  70.7748890  24.4150496
  85.7638034  70.2558756  25.7297873  41.2483978  69.2533493   2.4669583
  41.1296701  69.8838568   3.1773064  40.4131699  69.2592049   1.9994186
  61.2495756  33.4866428  21.1812639  61.2746668  34.0612912  20.4161620
  60.4036522  33.6692166  21.5902996  79.4451968  54.7949600  24.2994475
  78.8149337  54.8745584  25.0154519  80.2921055  54.7000217  24.7352958
  48.7884760  52.8600740  41.5054893  48.9037323  53.7949228  41.3351822
  48.2478762  52.5491905  40.7793093  49.2924166  26.0338855  53.1814384
  48.6847067  26.7228818  53.4501457  49.4014740  25.4924393  53.9632130
   0.8098175  72.3647785  27.5096774  -0.0412987  72.4231339  27.9437613
   1.3935234  72.0002985  28.1750107  51.9211531  76.0056734  17.3237932
  51.1899948  75.6679821  16.8064868  51.7209959  76.9339752  17.4438822
  20.1108956  66.2201309  41.9068670  20.8505821  65.6132364  41.9347000
  19.4188297  65.7338428  41.4587545  46.9311619  66.8963766  41.9959688
  47.1936131  67.8147030  41.9325066  47.7376223  66.4316893  42.2193909
  14.9051106  48.0978203   9.9696350  15.7838166  48.3782482  10.2254999
  14.8288393  48.3571005   9.0513813  18.4200138   8.7433474  55.4536343
  19.1467231   8.6010211  54.8471069  18.7882703   8.5554354  56.3169479
  59.8426294  73.9689398  27.2779393  59.9625158  73.2840300  27.9357815
  60.6823349  74.4278097  27.2541571  57.2668409  70.9417772  22.5016832
  57.2409201  71.3508463  23.3666825  57.6186419  71.6208315  21.9260526
  37.2735065   1.3571208  13.6369336  37.2534412   1.8809359  12.8360319
  36.3888305   1.4324038  13.9945877  12.7351665  52.4511290  29.4921422
  12.0715868  51.9210863  29.0506172  12.2550094  53.2113504  29.8203969
  31.1171007  31.3493276   9.7793275  31.2394214  32.2894979   9.6476221
  30.6118345  31.2847424  10.5897391  20.8873081  68.9322853  29.6664405
  20.3158522  68.4492016  30.2633500  21.4929771  68.2726669  29.3283629
  81.2251534  62.5563531  69.4036784  81.7732396  62.9932695  68.7518064
  81.6878285  61.7412620  69.5980759  51.5418100  52.8275061  66.5388203
  50.8519697  53.0858183  67.1500731  52.1072721  53.5973215  66.4765978
  54.6610498  58.9685917  29.9694371  55.4524422  58.4302187  29.9787760
  54.9837208  59.8692703  29.9992990  23.2091022  71.5443087  38.4845114
  23.3057284  71.6444445  39.4315434  23.4138036  72.4095774  38.1300521
  60.5725479  59.6875334  63.2177734  60.1033354  59.7609377  62.3866987
  60.6037235  60.5827808  63.5551023  58.1530619  40.2815628  10.8607030
  57.4593401  40.0444078  11.4761257  58.0868959  41.2330770  10.7802582
   5.3456992  53.7418604  20.8588982   5.1679534  53.0905199  20.1803732
   4.6467063  53.6160755  21.5006304  43.2625914  55.5868053  28.1160069
  43.2620716  56.3798094  27.5799298  43.6742163  54.9235106  27.5620794
  60.5232382  62.9161215  24.0575647  59.8952150  62.1938038  24.0491343
  61.3112497  62.5531006  23.6532259  71.4778662  31.4385080  15.3612065
  70.5724049  31.1444688  15.4607546  71.4885664  31.9016886  14.5236015
  18.6730774   2.3474191  59.6592563  18.1832226   2.0659803  58.8865583
  19.3522366   1.6817020  59.7678726  37.6541781  72.3574686  37.9029155
  38.0454731  72.6811695  38.7142944  37.0975542  71.6294289  38.1792474
  41.5870571  32.2330260   2.8535923  41.0918188  32.8267002   2.2892174
  42.3257160  31.9504285   2.3143728  44.1657543  33.5142159  18.8916588
  43.5373402  33.6223984  19.6055353  43.6714697  33.0700922  18.2026982
  60.1298618  45.9651184  52.9896545  60.2765894  45.3640556  53.7200212
  59.3518162  46.4625835  53.2414579  42.6561928  67.0838404   4.2887715
  42.6309395  67.7338362   3.5865599  41.7471170  67.0094490   4.5790845
  46.9519329  68.3169985  45.5446815  47.4844837  69.1025972  45.6690025
  47.0884132  68.0777216  44.6279716  38.4819746  68.9032745  35.6408739
  38.5632396  68.4816980  34.7853613  39.3845415  69.0709162  35.9119797
  48.0214643  55.3266573  49.8452234  48.8115835  55.4294825  50.3756666
  48.1768942  55.8739138  49.0754271  41.2385615  27.1964572  62.4215674
  40.6662520  26.4565013  62.6244413  42.0025118  26.8004678  62.0022874
  68.5133696  62.2271585   4.8799822  68.8713646  62.1349907   3.9970449
  69.0054226  62.9532051   5.2633548  12.4853223   2.2047084   8.2198644
  11.5703767   2.3216574   8.4756494  12.9617589   2.1587508   9.0487963
  26.8370574  27.3295634  26.4251280  26.5111774  28.1955188  26.6704106
  27.6100391  27.5074713  25.8893347  54.9633121  55.8663988  40.9886789
  55.3279781  56.1415911  41.8298197  55.7281208  55.7259655  40.4304886
  18.4593290  16.4639228   6.7680621  19.3660253  16.2178366   6.5848184
  18.5088390  17.3834746   7.0292270  75.3188602  13.3941787  32.9255128
  75.2283708  14.3457454  32.9761672  75.5948631  13.2274668  32.0242548
  66.0420656  55.0669670  41.9705009  65.9396172  54.8817873  41.0369873
  65.1775646  55.3668261  42.2514820  59.1852808  58.1665325  30.6153941
  59.6288252  57.8701448  31.4101624  59.8802042  58.5550022  30.0839806
  64.8483229  59.2410278  42.3251200  65.0356483  59.9654388  42.9220819
  64.1173840  59.5531416  41.7916918  44.0142202  67.3120880  23.6316395
  43.3519125  67.5870895  22.9976392  43.5108948  66.9974804  24.3825841
  82.3288576   1.6514724  27.8520942  83.1942073   1.4543288  28.2106161
  82.5047104   1.9891970  26.9738865  70.5350971  41.2789583  38.4769750
  70.4376173  40.4774761  38.9911294  70.5836487  40.9771967  37.5698829
  33.2139152   7.0903819  40.4621410  33.0849975   7.5154727  39.6142578
  33.3918899   7.8108542  41.0666895  43.6368132  54.9597549  22.7073073
  44.1927338  54.4284916  22.1372700  42.7675724  54.9081993  22.3098302
  37.3972416  75.9500933  13.7601018  36.6291785  75.6619358  13.2668686
  37.2527218  76.8853855  13.9035428   9.4442608  74.3083954   8.3642101
   9.9912502  74.9523926   8.8139850   9.0202095  73.8198423   9.0697110
  43.2742596  56.9194984  50.5566645  43.0574369  57.5198412  51.2699747
  44.1938257  57.1007156  50.3622580  69.3743372  65.1934338  42.1455050
  69.9728346  64.6051788  41.6850758  69.4803858  64.9677229  43.0696487
  69.2472172  72.9712868  26.3425231  68.8370609  72.8069305  25.4934120
  70.0209761  73.4960413  26.1371922  43.8897419  69.5805025   9.3639231
  44.2672634  70.0035000  10.1351416  44.1691971  70.1275253   8.6298227
  44.0839767  74.8994303  52.6438522  43.6287546  74.0596437  52.5825262
  43.4855461  75.4608250  53.1367493  80.9366035  70.0224257  26.8387699
  80.1315689  70.5394173  26.8093300  80.6446552  69.1179085  26.7254138
   6.9274467   1.1210959  43.2228899   7.6765531   0.7952731  43.7217951
   7.0182603   0.7141917  42.3612595  69.3968868  45.8997774  15.9406102
  69.0591431  46.3105202  16.7365062  69.4192362  46.6076803  15.2967095
  52.1076345  65.5002594  31.3115311  51.3439560  65.9287977  31.6980338
  52.1844244  65.8882761  30.4398799  68.4955883  74.0455580  50.3391027
  68.2341909  73.7732267  51.2187290  67.6695681  74.2017221  49.8813534
  59.9197340  47.2586727   7.4820751  59.0790892  47.1309423   7.9216629
  60.5588245  47.2964478   8.1936723   3.7829679   1.7676394   7.9461473
   3.2588905   1.4885562   8.6969393   4.5333141   1.1733382   7.9436362
  86.4314270  52.3627996  24.8464155  86.1977291  51.4464712  24.6982360
  86.9356060  52.6097775  24.0711522  74.2664194  68.8122320  31.6216755
  74.6063757  69.6187067  31.2340426  73.3894110  68.7188530  31.2496996
  53.1286955  78.7607384  32.3560882  53.6871004  79.2429924  31.7462993
  52.8169155  79.4243813  32.9713964  62.6269374  37.1460313   5.0570817
  62.9798923  37.0069189   4.1782708  62.8016028  36.3254995   5.5179972
  35.9545565  42.1029758  14.3651223  36.4324546  42.5701571  13.6798573
  35.2975225  41.5916109  13.8928473  72.1171284  52.6270199  39.4045281
  71.3230371  52.1128321  39.5503473  72.7291584  52.0127392  38.9991713
  46.1360884  43.9579391   2.5630891  46.8198490  44.6234655   2.6391235
  45.3969145  44.4182873   2.1656807   2.9484790   3.0665629  33.7484479
   2.0950502   3.4414332  33.5308385   3.2485383   3.5753291  34.5016718
  60.5502892  42.4309254  52.6430988  60.4696512  43.0604649  51.9265747
  61.4790726  42.4484444  52.8739357  44.9342442  70.6754255  39.6959591
  44.7171831  70.1673937  38.9142799  44.2292833  70.4787064  40.3128624
  64.9090672  63.4643126  23.7303829  64.3635368  63.5861874  24.5074129
  65.7179499  63.0762720  24.0640926  38.8285589  69.9847507  30.7582831
  39.1737032  69.1714001  31.1264777  38.3300090  70.3790474  31.4739728
  78.4826509  -0.0081117  59.0258503  78.0728714   0.8560698  59.0645885
  78.8315384  -0.1474340  59.9062490   7.9765941  46.7022467  17.0181453
   7.7668907  47.2634220  17.7647007   7.4627735  47.0629692  16.2955809
  49.5715102  53.9375613  47.7372222  49.8509034  54.8162387  47.9943185
  48.7276657  53.8175033  48.1728177  74.6831465  28.7093568  34.2797065
  74.5485783  27.7618313  34.2975378  75.6341696  28.8165689  34.2967963
  44.4872475  38.4539795  17.5255656  44.6022177  37.8596497  18.2670426
  45.3618574  38.5340309  17.1449280  57.2599936  67.5287342  15.8143258
  57.6937819  66.8763113  15.2644134  57.7329874  68.3422613  15.6391668
  14.9076366  43.8139677  51.3677216  14.7547626  42.8690529  51.3656902
  14.1956019  44.1706467  51.8987751  44.4753865  15.0948947  47.6754951
  44.9051372  15.7019942  47.0730162  45.1907508  14.5764678  48.0438900
   1.3071086  61.9421053  40.3482676   1.1954372  62.8418589  40.0413465
   2.2468965  61.8590927  40.5099440  78.9362288  39.3164229   9.8835063
  78.7033224  39.6832228  10.7364094  79.3868017  38.4975171  10.0899243
  50.6598949  69.2314196  61.3412714  51.4370394  68.6971474  61.5050745
  50.2273607  69.2924976  62.1929884  37.4266577  58.9924860  12.6575208
  36.5406156  58.8693047  12.3169506  37.6401639  58.1588793  13.0767369
   8.0859512   6.1903136  47.5287580   8.3162683   6.9938224  47.0623159
   7.4593919   6.4716285  48.1954813   0.0901359  28.4981959  48.7325954
  -0.2451617  28.1469863  49.5574951   1.0333913  28.3399241  48.7706900
  57.1621132  55.8788586  33.7588906  56.9153070  55.7845974  34.6789074
  56.9124794  56.7752934  33.5345721  11.3426298  10.2838557   5.1096189
  11.8449872   9.6125453   4.6478707  10.7058805  10.5923121   4.4649220
  51.3278294  60.0698996  16.6688669  51.0011053  59.6453047  15.8756447
  52.1044922  59.5643711  16.9085884  13.7836226  37.4186538  66.0345697
  13.5168656  36.4997361  66.0604110  13.7448223  37.7050708  66.9470902
  46.1031866  51.9303179  25.8231640  46.4093256  51.9698334  26.7292285
  45.1510334  51.8631411  25.8947754  11.9762891   6.8205493   1.6988602
  11.7341941   6.7923491   2.6245096  11.4538520   6.1284869   1.2934661
  66.9180822  70.4408836   7.5645190  66.3315439  69.7398758   7.2802764
  67.6708555  70.3763771   6.9768083  78.6879166  39.3701194  63.7541305
  78.6229142  38.5013602  63.3575606  79.3908604  39.8026965  63.2693808
  65.4582739  53.2911205   3.0313089  65.2917099  52.8799582   2.1831143
  66.0595226  52.6920891   3.4739131  39.6716952  41.8210649  29.0113401
  40.4147720  41.8752718  29.6122813  39.6635437  42.6670551  28.5636044
  72.4100447  60.1983500  52.9821491  72.1983242  59.9418831  53.8797188
  71.9954014  61.0542059  52.8734636  51.3430643  56.6090870  37.2794294
  50.6861019  57.0748901  37.7967858  52.1717310  56.7953968  37.7208281
  63.5906839  60.4904366  24.2344618  63.1699419  61.0320330  23.5667133
  63.5573721  59.6024799  23.8785839  64.0720940  80.4985809  29.2199969
  63.1730843  80.2131844  29.3829727  64.0468216  81.4482784  29.3369293
  81.5277950   2.4814933  23.4274483  81.4952604   1.7441695  24.0369773
  81.8881027   3.2028907  23.9431977  12.8894281  57.3890162  35.6171036
  13.3252037  58.2200766  35.4282403  12.4276173  57.1713066  34.8074341
  66.4224577  60.5387640   9.6063757  65.7631302  60.3038692   8.9534211
  66.1116171  61.3662195   9.9736911  40.7628727  64.0620089  16.2265253
  41.3617802  63.7414646  16.9009066  39.9521852  64.2540884  16.6978264
  41.9478559  64.9950886  34.5179534  42.7247953  64.6306276  34.0939665
  41.9238806  65.9077120  34.2302465  83.2522480  15.1849883  49.2002392
  84.0305654  14.6555655  49.0265417  83.5562126  15.8692305  49.7966099
  44.6476078  58.1315184  17.8900647  44.2525768  57.6019859  17.1974027
  44.1659546  58.9582872  17.8636885  62.4416304  56.3301802   5.7039315
  61.9686079  55.5703402   5.3646344  61.7686796  57.0020819   5.8131027
  83.1497955  70.0661325  31.8508887  82.7038479  69.5228434  32.5006580
  82.6154327  69.9822426  31.0611725   2.6902622   9.2071288  16.9579637
   3.0769485   9.7956603  16.3096333   2.4719137   9.7750514  17.6968944
  78.3542109  63.6226082  23.7242317  78.0453205  63.4022331  22.8454518
  78.0534267  64.5202351  23.8657403  41.5439510  74.6760702  30.5246091
  41.2771511  74.9752426  31.3938284  40.7940006  74.8723316  29.9631095
   1.1147722  24.5577357  59.8121040   1.5915044  24.0494178  60.4682856
   1.7511853  25.1999639  59.4978588  49.7988462  77.6017141  37.2497988
  50.6566811  77.9436207  36.9979095  49.3656969  77.4058485  36.4189839
  53.3141041  62.6690960  25.0266147  52.8708267  63.1489849  25.7262182
  53.3279753  61.7614508  25.3302979  70.5673313  70.2577591  35.7221889
  69.7573757  70.7503176  35.8547974  70.5221415  69.5460939  36.3607240
  72.3937790  43.6086409  38.9868498  73.3386985  43.4726947  38.9170265
  72.0093719  42.8310340  38.5821390  52.8812416  17.6938222  61.3568085
  52.2048005  18.3671497  61.2840449  53.6646279  18.1700776  61.6319876
  81.3925687   9.9710696  42.1678591  81.9976226  10.5921309  41.7623663
  81.3594524  10.2346080  43.0874729  68.3030734  11.6797132   3.8079876
  67.7028403  12.4248809   3.8342328  68.9608607  11.8784256   4.4743676
  52.4875498  67.1720457  29.0064454  52.9961300  67.9769325  29.1051030
  51.6387892  67.4642467  28.6740923  40.4009581  66.6834688  40.2449894
  40.6290007  66.1749554  41.0232210  40.3192186  67.5829220  40.5620718
  56.0585737  64.5358992  47.9701376  56.7719078  64.9477720  48.4577370
  55.7229614  65.2308655  47.4039078  34.5874755   3.7779086  38.7942624
  35.3890208   4.2962115  38.8657832  34.5564429   3.5103171  37.8757501
  39.0757918  56.3476658   4.1032737  38.1716037  56.4484739   3.8057587
  39.3344092  55.4795980   3.7937477  64.9688911  71.7997646   5.4969025
  64.7398520  72.7262831   5.5699980  65.8660507  71.7480993   5.8265555
  15.8787340  18.6116736  23.1677961  15.2212518  18.8990348  22.5342536
  16.7163938  18.8313811  22.7600145   3.6625339  45.4877138  45.4222250
   4.2176868  45.9696770  46.0351992   2.9333927  46.0811090  45.2420092
  27.5893402  69.2139482  52.7937078  27.3777676  68.4046364  53.2589865
  28.0482602  68.9240026  52.0053196  22.4887037  64.6700144  21.4280581
  22.5861812  64.1033602  20.6627893  21.5570331  64.6242666  21.6428399
  79.6583462  44.1761923  13.1478643  80.4733849  44.4941235  13.5362828
  79.0299606  44.8824406  13.2981122  19.3658066  57.4752188  11.3484657
  18.9021063  58.3117294  11.3102138  20.2003956  57.6830006  11.7686105
  77.2687721  52.7742052  10.9178555  76.5370607  52.2627926  11.2632310
  77.6815081  52.1976900  10.2748048  47.8333426  70.7851315  17.9425287
  47.9643536  70.5751181  18.8671696  47.1064043  70.2250242  17.6703656
  75.0753403  12.5509405  35.5960393  74.9394655  12.8854287  34.7095370
  74.6557903  13.1979799  36.1630917  34.8282576  63.7254858  46.3302660
  35.4430509  64.0928030  45.6951714  35.2940726  63.7658072  47.1655035
  64.7788763  45.8364010   2.4054444  65.2827597  46.0732508   3.1840566
  65.2072906  46.3071585   1.6905448  75.4193830  22.5551033  22.4436617
  75.9225702  22.4897265  21.6320205  74.6565247  21.9955158  22.2982597
  77.7702848  26.9147818  16.2701142  78.0458585  26.5494101  17.1108246
  78.3959953  26.5604441  15.6383204  69.7311020  50.4908943  32.9180288
  70.6718159  50.3252792  32.8558493  69.6669817  51.3887310  33.2436180
  73.8705111  76.6190004  38.8868713  73.1284618  76.6339684  39.4913268
  74.5619678  76.1641169  39.3677044  61.3255215  72.0860958  49.3299150
  60.4418182  72.1534872  48.9683056  61.3085985  72.6421022  50.1088905
  63.9628601  63.4258938  19.3157411  63.1293392  62.9556656  19.2967367
  64.3272686  63.3029270  18.4392035  61.4626312  66.2215805   4.9389970
  61.7238235  65.3507423   4.6395779  61.4395332  66.7518091   4.1424069
   9.4449283  73.4279156  36.0944128  10.2529289  73.1634569  35.6546187
   8.9763405  72.6075315  36.2481284  79.6250343  62.9034996  34.2400885
  79.8850775  63.7391376  34.6278000  78.8779545  63.1203985  33.6823606
  58.9896345  77.6148224   8.7406880  59.1580391  76.8187666   9.2448419
  59.4638062  78.3007669   9.2106557  38.8609838  59.2510176  39.9422812
  39.5238209  59.6374130  40.5146265  38.0318236  59.6070290  40.2616262
  19.7698629  48.4916353  43.0377817  19.4209409  49.1939592  43.5866213
  19.6461034  47.6974821  43.5576248  44.2538500  78.9005327  24.9467874
  44.5365715  79.8022318  25.0992441  44.1153383  78.5415220  25.8232307
  56.3029575  51.5523863  54.0085745  56.8509865  52.1589327  53.5105801
  56.8720245  51.2364864  54.7104311  12.9741090  10.9499781  62.2601509
  13.2921976  10.0824111  62.0103931  12.1164220  10.7868045  62.6525545
  46.9863510  57.7075863  42.3724461  46.0822344  57.5438166  42.1041346
  47.5122929  57.4368811  41.6198921  37.2400832  71.3400173   4.4543457
  37.6355505  71.3935184   3.5843018  37.6504731  70.5748987   4.8573405
  29.3825954  11.2576335  43.1825590  29.0351051  10.9734004  42.3371649
  29.1302722  10.5630820  43.7909746  55.7775680   3.0357402  12.2548044
  55.6697051   2.9304545  11.3095462  55.2055971   3.7691920  12.4809170
  85.7824516  72.7130270  56.3628387  85.8758259  72.1370745  55.6040335
  85.6250477  72.1188498  57.0966005   5.8121063  62.5576973  63.4222031
   5.1191570  63.0346060  63.8789511   5.4686024  61.6693783  63.3266640
  65.6096045   4.8704760  21.3757300  65.4396288   4.9621241  22.3132467
  64.8348300   5.2424948  20.9543538  15.8402580   7.1689360  54.0941143
  14.9758380   7.5022643  54.3347359  16.2690490   6.9891494  54.9308062
  24.6784282  40.8708286  25.2999425  24.6686316  41.8224621  25.4025888
  25.2861452  40.7141304  24.5771980   2.6618816  76.1852026  65.2185535
   1.7067386  76.1296892  65.1895714   2.9062225  75.6997252  66.0064888
  76.5889454  61.7498207  46.8534565  76.5668917  61.9135046  47.7963018
  77.3008108  61.1207581  46.7361593  64.9500847  74.8566580  23.7042046
  65.0313854  75.7120752  24.1259670  65.7665157  74.4053316  23.9186192
  73.7428570  43.3528662  16.8488276  73.2097912  44.1475201  16.8243694
  74.4869947  43.5459852  16.2785733  80.4569856   3.2415908  17.1896458
  79.6650306   2.9941600  17.6669478  80.9789936   3.7280982  17.8276539
  86.3269234  76.2932301  27.8702617  87.1470070  76.7588425  28.0342555
  86.1859512  76.3811636  26.9275928  66.7590618  77.5912476  50.7704306
  67.6760721  77.4677467  50.5253458  66.2818861  77.5490236  49.9417257
  84.7312450  42.7534866  21.9423842  85.5094147  42.3618364  22.3389792
  84.8308086  42.5874281  21.0049701  44.4046879  73.9944601  19.1239989
  45.0893879  74.6555567  19.0222085  43.6752892  74.3220901  18.5978138
  32.6339156   1.3703578   2.8905854  33.2585610   2.0955985   2.8818434
  31.9043044   1.6890567   3.4219337  53.4995564   8.5210584  69.9423273
  53.5109433   8.5781930  70.8977527  54.0417488   9.2545388  69.6520466
  22.1338504  13.4412711  31.7166209  21.7004913  12.6625388  31.3673306
  22.6733345  13.1128447  32.4358773   0.8766987  77.1496534  40.6334591
   0.9989502  78.0736542  40.8514261   1.2449695  76.6767597  41.3797665
  38.2878017  56.4761972  13.7736237  39.0193295  56.6341734  14.3704021
  38.3689237  55.5529213  13.5344267  54.0463543  55.4434347   9.9030578
  53.8308048  56.3635397  10.0552809  53.5041428  55.1908779   9.1557610
  13.1394046   6.5145629  36.9665885  13.9090579   6.6617148  36.4168501
  12.3999732   6.5594142  36.3603997  44.4060580   8.5085719  31.8355107
  43.6150781   8.9940493  32.0698071  44.8589198   9.0754836  31.2111950
  61.0074520  79.5199156  38.0838871  61.4175653  79.0236855  37.3755097
  61.6385651  80.2094841  38.2898474  26.8764742   6.0517810  64.2778145
  27.2393711   6.9254134  64.1318398  27.4270543   5.6753753  64.9644100
  51.5811586  59.6822882  43.3920383  51.3173389  59.7789860  42.4770069
  51.8272400  60.5661106  43.6650372  81.5115873  22.1852057  53.7466669
  81.0259287  22.7631705  54.3351507  82.4298660  22.3243277  53.9782810
  78.0294704  61.9181013  39.0982580  78.4463692  62.5607061  38.5242438
  78.6757517  61.2170267  39.1821980  67.8965187  16.3787162  20.9113145
  67.5434923  17.1325374  21.3839221  67.8691864  15.6633902  21.5467620
  67.5789976  65.9238005  51.0945034  67.8989220  65.2812576  50.4612446
  68.2265377  66.6282606  51.0688877   9.6148731  50.1637459  24.7336602
   8.6940052  50.0847673  24.4846749   9.9205543  49.2599344  24.8105669
  14.4499409  65.6432199  36.0441566  13.9662945  65.9117556  36.8253136
  14.0410757  66.1316061  35.3296351  36.4105361   0.0068229   8.6620557
  36.3207382   0.7257121   8.0364585  37.0586246  -0.5757482   8.2660538
  73.9439289  16.3205188  10.4545319  74.8196165  15.9400504  10.3864098
  73.4015028  15.6124633  10.8018816   4.2179292  11.0398619  19.5130563
   4.2300933  11.5517562  18.7043214   3.2948249  11.0114138  19.7646487
  72.2649097  73.7288666  41.7678976  72.7006865  72.9106188  41.5295601
  71.3307333  73.5283756  41.7100906  26.7218713   5.7620852  39.3517184
  26.2064211   5.0798552  39.7819638  27.4617324   5.9105246  39.9406171
  85.4275076   0.2406924  45.1338530  85.0723592   1.1271136  45.1997948
  85.6873981   0.1544135  44.2166567  48.8009977  75.1104879  40.4990482
  48.0076408  75.4884863  40.8784342  49.4902039  75.7411289  40.7076550
  66.3954735  71.4955425  48.4270906  66.8963766  71.0893440  49.1344309
  66.8604088  71.2437916  47.6291609   0.5498173  75.9406137  43.4570789
  -0.1542710  75.6087732  44.0141869   1.3494541  75.5834484  43.8434172
  73.1569910  69.9515963  18.4621358  72.2065353  70.0476933  18.4018648
  73.2942057  69.0159512  18.6103439  28.1041734  71.1022692  60.4512065
  28.9254395  70.6330090  60.5980330  27.6143758  70.5445247  59.8468476
  45.9175881  14.8191093  39.6086460  46.8475541  14.5924781  39.6027713
  45.7436140  15.0934814  40.5090290  33.8914021  20.9673427  44.3104320
  34.4665297  21.3723252  43.6612373  33.4488161  21.7043946  44.7312694
  58.5739136  72.4698830  16.8840289  57.9824877  72.0559025  17.5125694
  59.4213343  72.0540619  17.0427883  27.7664711  60.5047274  19.5476890
  27.7590706  59.7243881  20.1019907  28.6720993  60.8129740  19.5801139
   8.0351672  34.2215271   1.0399003   7.4428854  34.8009414   0.5606169
   7.6670752  34.1796608   1.9225020  46.8124628  58.5855150   3.8260105
  47.6029253  58.1422234   3.5179541  47.1185398  59.1618061   4.5263231
  42.2742319  58.4151363  65.2999210  43.1334257  58.3890247  64.8788071
  42.1704912  57.5456810  65.6865931  11.1814254  19.6811335  20.9247851
  10.7717699  20.3204768  21.5075898  10.9709114  18.8325255  21.3143730
  35.7336211  74.2722654  41.2197113  36.6210365  74.0663671  40.9258890
  35.6695914  75.2239609  41.1396933  39.0150642  53.9535046  12.2960699
  38.8931108  53.4053516  13.0712378  39.1487145  53.3311176  11.5812230
  52.5305478  12.3124068  53.2071257  53.1303374  11.5775912  53.3357191
  53.0712978  13.0900042  53.3455181  23.4236693  46.3640881  24.7334671
  24.1977811  46.6989899  24.2808938  22.8793693  47.1374607  24.8813272
  52.4583817  77.8825092  36.2826872  53.1040049  77.7371216  35.5911207
  52.3242474  78.8302374  36.2897348  38.0762839  57.6546478   6.5817863
  37.4749708  58.2862234   6.1871195  38.0216146  56.8853331   6.0148609
  55.2049541  16.7076814  33.5339165  55.1664209  16.0792899  32.8128958
  55.7687092  17.4100089  33.2096553  60.2500916  66.9132137  17.8015673
  59.6587515  67.0600653  17.0633352  61.0705090  66.6292238  17.3984587
  56.7596062  44.8657630  69.5859092  56.3939198  44.1224693  70.0655190
  56.5893753  45.6210921  70.1486996  75.5692236  16.2603991  17.4004352
  75.3857843  15.5861514  16.7462373  76.5215866  16.3553946  17.3859334
  50.0119543  58.3993673  38.8966370  49.6841288  59.2712259  38.6761093
  49.2559481  57.9467249  39.2705369  47.1858080   9.4207214  60.4932898
  46.8976220   9.3461011  61.4030217  47.6903113   8.6226915  60.3356367
  10.4919197  42.3681927   0.5711555  10.9822800  42.1704197   1.3690716
  10.3507377  43.3143187   0.6051067  66.6776951  14.6832536  68.3879415
  66.4090069  15.5900453  68.5355043  66.7543610  14.3102382  69.2661277
  80.5993215  21.1119502  18.0518878  80.8991233  22.0208972  18.0640876
  80.7599537  20.7948058  18.9406252  86.3109112  59.4055843   0.9874231
  85.7411194  58.6570501   1.1642423  85.7264233  60.0710297   0.6243905
  28.6302805  44.6819925  34.6681333  28.2194734  44.0149975  35.2182126
  27.9470873  44.9341965  34.0469432  29.0835118  79.4636965  48.0214214
  29.7285032  78.8597584  48.3894920  28.4144616  79.5431566  48.7013388
   4.3149036   7.5535052  44.1548443   3.3687585   7.4261992  44.2243576
   4.6792167   7.0408004  44.8763943   3.9519463  51.9971771   1.2625832
   3.2361970  51.5545196   1.7186398   4.4526086  51.2887401   0.8580060
  41.2566471  57.5598240  18.1241620  42.1926403  57.4525404  17.9549289
  41.1424112  57.2716236  19.0297675  20.3009605  76.9901657  17.1230340
  20.8050179  77.0318270  16.3103700  20.9152603  77.2725105  17.8006387
  22.2447389   6.2712519   8.2771975  21.5599531   6.7196601   8.7734079
  22.0141595   5.3440326   8.3348709  17.4400665  68.5620928  59.3365955
  17.9967262  69.3407583  59.3305969  18.0186703  67.8562498  59.6250963
   9.4210285   7.3383277  55.7597828   9.9336332   7.3538916  54.9515581
   8.5193580   7.2018283  55.4689455  28.9485401  42.0238726  14.4650567
  29.8258728  41.6459124  14.5255673  29.0991538  42.9634421  14.3613851
  61.5763378  56.3058186  45.1315737  60.9974241  55.6262064  44.7862911
  61.6261721  56.9564915  44.4313097  58.8622332  69.7659016  32.3773932
  59.3890095  70.5317879  32.6057720  58.6230040  69.9043655  31.4609718
  36.6883969  75.4105425   5.9612423  36.4394522  74.5767212   6.3599908
  35.9850407  75.5982685   5.3397286  61.4380646  70.6307030  15.8680654
  61.3002968  70.7568836  16.8068576  62.1282959  69.9697256  15.8139896
   1.6835358  64.1637087  25.9380674   1.3846161  64.7009087  26.6717505
   1.4827396  64.6859312  25.1614070   2.5193931  51.5909863  24.9011159
   1.9480564  51.9029427  25.6028938   2.2849037  50.6692410  24.7932625
  82.6401273   0.5457728  53.3486462  83.5841838   0.6994193  53.3114862
  82.5179998  -0.0098092  54.1184855  72.1414804  20.2932334   3.1115207
  71.6647005  20.2582502   2.2822513  72.2840643  19.3758845   3.3447027
  41.2915271  12.8233950  49.7715187  40.3526729  12.8626197  49.5892143
  41.6977924  12.7094405  48.9123344  80.6538010  69.4614029  55.5192947
  81.5145588  69.5315075  55.9320879  80.6980228  70.0562382  54.7706652
  76.2012903  14.8432868  10.6076348  76.2517015  13.8878577  10.5785525
  76.9432298  15.1058047  11.1524677  84.3144703  77.8117657  42.5936222
  85.1880741  78.0727577  42.8850460  84.3036270  78.0142117  41.6581392
  43.1421900  79.1095304  45.0872278  43.8210583  79.7129774  45.3892660
  42.6558828  78.8803053  45.8791828   1.5813201  16.1761897  50.9218645
   1.3994878  15.4259818  51.4878654   2.4103540  16.5266269  51.2476397
  44.1509914  62.7865124  36.1064124  43.9623499  63.0494308  35.2055669
  44.4261217  63.5947466  36.5391850  22.5941803  62.6708746  44.9726439
  21.7374374  62.3215246  44.7273159  22.7992775  62.2410536  45.8029556
  81.4696495  22.0443194  36.2422514  81.6031257  21.2080233  36.6883683
  82.1963350  22.1036093  35.6220579  20.2792734   5.2664702  50.8280516
  20.0132936   5.6946128  50.0143051  19.6215099   4.5849269  50.9662008
  52.2830105  50.2243471  59.6744823  52.9148674  50.5866098  59.0533876
  52.0515347  49.3701172  59.3098783   8.1774801  14.9895804  58.1149912
   8.7586826  15.7455008  58.0311728   8.7616294  14.2324679  58.0727243
  41.2263823  75.9649515  20.6572247  41.0544443  75.0371742  20.8181524
  40.3602982  76.3725424  20.6570983  17.6612037  32.7288001  50.4572153
  16.7285388  32.8995078  50.3259802  17.9275030  32.2414058  49.6776247
  25.3946831  75.4224110  34.3427920  24.6166946  74.8654413  34.3155551
  25.5551483  75.5642700  35.2757215   5.7147735  23.9625018  54.5282984
   5.1246685  23.3203070  54.9227524   6.3708299  23.4360545  54.0714788
  67.1584463  80.6294250  48.5905790  67.0617819  80.7247353  49.5381069
  67.2949076  79.6914864  48.4568882  82.5283472  20.0872367   3.2960033
  82.9644672  19.4928115   3.9064875  83.2398168  20.4607337   2.7758709
  71.5451280   7.2541850  24.1051698  72.2749941   7.1317237  23.4981036
  71.0924904   6.4107745  24.1087675  81.7465210  71.9019222  14.2965579
  81.1262131  72.2061110  13.6340511  81.4661312  72.3338270  15.1034486
  51.3512073  27.0671339   0.9453816  51.7334113  26.9620199   1.8166442
  51.3864551  28.0093593   0.7804532  56.5836191  80.7411385  51.8248987
  56.6582632  80.5547428  50.8889961  57.3184156  80.2732658  52.2216463
  17.9702848  18.1977504  37.3773336  17.9146331  19.1172450  37.6374626
  18.8868707  17.9629367  37.5221038  81.0450880  14.5413535  47.6566696
  81.8099777  14.9299853  48.0811024  80.3844205  15.2338069  47.6730919
  15.2305748  46.2623453  47.5658274  15.8138325  47.0078754  47.4236059
  15.4876758  45.9167576  48.4206390  60.6632376  61.9070148  38.5041976
  60.6327486  60.9504986  38.5238242  61.5971375  62.1167660  38.4962845
  14.7554821  12.8397982  36.3699126  15.5194705  13.2808059  36.7414761
  14.0419620  13.4695475  36.4725304  26.1595958  24.4733279  45.4186249
  26.8735069  23.8383239  45.3609371  26.5542263  25.2403205  45.8336306
  12.5632526  53.3012772  23.3922815  13.3135750  53.7717390  23.0290747
  11.9935562  53.9888191  23.7371826  80.3164379  13.5149806  18.8006413
  80.8854429  14.2774146  18.9062572  79.7959415  13.4915011  19.6036148
  84.8410988  50.0489140  61.7251205  84.8016930  49.5272160  60.9235525
  85.5546856  49.6588230  62.2299433  26.7780250   2.0128577  62.4942446
  26.7176097   2.8939479  62.1250916  27.7065891   1.7894881  62.4301577
  16.8216127  25.5403559  61.6478729  17.1023267  24.9702971  62.3637342
  16.2718528  26.2009852  62.0692682  84.9061775  65.0224781  23.2865453
  85.3342628  64.3150759  22.8043056  84.5388889  65.5876350  22.6068878
  -0.2532774  23.0205481  56.5865040   0.2915376  23.8015502  56.4893246
   0.2154535  22.3399203  56.1035252   3.3405574  13.9076064  62.1645772
   3.9787992  13.5284589  61.5603208   3.5720690  13.5415767  63.0181902
  81.3435364  77.6699162  64.6159029  81.7203140  77.8618670  63.7571621
  80.4127979  77.5284243  64.4428825  40.3280449  60.7126379   0.7793319
  39.6061802  60.3947067   0.2370570  40.8287001  59.9262953   0.9966745
  10.3886654  61.6405439  28.1364012  10.5466034  62.5811005  28.0549073
  10.5284645  61.4537525  29.0647316  48.2466269  79.0221596  33.6848140
  48.0422401  78.7723303  32.7836800  48.3199692  79.9761724  33.6581039
  77.3354197  60.5457783  34.6371579  77.9571438  60.2246380  33.9840460
  77.3208618  59.8644590  35.3093386  30.2927448  72.2362709  33.7758851
  29.8236229  71.5307522  33.3304691  29.7025635  72.5105000  34.4778228
  57.8278017  66.3328314  53.4724045  57.7003527  65.5933380  52.8781557
  56.9435787  66.5720463  53.7501669  58.4719650  13.9853423   0.8136769
  57.7373878  13.8369601   1.4091702  58.6056797  13.1409209   0.3832156
  11.5452474   0.4441779  48.0425739  11.7017454   1.2443869  48.5439777
  10.7817310   0.0454180  48.4600353  78.1001377  75.7231140  51.5711451
  78.3242941  74.9702072  51.0242224  78.0075550  75.3601694  52.4520159
  23.6813682  11.2916510  25.1941347  23.2117885  11.0476344  25.9917426
  23.5138267  12.2288268  25.0947785  49.3434477  74.7992992  37.8821754
  49.2445660  74.6260691  38.8183618  49.2806768  75.7514620  37.8068423
  83.7174408  21.1700194  27.0061183  84.0408985  22.0545047  27.1772814
  82.8978817  21.3027232  26.5297365  72.6659918  57.6021528  61.9281101
  73.2122183  58.3207703  62.2466421  73.1461573  57.2504282  61.1784744
  17.5411975  50.7937479  27.3503041  16.5998948  50.7774448  27.5232625
  17.7112377  51.6809702  27.0338273  17.6904005   0.1365130  40.0657606
  18.2089323   0.1557486  40.8701181  17.6297420   1.0534709  39.7979188
   1.2964004   4.2830222  42.6822519   0.5243486   4.2851775  42.1164227
   1.0141271   3.8196414  43.4708166  67.7995443  68.3483410  59.1166973
  67.5299788  68.6886930  58.2636309  68.5311317  67.7630091  58.9207363
  13.9414543  16.9080489  41.2345314  12.9849857  16.8796675  41.2589741
  14.2169755  16.1772006  41.7878675  31.5609695  73.8736725  65.9330225
  30.6865932  73.7696075  66.3083315  32.0541813  74.3475962  66.6026306
  54.3177176  68.3207893  50.6203175  53.4906721  68.7245131  50.3572035
  54.4335556  68.5850382  51.5329981   1.9360115  70.3205776  20.2065778
   1.4409305  69.5236731  20.0166869   1.4187958  70.7703924  20.8746958
  25.9787410   7.8364127  70.3429270  26.9094509   7.9865973  70.5085945
  25.9514755   7.0091479  69.8621798  18.2894605   9.6945803  39.0370536
  18.5763544   8.8709586  39.4314957  18.7636131   9.7404807  38.2068110
   1.0922378  32.5937884  23.2482290   1.6956275  33.2233565  22.8535295
   0.2918237  32.6712554  22.7290273  76.8906927  53.1901407  30.8308887
  76.0336924  53.4313440  31.1824679  77.1328259  52.3988008  31.3119125
  56.6890669  63.6275387  32.7438211  56.3162756  63.8233232  31.8842101
  55.9716988  63.2194567  33.2286787   1.9717306  18.2007830  34.8029542
   2.0825857  17.2501700  34.7863412   2.6560110  18.5113948  35.3958416
  20.1299908  76.7634153  41.8845129  19.7946789  75.9675646  41.4716959
  20.0100567  76.6154385  42.8225660  68.0532742  79.5592976  40.7486534
  68.2796621  78.6492682  40.5567551  67.5005341  79.8284292  40.0149727
  75.9357309  63.8052416  63.7781429  76.5175629  63.1469917  63.3981276
  75.2460575  63.9212275  63.1245899  76.0803080  42.7633619  29.6857762
  76.0839272  42.5501394  28.7526345  75.5139065  42.1004677  30.0807381
  68.5080910  48.2126522  62.8192520  69.2811441  48.7103367  63.0855799
  68.2678127  47.7090311  63.5969830  72.0126867  52.1528578  21.0477090
  72.9403114  52.3365211  20.8993578  71.5603209  52.9358912  20.7339334
  75.3582044  18.2832307   0.4998631  75.3813978  18.8717765   1.2543912
  74.5659812  18.5340089   0.0247569  57.4675369  78.5962915  12.6776767
  58.0944777  77.8774214  12.5976503  56.6110659  78.1781006  12.5893331
  14.1693355  75.8621883  12.7950144  14.4717838  75.7888937  11.8898177
  14.8862411  76.3017654  13.2522345   3.8543552  21.0298865  19.0001976
   4.4629949  21.3485663  18.3336926   3.5516113  20.1862281  18.6643207
  -0.0402306  68.0260181  15.8401275   0.3473903  67.6496553  15.0499797
   0.5826713  67.8159761  16.5359020  63.2031250  69.0905762  33.3883977
  63.9196205  68.8020802  32.8230381  62.4097776  68.8797140  32.8960872
   6.2672569  71.5457726   8.2239890   6.4666607  72.4531937   7.9936504
   6.0617687  71.5754700   9.1583997  63.8635778  52.3277903  42.9813242
  64.0714502  53.2210541  42.7072811  62.9425144  52.2136354  42.7471447
  82.6678077  12.0286029   8.5963029  82.2958748  11.3048499   9.1003680
  82.6523153  11.7219203   7.6896966  23.5268070  45.0065613  31.2783313
  23.7179138  45.5370474  32.0518231  22.9821636  45.5708218  30.7295108
  58.8884306  80.3751755  18.8257599  58.5821390  81.1587715  19.2822599
  58.9427710  80.6389523  17.9072273  64.2412821   5.1456969  18.2857525
  64.7916285   5.8897822  18.5300756  63.4491173   5.2504485  18.8127601
  79.7468472  68.5152006  19.8752415  79.2837524  69.3479347  19.7839439
  79.7417545  68.1404924  18.9944470  85.4177094  78.1018305  32.0813155
  86.3467312  77.8966570  31.9761920  85.0048923  77.2573662  32.2621274
  66.1374950  74.7067642  48.9118958  65.5105639  74.0565252  48.5950661
  65.8523321  75.5287409  48.5128069  34.5416587   7.7395480  47.0261049
  34.9053043   8.2919638  47.7180719  34.3369239   6.9126075  47.4625492
  81.5815155   2.6118033  34.5258331  81.7222540   3.4736960  34.9176955
  80.7216112   2.6752036  34.1101670  19.9392851  55.9867500  50.7614916
  20.8002337  56.0540126  50.3486042  20.1285323  55.7979606  51.6806071
  31.2066277  16.3044761  61.2519025  31.6277560  15.4571794  61.3967162
  31.5483483  16.6007159  60.4082804  70.8424473  75.2991390  11.6884506
  71.3635492  75.5382776  10.9219670  71.1791420  74.4418240  11.9489872
  69.4253914   4.7071021   1.5654740  70.1651708   5.1029914   2.0261595
  68.8385836   5.4402678   1.3800995   9.1291898   7.9806750  32.9247761
   8.9143795   8.2387202  33.8211584  10.0764936   7.8437941  32.9354334
  43.4132242  69.7216892  30.0229573  42.8488350  69.8265219  29.2569900
  42.9285812  70.1371479  30.7362247  73.3382177  79.9337006  45.8036423
  74.1909313  80.3315639  45.6280804  73.3657551  79.0951395  45.3428888
  85.1472894   7.7544730  34.7580624  84.7595445   6.9262831  35.0408626
  85.2158586   7.6743262  33.8066912  77.8027097  19.6975463  26.7603660
  78.7312547  19.5105880  26.8985105  77.7915184  20.5570262  26.3391757
  19.3401044  20.8056205  67.0270443  19.5228809  20.5732100  66.1166525
  18.4494394  20.4903548  67.1805382   3.4229845  14.3926852  40.4725266
   3.8101810  15.2597087  40.3518009   3.5566371  13.9517443  39.6335125
  75.2753441   9.0016883  47.0412016  75.7525484   8.2016318  46.8211555
  75.4869501   9.1614955  47.9609394  13.6335653   8.0643409  55.7790327
  14.2217010   8.8161319  55.8506966  12.8345769   8.4214061  55.3912783
  71.2563841   3.7168830  23.4364390  70.9874908   3.6617797  22.5194383
  70.7883302   4.4788211  23.7779164  42.0077175   4.0154021  30.8691168
  42.4803012   3.1834357  30.8420253  42.6145404   4.6218436  31.2936568
  76.3272089  45.9623645  67.7847996  75.5599731  46.5344451  67.7674063
  76.4965958  45.8170818  68.7156238  39.5897293  74.4674635  13.6475492
  38.8286400  75.0479221  13.6537194  40.2929497  74.9904585  14.0325022
   2.4324935   7.0787566  20.8617139   3.1596178   6.4616149  20.7801461
   2.6775688   7.8133528  20.2990937  62.0612621  75.5581903  26.8759322
  62.8820705  75.4719543  27.3607731  61.7493057  76.4380026  27.0876861
  13.1892770  16.4266436  27.0573378  14.1440576  16.4334338  27.1250248
  12.9409688  17.3508017  27.0801592  75.4926109  73.9312124  40.2941513
  75.6405115  73.9571524  41.2395000  74.8118305  73.2687330  40.1763201
   7.8642744  12.2642939   3.7626857   7.1102851  11.7298739   4.0119362
   8.2177251  11.8320124   2.9852310  46.6870364  35.5410932  62.5504666
  47.0415362  35.6508563  63.4328001  46.6058071  36.4328883  62.2123270
  50.7275432   3.0551951  42.1124697  51.5732711   3.3267825  42.4691629
  50.5532020   2.2100203  42.5266123  35.7653469  11.0006278   2.5143176
  36.2395900  11.4362376   1.8060994  35.0008911  10.6133120   2.0879063
   5.1284363  71.1715412  25.1281524   4.3012096  71.6179705  25.3087974
   4.9916889  70.2776384  25.4419494  56.6235065  60.2707434   2.7224457
  55.7081223  60.0590420   2.5394559  56.7656612  61.1127901   2.2900379
   2.9626840  40.4429381  30.8650541   2.4490732  40.2837699  30.0731564
   3.7554687  39.9200385  30.7454777  54.8734474  62.1547461  48.7508965
  55.5785084  61.9325781  49.3589735  55.2311230  62.8655338  48.2188416
  14.4163698  23.1102698  12.8500211  13.7485975  22.4789088  12.5822568
  13.9634937  23.6944621  13.4581733  14.0218490  21.1453765  45.0734091
  14.8818868  21.3586943  45.4354334  13.8286489  20.2718585  45.4138041
  28.0994083  81.2520885  55.4906511  27.5993778  81.9095993  55.0070477
  27.5917579  80.4463482  55.3941107  82.2614002  72.6966000  33.1303263
  82.7221870  72.0101213  32.6479864  81.3518906  72.3996401  33.1594181
  10.9222167   1.6572802  29.6564603  11.8622821   1.5520995  29.8028946
  10.5235237   0.9223311  30.1224208  49.1219807  72.1308279  69.4612980
  49.1647243  72.5002527  70.3432989  48.1865120  72.0951462  69.2616463
   1.4437343  69.8915768  29.1453290   1.4285900  69.7076559  28.2060885
   0.5706932  69.6460962  29.4515681  32.5338540  43.4529323   0.6958289
  33.4617124  43.2953758   0.8704419  32.3392520  42.9130001  -0.0702291
  48.3183249  21.1918901  52.1946447  48.7421902  20.7896350  52.9527741
  48.7847765  22.0184015  52.0699900  34.6020079  75.5527496  47.5303888
  34.5010638  74.6165609  47.3583651  35.0037456  75.9006071  46.7342520
  55.6692227  31.5618871  64.1705476  55.6246765  31.1148332  63.3253299
  54.7782048  31.5097068  64.5163571   4.5242637   9.9784034  37.7833581
   5.4385274   9.9757617  38.0667973   4.0226739   9.8703997  38.5914254
  63.3223677  73.7409210  48.0498409  62.6054382  73.1208372  48.1830549
  63.4547615  73.7539291  47.1019316  23.9020378  68.2453949  40.3758669
  24.2229110  68.3074136  41.2755489  24.6471149  67.9080899  39.8785591
  81.8778116  76.2865735  45.3081465  81.4356905  76.3891239  46.1509085
  81.2443477  75.8232440  44.7601700  20.5090626  75.2841849  31.6490602
  19.8092373  75.3269590  32.3007059  20.7423075  76.1984057  31.4877176
  65.6796986  79.6656076  31.3400245  65.0917131  78.9570106  31.6015482
  65.2253604  80.0996483  30.6179309  17.3547173   2.9915494  17.7773476
  17.3736095   2.7213824  18.6954355  16.9175470   2.2704536  17.3244298
  76.3059944  62.2358055  17.4830413  75.9588319  61.8575151  16.6752005
  76.6049165  63.1090588  17.2294545  30.6145716  20.9945726  47.0590639
  29.7227383  20.7428813  46.8192387  31.0357356  20.1728296  47.3112392
  29.5275029  76.4493687  10.3423882  29.5043095  76.1219264  11.2415409
  28.8311776  75.9689880   9.8945111  23.5373759   8.8359922  40.9376669
  24.0874171   9.4485998  41.4259291  24.1566753   8.3037579  40.4382420
  41.7419910   8.8348919  25.6019711  41.2575150   8.9356732  24.7826028
  42.0169544   9.7233313  25.8284688  48.4267273  59.5661359  59.0473609
  48.5939290  58.6822336  58.7202626  49.0259328  59.6650629  59.7872227
  22.0235642  73.2790745  11.5154767  22.0027979  73.1574304  10.5662644
  21.8036707  72.4184395  11.8721080  32.7389077  67.1057679   7.4021334
  32.6046390  68.0358459   7.5842232  33.3337981  67.0919396   6.6523690
  27.2560644   7.2022235  10.1047122  26.9768667   6.6447055  10.8309734
  26.6624308   6.9774294   9.3882638  26.4901090  21.3455629  10.9313047
  25.5506730  21.5272355  10.9574962  26.7762256  21.4320397  11.8406391
  46.9264343  72.3381882  64.3703746  46.6385999  71.4329558  64.4884365
  46.1159863  72.8473120  64.3563151  39.1634893   6.0360795  26.7376280
  38.7667465   5.2362347  27.0827007  38.7459373   6.1622363  25.8855915
  63.4125805   8.4196168  21.8591237  64.3684244   8.4393531  21.8121743
  63.1250191   8.9309490  21.1027646  44.0710306  26.6423988  17.5765324
  43.3997822  26.5814424  16.8968713  44.5157051  25.7951522  17.5506651
  28.4661460   7.3584580  37.3460937  28.7231016   8.0758125  37.9254103
  27.9957080   6.7484987  37.9143095  77.6189969   5.3304052  44.2636299
  77.0282815   5.1022768  43.5458231  78.1129555   4.5278892  44.4315672
  12.7465689   3.6182809  27.9548502  13.3076680   4.3665877  28.1584096
  12.1128416   3.5920799  28.6717439  81.7685045  13.8192117  36.3746381
  81.9089882  12.8829134  36.2337804  80.8534501  13.8857162  36.6475558
  52.1251694  69.2949726  12.6780314  52.6504866  69.4229080  13.4679122
  52.5887791  68.6147000  12.1896452  80.8167432  16.1668241  43.0080700
  80.6293289  16.6070724  42.1790409  81.5012441  16.6996241  43.4128094
  32.4737930  15.6985462  40.0504923  31.5587234  15.9720480  40.1143360
  32.6624346  15.7104862  39.1121387  67.0843101  43.6068375  13.1235421
  67.9590732  43.2182772  13.1169951  66.5214205  42.9361493  12.7368069
  44.3031549  35.3915000  13.5445559  45.1722097  35.5331898  13.9199257
  43.7371254  36.0053515  14.0125573  23.1126165  16.5099621  39.2946577
  23.2825756  16.3178134  38.3724713  23.1253791  17.4656725  39.3464804
  39.5362258  44.2586422  27.8595114  38.7517524  44.5551157  27.3980594
  40.2218294  44.8656940  27.5808191  62.2600468  51.7191059   4.5085943
  61.5851220  52.3886831   4.3973261  62.2812088  51.2586386   3.6696941
  43.6656570  17.1514702  31.4294028  44.1403961  17.9285860  31.1345339
  44.2711926  16.7134809  32.0275044  27.5592041  30.0676632   3.5435873
  28.4488869  29.7992873   3.7730968  26.9980669  29.4022226   3.9417639
  13.1956299  53.3821566  56.5825033  12.6024207  54.0582092  56.2549543
  12.9596575  52.5967843  56.0888052  27.6574620  78.2613940  24.3668890
  27.0306929  78.9360244  24.6281624  27.1451767  77.4530459  24.3477106
  13.2711228  80.9267536  18.6136329  14.0423544  80.4718199  18.2753026
  12.5445135  80.5876903  18.0908477  48.8238486  80.2513311  63.4439135
  49.2413100  81.0620923  63.7348127  49.5146616  79.5914457  63.5035896
  21.4546347   7.4701893  61.4040899  20.6482339   7.2137308  60.9566736
  21.8632936   6.6417217  61.6548300  66.8119663  65.8847387  31.3294983
  65.9203470  65.6496353  31.5863490  67.3457557  65.6718046  32.0949793
  27.9263695  71.7047955   5.6987977  27.0937117  72.0943207   5.4319942
  27.8314551  70.7742209   5.4956871  12.2548302  72.9857416  32.3312855
  11.3918503  72.8756047  32.7304983  12.7924975  73.3681233  33.0247736
  83.0648023  75.0327522  64.6192694  82.9877788  75.7600207  64.0017080
  82.7544910  75.3908719  65.4509449  46.4843988  19.7543013   4.5883876
  46.7513323  20.6611133   4.4378152  45.5277920  19.7792983   4.5656562
  53.3540630  15.2361405  19.3237472  53.5257626  14.7500932  18.5172057
  52.5935602  14.8005366  19.7086084  34.2804297  79.3475463  31.3751078
  33.5485276  79.8250137  30.9844995  35.0058230  79.4800430  30.7647967
  31.1076498  23.3837271  27.0696807  30.5042076  24.1166067  26.9473004
  31.6052437  23.3442330  26.2529373  63.0144137  70.9656377  25.4639053
  62.9763145  71.7750228  24.9543214  63.4766227  70.3476245  24.8976398
  49.0228190  63.7775951  63.6552166  49.1281738  64.7204261  63.5279261
  48.1944027  63.6906701  64.1268115  13.0503738  33.5535097  20.0955772
  13.5702777  33.5071921  20.8979416  12.4426186  32.8169179  20.1611280
  27.8570318   3.9668673  27.2834921  28.1664872   4.7614932  26.8487048
  28.6305285   3.6206365  27.7285337   5.0436743  75.1193381  17.7904308
   4.6940764  75.6723584  18.4891307   5.1513990  74.2594172  18.1968331
  30.6119649  50.6478339  69.4371570  30.8809869  49.8418289  69.8778578
  31.2499253  51.3016038  69.7231978  85.1351649  79.0868060  17.5158501
  84.6965844  79.6945460  16.9204247  85.6591398  78.5266615  16.9432068
  46.9463730   6.7028409   5.5787516  47.4642611   6.3116199   6.2822944
  46.0392666   6.6137570   5.8710778  81.4857680  70.8437128  53.3262777
  81.0672146  71.2809129  52.5847244  82.0715696  70.2011926  52.9259825
  33.6959386  16.8946767  26.4792514  33.2797027  16.1103570  26.8367743
  33.0544639  17.5912070  26.6192102   4.1113313  49.2690332  50.4583120
   4.8596438  49.8648650  50.4935837   3.4497960  49.7448141  49.9560833
  39.6728921   7.7712137  20.4917288  40.4441929   7.2873986  20.1963544
  38.9435697   7.3718846  20.0175381  50.6514311  13.5008180  19.9625838
  49.9663162  13.6953950  19.3230641  50.7830143  12.5553036  19.8924315
  19.4484389  10.8164549  15.0858939  18.8191867  10.2399814  15.5194283
  20.2014494  10.2545679  14.9028850  39.9345899  33.3664012  14.3195581
  40.0777531  32.4922657  14.6823549  39.2775631  33.2371831  13.6355627
   4.3665096  33.2526064  38.2090664   3.6641416  33.6412239  37.6876378
   3.9144510  32.8066754  38.9253211  59.7090069  20.7287123   0.9520669
  60.4174368  20.3702165   1.4867062  59.3456928  21.4390077   1.4809508
  22.1618899  66.5862126  30.7554841  21.6456374  66.2653763  31.4949298
  22.9801710  66.8898625  31.1484814  66.9667807  58.5325103  63.0811714
  67.0299187  57.6110583  62.8298324  67.8701725  58.7950330  63.2578038
  67.5423574   2.4554263  52.8351068  67.6403904   1.9021541  52.0601797
  67.9294729   3.2933652  52.5816679  26.7947602  36.7009020  29.9796319
  27.6928878  36.5985727  30.2944756  26.7829227  37.5638962  29.5657086
   3.7407096  78.5398428  34.9246097   3.5956033  79.4657455  35.1192355
   4.2920335  78.5431165  34.1421342  75.6866660  56.9513565  56.7293041
  75.5150380  57.8902822  56.6572326  74.8191180  56.5472608  56.7118221
  26.8668270  30.2281237  10.1199317  27.4618435  29.7738433  10.7164371
  26.0026693  29.8719645  10.3263557  46.6663122  28.1304669  14.4623685
  47.6141739  27.9989672  14.4400227  46.3009882  27.2463727  14.4284761
  11.8644150  24.8868091  10.4237366  12.1114024  23.9629514  10.4651845
  12.2453984  25.2000148   9.6033776  44.0962744  24.9076629  14.8956060
  44.0377522  25.7512951  14.4471729  45.0230646  24.6735954  14.8455608
  29.9812675  39.5183277   2.5398391  30.7871008  40.0330162   2.5840983
  29.6242452  39.5555639   3.4271839  16.6539145  53.1144094   5.0942582
  17.2177386  53.6368418   5.6646913  16.0482872  52.6763153   5.6921923
  82.5683028  71.6720290  17.2682822  83.0353338  72.4856372  17.4584270
  83.2596594  71.0195429  17.1563828  16.6997349  13.7113893  23.4148788
  16.0326207  14.3227339  23.1027126  17.3473716  14.2655194  23.8504696
  23.3635195  75.6515212  39.3872547  23.9002951  74.9396522  39.0389109
  22.9284151  75.2719183  40.1506805  20.5081089  54.8402269   4.3939412
  20.8340796  55.7312948   4.5203117  19.6777542  54.8192365   4.8696488
  30.9366298   1.6307424  64.5495749  30.4217529   2.3563576  64.1965628
  31.4342332   2.0181903  65.2696514  72.4687130  79.6115079   5.8946985
  72.4523396  78.6715058   5.7148093  71.5585202  79.8903962   5.7946789
  35.5014372   6.7594624   7.0784271  34.7871375   7.1359777   7.5924736
  35.3405285   5.8161259   7.0997936  14.8374709  80.1906533  14.7767055
  14.6339901  80.2587413  13.8438642  14.6644505  81.0656555  15.1240778
   6.8313702  68.8696630  16.0295761   6.9918235  68.4521539  15.1833057
   6.1009558  68.3777160  16.4046991   7.0847376   0.1786826  47.7635889
   6.9510468   0.9733794  48.2801300   7.9992255  -0.0572469  47.9194217
  34.1998871  68.1091041  34.6343946  33.6761196  68.5630138  33.9741945
  34.8326739  67.5989408  34.1288805  26.5140826  74.1198988  20.6026340
  26.1588222  73.9983566  21.4831161  26.5423161  73.2378657  20.2318883
  29.9722815  35.1519823   3.0094084  29.4093132  35.8340454   3.3755901
  30.2704048  35.5106831   2.1735322  67.6945925   9.1320163  36.5463233
  66.9348478   9.5618272  36.9391084  67.3688078   8.2755184  36.2697268
  19.6799517  14.7050738  28.6323118  19.7429025  13.8051021  28.9521885
  19.7966862  15.2456653  29.4135690  61.3244724  10.1193821  43.9585066
  62.1279001  10.6158090  43.8026428  61.1575985   9.6678621  43.1311560
  59.5572607  75.1277895  23.0743527  60.3076923  75.7101984  22.9565215
  58.7964334  75.6751532  22.8800154  12.7504158  12.4149144  43.4899330
  11.8257689  12.2823215  43.2809353  13.1936240  11.6583228  43.1060457
  38.9923000  21.3187289  27.0436072  38.5263276  21.6815233  27.7969193
  39.9184203  21.4225078  27.2621536  17.1446665  79.8588919   8.8523680
  18.0531319  79.9039958   8.5542303  17.1628102  79.2409463   9.5831519
  19.9903142  13.1293118  23.8288045  19.5929611  13.9852476  23.9891624
  20.9090209  13.3228779  23.6424112  58.1562138  15.3235304  33.8789344
  57.2523975  15.0217247  33.9698195  58.1382799  16.2296355  34.1869664
  76.8237144  76.3293082  36.4584947  76.2572807  76.9249115  35.9679413
  77.6401943  76.3097180  35.9592867  15.0417097  76.0306985  58.3726597
  15.5006560  75.2018441  58.5090399  15.2131470  76.2515975  57.4572134
  11.2600625  21.9174623  27.7090740  10.7071292  22.4485040  28.2822156
  10.7305372  21.1441088  27.5147581  36.8700989  66.7738659  17.2630477
  37.0266684  65.8936305  16.9211328  36.4623698  67.2442431  16.5359080
  55.8529997  22.9265976  20.4763055  56.1968946  23.0056715  21.3660908
  55.8063555  23.8276219  20.1566029  64.8499203   4.5082015  24.3830991
  64.9641371   3.5619682  24.4715834  64.0219212   4.6920341  24.8267817
  80.9629407  70.7447296  65.4809409  80.1096215  71.1421900  65.6544428
  81.1298051  70.1926761  66.2448942   5.9779318  58.5646326  24.4079900
   5.7969983  59.5044453  24.3922210   6.4273890  58.3933336  23.5804176
  37.4852395  36.3226891  21.9461656  38.3392191  36.2364769  21.5224695
  37.3055124  35.4524827  22.3020768  73.5511937  20.3587346  66.4101364
  73.8330521  19.8969608  67.1997922  73.3160701  21.2347441  66.7160016
  11.5780449   7.0880854  31.9999981  11.8321180   7.6389056  31.2595415
  11.8738794   6.2104344  31.7582512   0.0650169   0.1629607  30.6703186
   0.3107788  -0.6487565  30.2265286   0.8001472   0.7549836  30.5111647
  28.3315539  31.0455394   0.9381038  27.9465485  30.7949185   1.7778616
  27.6663113  31.5954280   0.5242115  49.1690683  25.6737733  11.2695694
  49.6869183  26.4471674  11.4930046  49.3816853  25.4998803  10.3526258
  28.0270433  16.2519944   1.6726305  28.9694524  16.4072526   1.7358381
  27.9115391  15.3521717   1.9779325  43.1787395  31.3656616   0.7927780
  42.3329830  31.0155129   0.5129211  43.8080072  30.9950399   0.1739908
  85.7252604  34.2408965  64.0430652  85.3287465  34.4496940  63.1972455
  85.2665431  33.4529947  64.3346583  59.5709817  56.5238525   4.8195834
  59.7038714  56.6635312   3.8820023  58.7376587  56.0563220   4.8763413
  22.4725350  75.5430610  20.0243711  22.4080046  75.5795849  19.0700471
  21.9141825  76.2580694  20.3297234  18.0047909  50.2375620  63.1288516
  17.8981845  50.9206515  62.4668419  18.9152114  50.3193002  63.4128963
  57.8088045  22.5213838  26.2435293  56.9850111  22.4286294  26.7220545
  57.5548077  22.8947163  25.3995275  29.9580598   4.9291530  29.2012000
  29.8631763   5.6785917  28.6133480  29.6791625   5.2581990  30.0557065
   4.3049733  62.5251656  51.0082500   3.8084904  62.4989586  50.1902991
   4.4736068  61.6060405  51.2156265  51.3152208  66.1685687  56.1461895
  51.5824714  66.4279538  57.0279639  51.1041775  66.9928294  55.7076853
  34.7219610  24.0688276  39.9795079  35.4036427  23.6443400  39.4585943
  33.9183044  23.6037970  39.7468853  33.2235599  14.9691093  20.1474786
  33.0115366  14.5329964  19.3221998  33.8372302  15.6614041  19.9017775
  35.8859730   4.8956648  29.7545481  35.0008655   5.2589226  29.7838354
  36.3902855   5.5340046  29.2501402  77.5393898  70.5260880   8.3660352
  77.6052028  69.8188431   9.0076768  77.8275758  70.1306803   7.5433367
  81.2127052   5.2256209  35.9529543  80.3617112   5.6263554  36.1303020
  81.5058313   4.8994526  36.8037891  44.2652369  19.7729123  17.7874875
  44.3771172  20.4427624  17.1129394  45.0030708  19.1770339  17.6580131
  18.1522977  10.4160202  19.2442536  17.3212397   9.9412668  19.2307186
  18.1870615  10.8132637  20.1144385   6.6915059   3.7958372  11.5103602
   6.0856825   3.9849791  10.7938159   7.0286316   4.6528023  11.7714894
  26.1343479  45.9040499  21.2483478  25.6412315  45.1122761  21.0334921
  26.0459614  45.9910965  22.1974754  69.9910337  53.4185464  17.4635208
  69.7703094  52.9546792  18.2711971  70.3496605  54.2555983  17.7584147
   4.9685046  16.1651385  17.3889911   4.8606783  15.6959403  18.2163107
   5.8007550  15.8464873  17.0396304  45.8702183   6.0128039  24.1203403
  46.5297079   6.6969204  24.2356229  45.5034351   5.8838671  24.9950266
  47.7529206  48.0667233  47.7682071  47.1521273  47.5539248  48.3088713
  47.1818104  48.6007493  47.2160464  51.7995706  63.3333760  63.0656569
  50.8807435  63.5306411  63.2475298  51.8174400  62.3872524  62.9215734
  53.7520599  12.8654802  33.7227440  54.6975851  13.0076253  33.6779761
  53.6576414  11.9220662  33.8542295  69.0069628  17.6081777  13.3392215
  68.1829262  17.5785863  13.8253534  69.6113491  18.0701196  13.9202213
   8.7049707  61.2127526  40.6899595   8.5765274  60.6094367  39.9580121
   8.4918364  62.0739908  40.3306913  40.2304506  30.5577850   4.8407614
  40.7365084  30.2954245   4.0717998  40.4366827  29.8956704   5.5005360
  83.6565405  63.2274658  41.0093880  82.8368932  62.8146369  40.7373953
  84.2385036  62.4946685  41.2107754  10.5654049  20.1730537  18.1865597
  10.6477296  19.9410677  19.1115665  10.9114051  19.4137800  17.7174973
  28.9628267   2.0405567  38.5676861  29.7448444   1.5467110  38.3211160
  28.2327580   1.4910460  38.2826066  45.0838175  54.1147333  63.0196153
  44.7728958  54.3728297  63.8873398  45.9074368  53.6565524  63.1868070
  32.3311877  14.0941870  17.7865803  31.6772747  14.7788513  17.6456332
  31.8548656  13.3973300  18.2379556  55.3015056  73.6012798  70.8152461
  55.4910865  74.3663030  70.2720798  54.4155993  73.3415776  70.5623415
  82.7723128  64.5576579  28.5235143  82.0144755  64.0996368  28.1600165
  83.4940344  64.3288417  27.9378581  54.1877087  79.8468597  23.2933474
  53.8145073  80.1216970  22.4558449  54.1769322  78.8903729  23.2580137
  16.8932498  21.0944676  14.9114203  16.5844536  21.9997215  14.8740935
  16.9675457  20.8287621  13.9948440  46.6444971  62.9589301  60.2019494
  47.4264648  63.4076958  59.8804443  45.9661915  63.1704979  59.5605665
   8.9851268  62.5865466  53.6470842   8.1569966  62.9891915  53.3857203
   9.6546086  63.2069487  53.3587694  84.4658476  78.7346409  40.0465298
  85.3929264  78.9545024  40.1382780  84.3966848  78.3477376  39.1737437
  45.4144001  27.9690456   8.7576431  45.2625656  28.9123082   8.6990488
  45.9572172  27.8618908   9.5387310  85.4821211  61.0869415  41.5168142
  86.4023263  61.3037522  41.3669872  85.4760558  60.1371200  41.6352749
  19.8585057  34.7077084   8.9775658  19.8120952  34.1359425   9.7438312
  19.0210652  35.1712894   8.9735633  16.0900033   5.3669918  34.1777587
  16.0753810   4.4139299  34.0900588  15.6293631   5.6860244  33.4017038
  15.8842611   3.8082737  26.4858675  15.1113224   3.4446466  26.0539246
  16.6082704   3.2608932  26.1818647  77.5558988  24.3368578  42.8508902
  77.2706233  23.6339283  43.4346199  77.8837858  23.8845038  42.0736551
  27.9198575  38.9004040  28.7045813  28.8768482  38.8813066  28.7104869
  27.6995993  39.8175907  28.5418344  48.2828808  23.2678556  38.8020420
  48.6286879  23.5612082  39.6450090  48.9295864  22.6378894  38.4840035
  18.6724126  20.8550119  37.8105545  18.2399797  21.6230035  38.1839490
  19.5761132  20.9147048  38.1203818  72.5600052  22.8212643  39.0527701
  73.1808376  22.1636200  39.3663096  71.7856407  22.7009034  39.6024108
  40.3119373  52.4829245  10.4201996  41.0728502  52.0181751  10.7684004
  39.8116422  51.8105984   9.9576908  46.1095920  75.4968052  60.5863791
  45.7545462  76.2792783  61.0081743  46.9297113  75.7899886  60.1892918
  39.1725834  74.3571479   8.3076692  39.3530234  73.9102907   9.1347069
  38.3199032  74.7713686   8.4403044  62.1215382  67.1819859  69.1349729
  61.6226354  67.8526383  69.6014003  62.0741453  67.4442702  68.2156294
  29.3638277  19.0098989  20.0472474  29.8833704  18.4700489  20.6429577
  30.0107718  19.5235181  19.5636249  39.1014727  62.4962873  17.8858256
  39.4749268  63.2295174  18.3748436  38.8810881  61.8490739  18.5557353
  33.1251788  20.4394650  24.0946817  33.5035706  20.5371046  24.9684787
  33.8158250  20.0220799  23.5798693  70.3193337  60.6839282  41.0611963
  69.6523768  60.6097562  40.3786278  71.1390645  60.4604227  40.6203842
  18.7672337  67.5278349   2.8984189  17.8110512  67.4837930   2.8975448
  19.0445908  66.7037661   3.2986885  61.6511353  72.9521764  14.2622614
  61.0434636  73.5151900  14.7418165  61.9133385  72.2864176  14.8980677
   5.5081016  24.2823195   3.3358359   5.6482750  25.2165604   3.1816429
   4.5969880  24.1320300   3.0838123  18.5993636  15.3997636  24.4619536
  18.5071719  16.3511992  24.5119929  18.2387674  15.0803578  25.2891088
  65.2144909  32.8803134  13.6765122  64.6485233  32.4466944  13.0378509
  65.3319979  33.7650728  13.3306420  75.9328332  53.5191648  67.5816702
  76.5858378  52.8647392  67.3335903  76.4076438  54.3501037  67.5636461
  56.6693439  71.4055114  61.7827826  55.7251062  71.4779287  61.9220816
  57.0271840  71.2310534  62.6532691   1.6324051  78.1053768  28.1599236
   1.3995489  78.9601083  27.7973747   2.3407372  77.7916534  27.5977159
  32.8236389  35.6526446  13.3845818  32.5219107  34.7483373  13.2984328
  33.7198758  35.5759501  13.7118566  28.3789778   6.0599023  25.6274700
  29.3031597   5.8106995  25.6316829  28.3839083   7.0011145  25.8016157
  33.4747513  76.8845142   1.2709691  33.4872301  77.4784983   0.5204631
  34.0216931  76.1466188   1.0015332  39.3544173  36.7711043  25.4977632
  38.6694169  37.2935867  25.0806069  39.1175222  35.8647609  25.3011584
  77.6076828  30.5841279  12.0534563  78.0933575  31.3912606  11.8834913
  76.7631332  30.7176661  11.6231823  63.2544651  44.3248837  68.4388069
  63.0050721  43.8760745  69.2466468  63.1595387  43.6603060  67.7564894
  32.2808361  20.2137160   8.8267976  32.2413015  20.5351853   9.7275341
  31.5742564  20.6762385   8.3761859  49.6027954   0.5025457  62.7906793
  49.5711478   1.2875388  63.3375072  50.0789936  -0.1381995  63.3187997
  46.3490391  12.5084364  25.1461148  45.4114294  12.6968312  25.1058078
  46.7654085  13.2827389  24.7675323  65.8184161  79.1113048  64.4559865
  66.7471852  79.2230969  64.6587735  65.3977170  79.0074830  65.3094875
  39.5984983  33.7972641   1.1794943  39.7562265  34.3863559   1.9172785
  38.7529945  34.0754390   0.8273973   2.3855232  25.4073167  14.8244691
   2.0333582  24.6673512  14.3298340   1.8501976  26.1530995  14.5534217
  21.8511534  51.1113787  17.6243579  22.1301055  50.8234501  18.4935617
  22.2849298  50.5076361  17.0213962  18.2788189  70.1070602  65.6977558
  18.1627806  70.9534139  66.1295557  18.1554087  70.2940483  64.7671413
  38.3640027  11.0374975  34.7266459  39.0159535  10.8594966  35.4045177
  38.0035138  11.8930221  34.9597931  64.4472170  20.5952954  19.2558849
  63.7368107  20.6914544  18.6216080  64.8101711  19.7273707  19.0792418
  72.3768248  43.1905643  59.3783181  72.6306262  44.0818011  59.6181374
  71.4261117  43.2318643  59.2750030  11.8058532  74.8013140   2.0917220
  12.1657127  74.1558983   1.4833016  11.9164651  75.6401493   1.6441149
  59.6270704  10.4894412  34.7044134  60.3572798  10.9759736  34.3219066
  58.8955879  11.1067080  34.6924996  74.2955637   6.7094296  17.1222806
  74.4634295   6.6318506  18.0614471  74.2089224   5.8056885  16.8190026
  40.8024836  20.6355476  12.4133348  40.2432442  19.8922980  12.6393139
  41.1009502  20.9758615  13.2567418  56.0366543  61.2742765  29.5734859
  55.9246453  62.1650512  29.9054599  56.8334683  60.9583289  29.9995112
  83.6130775  36.2428188  32.4880910  84.3167823  36.3230467  33.1319809
  83.9989595  35.7362914  31.7734194  71.9809572  71.0491969  12.1077151
  71.4894287  71.7815854  12.4795146  72.3338358  71.3902094  11.2858672
  13.4153891   9.0981144  17.8639185  12.6948619   9.7281480  17.8753185
  14.1300046   9.5432448  18.3193481  84.0391029   4.4248220  29.5705843
  84.7472419   4.9455628  29.9495292  84.4680294   3.6276448  29.2595172
   7.9643786  32.8029823  20.4453325   8.3391732  32.0585442  19.9746180
   8.7148476  33.3626723  20.6447673  36.2545943   6.2392908  13.3865142
  37.1147537   6.1635745  13.7995839  35.6454563   5.8868605  14.0353405
  74.0894383  75.7709772  17.2981751  73.5960728  76.3653738  17.8634322
  74.7533888  76.3257385  16.8887353  80.3121358  71.4688475  19.9887228
  81.0537344  71.0551507  20.4304409  80.5034453  72.4059851  20.0261974
  47.1354628  26.9265461  36.8489933  46.1973572  26.9727612  37.0335150
  47.3744631  26.0213470  37.0483136  45.5420446   4.6385044  65.1411819
  46.1712837   4.1043526  64.6564388  45.4424524   5.4301953  64.6124697
  77.8058631  78.4186111  45.5899858  78.2097775  78.3688937  44.7236061
  77.2046441  79.1611547  45.5316973  54.2675972  30.3534627  14.7496057
  55.0738573  30.6407404  15.1781452  54.1578245  30.9581757  14.0157783
  30.1494431  29.1397429   1.6131105  29.3813419  29.6118569   1.2916180
  30.2903867  29.4840217   2.4950628  25.6818398  50.2447421  38.6576867
  25.0746926  50.1467902  39.3911767  25.9266957  49.3483240  38.4280992
  51.1859050  66.6994052  67.8172024  51.3562241  66.8462997  68.7476031
  51.1317816  65.7476359  67.7309658  56.0923090  47.6905941  56.7531937
  55.2662387  47.7416932  56.2723296  56.0349288  48.3911102  57.4029749
  38.6103177  30.4870510  17.7820671  38.0101132  31.0685301  17.3153019
  38.5464406  29.6531367  17.3165166  23.7669849  31.9786167  38.9611936
  24.2107248  32.7113628  38.5340953  24.2810941  31.8152976  39.7519207
  82.9998493  54.7018433   6.0173601  83.7403393  54.6545506   6.6220683
  82.2462082  54.4270515   6.5396082  36.4981270   7.5629973  17.0607960
  36.5306735   8.4590256  16.7256761  37.4155807   7.2974688  17.1240592
  63.5601034  72.8534489  69.2808800  62.8365912  73.4097367  68.9922594
  63.3494821  71.9869166  68.9330413  32.8610563  36.8617392   6.6140193
  32.3656774  36.2135434   7.1146923  33.7494850  36.5074539   6.5764797
  38.5654020   5.6472158   4.3438402  38.9548731   6.2211698   5.0034767
  39.3144464   5.2649868   3.8866034  29.7453316  68.2342238  69.9979496
  30.5645045  67.7676005  69.8322630  29.4939144  68.5872192  69.1444731
  38.5990500  21.5958476  31.8557382  38.7765002  22.4611211  32.2245836
  39.4388604  21.3128734  31.4939737  12.2590884  79.8371094  42.5879335
  12.5631674  80.7433301  42.6382494  11.5280732  79.7951833  43.2044458
  51.3567781  18.8647699   6.4593035  50.4394531  19.0900302   6.3043696
  51.8422794  19.3822432   5.8168554  12.6045426  80.6220617   5.1425153
  11.9191225  80.5284786   4.4809487  12.7650793  79.7295717   5.4489815
  10.9819619  75.2621847  67.0772719  11.8066041  74.7764640  67.0937418
  10.3382127  74.6535426  67.4397271  56.0464287  43.4353828  18.4545755
  56.3527822  42.5350666  18.3459270  56.6808033  43.9642715  17.9707575
  15.2019270  78.6403252   5.9741563  15.1845892  79.5802324   6.1544478
  14.5702465  78.5207848   5.2649879   6.2160508  57.5319093  58.5195833
   6.9249026  57.9318552  59.0233772   5.7696835  56.9615131  59.1453891
   1.8306120  58.0181534  40.0585175   2.1610626  57.2588021  40.5385399
   2.1659096  58.7723882  40.5432224  35.3336239   6.8290627   3.9813229
  35.6657457   6.4632517   4.8011452  35.9030008   7.5780845   3.8052315
   0.7432278  80.7914136   4.5397684   1.1448010  80.7040469   3.6752811
  -0.1825611  80.5962630   4.3946406  26.5586758   8.8479048  22.4642968
  27.2049189   9.2394871  21.8767023  26.8471217   9.1018772  23.3409548
  30.8420189  76.6987489  16.2082779  30.5402335  76.1313076  16.9176209
  30.0748309  76.8085138  15.6464887  46.5803051  17.0001113  10.6764793
  46.1200285  16.1997223  10.9289742  47.2667503  16.7033243  10.0790322
  20.8326546  75.2772456  64.9766689  20.8157317  74.9354058  64.0827494
  19.9886624  75.7165604  65.0811183  66.1791277  30.9904504  35.0653791
  65.4509115  30.4474282  34.7636127  65.8974552  31.8881798  34.8893881
  40.9939241  58.0286551  21.2173533  41.9177485  58.1444931  21.4395380
  40.5580425  58.7895203  21.6011763  42.6357937  43.0012608  13.3027422
  43.5058260  43.0965137  12.9151797  42.0538044  42.8668833  12.5547695
  76.8053436  46.2758303  17.2475052  76.9602013  45.7818031  18.0526078
  76.6147757  47.1653652  17.5452352  45.4660606  19.1980243   9.4179356
  46.0118055  18.6135972   9.9440938  44.7142410  19.3921745   9.9776679
  36.6736388   3.6596081   4.0638131  37.3450565   2.9933509   4.2105454
  37.0641780   4.4695520   4.3919897  82.4662495  16.4101207   3.4560940
  82.8917217  15.7099783   2.9611096  81.9826317  16.9090915   2.7977830
  46.6879988  37.5332212  12.2019708  46.3094282  37.7009225  13.0649841
  45.9739256  37.7083349  11.5890551  85.0409141  76.9437390  68.1043311
  84.4607940  76.1852723  68.0378594  84.8799481  77.2922783  68.9811667
  69.1222715  37.3191047   6.1419868  69.1454506  36.4102173   6.4413536
  70.0119352  37.6415181   6.2861371  15.3298795  20.0731111  16.7531049
  14.7509539  20.8337998  16.8023896  15.9720623  20.3039503  16.0818768
  64.2823234  74.3589454  51.1260813  65.2389636  74.3684845  51.0947936
  64.0120258  74.4294362  50.2105480  20.3453120  14.9670909  60.3738790
  19.8742588  15.6808017  59.9438065  20.0274475  14.9800847  61.2766670
  50.8598804  28.2562280  23.1690478  49.9936247  27.9039001  22.9648495
  50.6828785  29.0453959  23.6810207  30.5553015  80.6959939  15.5788445
  29.7185620  81.1589486  15.6210089  31.2022169  81.3841620  15.4234242
  31.7227793   1.6319649  33.2488489  31.4627624   2.5268221  33.4676051
  30.9328461   1.2362804  32.8805137  29.8322368  48.4880733   8.3787644
  30.5678749  48.8212347   8.8926446  29.0639162  48.6537695   8.9250803
  51.1590338  49.3495178   1.3163209  51.2621450  49.2513895   0.3697636
  51.8896770  49.9087954   1.5801395  54.7846832  55.6854384  64.5937365
  54.1414204  55.3061252  63.9949333  54.7450008  55.1290958  65.3716444
  57.7677059   8.4320140  12.3064518  57.4292040   8.8923609  11.5385127
  57.5138140   7.5192785  12.1697581  13.0674529  19.4375670  14.8574328
  13.4844649  19.4763649  13.9967203  13.7965477  19.4486368  15.4775369
  33.2038736  34.1632962  16.3259804  33.2869554  33.4166479  16.9191456
  32.2601414  34.2722392  16.2087929  23.7411833  34.3359280   8.4974432
  23.2433367  33.9388084   9.2120600  24.6542621  34.2728853   8.7777019
  57.6337481  12.0862007  23.7508845  56.6902351  12.1946824  23.6315417
  57.7332640  11.1891901  24.0697908  39.1481471  26.3374472  14.0373945
  39.3212008  25.6673408  13.3761513  38.8193464  27.0859432  13.5395265
  29.3084407  14.8921967  42.3096895  29.9234772  14.5621014  42.9646683
  28.5852075  14.2653072  42.3228502  25.8564091  12.7090752   3.8011402
  25.0725627  13.2276416   3.6197382  26.5559196  13.1583762   3.3267528
  37.5108981  17.1851265  29.0699410  36.9003010  17.8482771  28.7480211
  38.0589986  17.6507246  29.7016335  50.9455027  65.4913502  53.5318702
  51.1255088  65.6314283  54.4614976  50.9119263  66.3723045  53.1590121
  53.7361479  24.3565774   9.4384778  53.5919857  25.0749063  10.0544763
  53.5016394  24.7219181   8.5853869  46.3423204  44.6401596   9.3116254
  45.5975914  45.0443935   8.8664222  46.8674946  45.3790522   9.6189725
  81.0888958  31.4343619  26.8301105  81.3630581  32.3270321  27.0403671
  80.3183746  31.2851191  27.3780727  31.2517023  55.3289318  29.7765112
  31.1626482  56.2819767  29.7740889  31.3390255  55.0988817  30.7015419
  66.4108100  67.2660594  44.3836146  65.9017839  66.8390112  43.6945920
  67.1769800  67.6192480  43.9314275  63.8608932  35.4953361  13.3561444
  63.3612537  35.9169722  14.0552974  63.3037901  34.7732258  13.0655873
  31.7073202  12.0515561  44.6405935  30.9375834  11.8073928  44.1266680
  31.9096351  11.2700617  45.1549578  35.5140948  11.5583682   8.4819883
  35.1932859  12.0178008   9.2580271  34.9450636  10.7925594   8.4047085
  85.3928342  67.5537877  58.6249106  84.5791068  67.0685130  58.4885805
  85.8272328  67.0956760  59.3443983  49.7263575  31.6424108  22.3808241
  50.0693321  31.3351488  23.2199836  50.4152727  31.4340878  21.7497730
  71.1462021  12.6446104   2.3578817  70.2802420  12.4902189   2.7353916
  71.5751839  11.7893445   2.3848352  53.0032682  12.9568470  14.1407633
  52.6310396  13.2672763  14.9661803  53.9501143  12.9929316  14.2764258
  37.3734856  11.0845387  12.0594311  36.4607954  11.3723719  12.0399487
  37.6892614  11.3478339  12.9238343  46.0279226  59.1944933  23.6946249
  45.7033777  58.3530283  23.3739328  46.7990017  59.3745232  23.1567955
   3.0732171  78.9470797  47.0145922   2.6275079  79.6812611  47.4371486
   3.6832062  78.6235743  47.6775294  41.6368771  26.7997932  15.7853365
  40.7656527  26.5047336  15.5204964  42.1518993  26.7800593  14.9787438
  49.3937874  51.2395716   2.3176545  50.0301504  50.5417156   2.1618515
  48.8992119  51.2995768   1.5003273  45.7813931  51.6927195  14.6020138
  45.4617786  51.5236425  15.4882920  46.4250469  51.0021544  14.4437146
  71.6146040  38.6137867   7.2220296  72.4374104  38.5328603   6.7396665
  71.8008614  38.2308149   8.0792779  29.7290683  46.8215561  17.2777069
  29.2110467  47.1749592  16.5545261  29.1184926  46.7844439  18.0139494
  16.9748465  68.6356836  49.1386657  16.5328471  69.4409495  48.8695674
  17.8360717  68.9245491  49.4404655  10.8191029  80.7956605  62.5876545
  10.4490964  81.4786225  63.1470185  10.2020375  80.0673800  62.6588254
  24.2572594  28.5987687  15.7302213  24.9358940  28.3169222  16.3436127
  24.1852689  29.5429730  15.8699584  26.8018341  46.3851118   2.5396454
  26.2951040  45.7014132   2.9778370  27.6993918  46.0525417   2.5354925
   4.3314316   4.9449697  20.5621195   4.8048164   4.2108271  20.1707458
   4.4026329   4.8001742  21.5056229  68.1439295  81.1028748  38.0331760
  69.0079369  80.6952172  38.0926257  68.3218255  82.0433693  38.0404644
  66.9621468  46.5377235   5.2055216  66.3301897  46.0823059   5.7618141
  66.4361143  47.1646929   4.7090998   8.8911255  76.2847836  25.9604597
   8.3919986  76.9348616  26.4549327   9.0034016  75.5549968  26.5695882
  76.4041343  80.3844791  61.6735124  76.8672433  80.6624656  62.4637561
  75.6380572  80.9568005  61.6310137  66.5340605  67.6106768  61.6705786
  67.1620288  67.7555662  60.9628396  65.7835164  67.1972876  61.2439346
  77.9302311  21.4524245  21.3002682  78.7705135  20.9994769  21.3709497
  77.3168945  20.7759476  21.0131621  38.5448050  27.6708078   5.0161797
  38.6434531  28.2147932   4.2347842  39.1636825  26.9520450   4.8873264
  48.1180914  79.3351231  13.2248080  48.3839472  79.9367572  12.5294018
  48.9378222  78.9502586  13.5349023  38.0434823  17.6187265  11.2561703
  37.7509689  17.9403353  12.1089518  37.2766590  17.7086890  10.6903768
  86.1774618   0.3553746  38.6319142  86.5223843  -0.2390410  37.9656344
  86.9269926   0.8956216  38.8820463  40.0732183  37.4087477  27.9005027
  39.8964930  37.3541665  26.9613433  40.4593945  36.5611672  28.1212044
  48.8694420  59.8966699  67.7377399  48.0766704  60.1976471  67.2937154
  49.0059295  60.5317038  68.4408285  61.8357897  31.5812659   9.2434162
  61.6411257  31.7763400   8.3267462  62.0225477  30.6425214   9.2540878
  39.7014141  53.8441753  37.7109861  39.7188067  54.8011780  37.7023983
  39.9044561  53.5928392  36.8099666  32.7301908  55.0990152   5.7064509
  31.8555880  55.2427387   6.0679030  33.2349396  54.7400522   6.4362478
  74.6533790  61.9620567  65.7554021  74.6810784  61.0416847  65.4939055
  74.8245921  62.4458700  64.9474161  33.6863232   3.1099305  25.0184679
  33.4384751   2.9256210  25.9244680  32.8848410   2.9628551  24.5162439
  34.4988966  49.7761154  27.1504068  34.8667979  50.1882982  26.3687539
  34.5251083  50.4618931  27.8176761   7.6993378  75.5280937  34.6814966
   8.1877120  74.9986828  35.3119302   6.8963273  75.7698889  35.1429510
  35.7044315   6.3242799  10.7843816  36.6027045   6.1829674  10.4854333
  35.7741165   6.3725924  11.7378187  52.6686907  35.7470608   7.7502334
  53.3348656  36.4246678   7.6349729  53.0562019  35.1340008   8.3749115
  53.7866154  45.4087966  55.4421847  53.7584510  46.3588005  55.5558973
  52.8768721  45.1285075  55.5423670  66.5669489  40.5188179  19.2168474
  66.7103672  41.0790634  18.4540975  65.6552553  40.6767511  19.4620025
  77.5326967  64.9535227   4.3226767  77.2567415  64.5723343   5.1562095
  76.9106960  65.6641626   4.1666925  31.1159650  68.5546165  55.8868008
  31.9348636  68.0689507  55.9856146  30.5597075  67.9814225  55.3592997
  43.6595106  10.7859039  40.2447224  43.9982367  11.5371919  40.7316113
  44.2786694  10.6685174  39.5242381  67.9562712  18.2613683  40.4776001
  68.0347395  18.1625319  39.5287561  68.6893845  18.8266540  40.7209682
  46.3141012  56.7991304   6.7141557  46.0428095  55.9343958   6.4061409
  45.7868528  57.4121475   6.2018555  12.9081837  79.7337060  69.1192841
  12.6124303  78.8307243  69.2349755  12.3316542  80.0898152  68.4432421
  29.2286277  36.3053226  12.1325743  28.2784081  36.3206148  12.0181978
  29.3584251  36.4199114  13.0739844  25.4830861  33.3599830  18.2658625
  24.9726343  33.2684350  17.4613202  24.9920630  33.9924359  18.7903905
  48.5272892  10.8190177  66.0991945  47.9732808  11.5946410  66.0113775
  48.8086041  10.8279536  67.0140796  46.6717913  65.0267940  68.1429144
  47.5154295  65.0107794  68.5948535  46.1454334  64.3672758  68.5948189
  80.0424971  60.3135269  63.2491308  80.9638324  60.5167036  63.4106725
  79.8452344  59.5985549  63.8542204  66.1040258  42.2812176   3.9549771
  65.3723860  42.0371771   4.5218775  66.5354538  41.4516449   3.7502477
  48.0743647  20.1992679  15.3830802  48.9498854  19.8489666  15.5473506
  47.7681684  19.7257435  14.6096134  77.8276458  78.3160716  52.4881177
  77.1185269  78.2157903  53.1231945  77.9269566  77.4464350  52.1006899
   8.0795419   4.5170847  39.4510293   7.5336540   4.7350860  40.2064848
   8.4244937   3.6462259  39.6481204  58.2144928  24.3924403   4.4981784
  59.0334320  24.2105913   4.9591565  57.5655508  24.4952679   5.1942647
  44.8864031  30.9566951   6.0379869  44.7798538  30.1937485   5.4698408
  45.7475281  30.8384037   6.4388651  61.9959416  81.9697743  59.2874031
  62.4949398  81.4116793  59.8838597  61.7325845  81.3853627  58.5765307
  33.5537815  26.9494247  27.0707226  33.1776714  26.1105633  27.3373342
  32.9138708  27.6008558  27.3577476  76.6382790  21.0563946  -0.3154933
  76.4110374  20.3699446   0.3117063  76.5596628  21.8706012   0.1816177
  68.7140131  32.6041269  33.0493259  69.1057682  33.3879352  33.4345579
  68.4019423  32.8896356  32.1906471  35.9005666  18.6780870   9.5057410
  36.5555120  18.8566005   8.8309002  35.5408645  19.5379066   9.7238141
  53.1866884  16.4951944  28.9306688  52.6727724  16.3983536  28.1289577
  54.0971184  16.4537501  28.6380315  68.8592257  32.0799255  67.2463842
  69.5338120  32.0105129  66.5708511  68.2542863  32.7428734  66.9135489
  66.2064743  32.1017385  18.7606835  65.4847479  32.4234104  19.3009329
  65.8614397  32.1142650  17.8679216  35.0754285  36.9735169   4.9345785
  35.7802224  37.3569870   4.4126123  34.6143389  36.3955808   4.3266189
  62.3826232  57.6853042  69.3645715  62.7171912  56.9376915  69.8599210
  63.0371680  58.3714145  69.4951749  64.3227959  22.4041200   4.7445643
  65.0424957  21.7743230   4.7043535  64.6380949  23.0909467   5.3320074
  45.1739883  36.4991570  19.1909492  44.7087669  35.6645370  19.1343105
  46.0996675  36.2615061  19.1372895  45.6244906  77.5665079  18.0050874
  45.9186610  76.7739398  18.4540093  46.2972411  77.7312527  17.3444092
  15.9893282   4.3647741  60.0131684  15.4825076   3.5716222  60.1871663
  16.9021853   4.0802263  60.0574642  14.1689404  78.7393902  36.2065816
  14.5639094  79.3655256  35.5997992  14.0843542  77.9332311  35.6974816
  54.7096833  75.1731420  34.0064764  55.0147732  75.5424685  33.1777740
  54.3988713  75.9286035  34.5053840  51.2750530  32.9106140   9.8505706
  50.8699417  33.7229490  10.1542628  52.2049856  33.1224632   9.7694820
  74.8183966  21.5840816  64.1855097  74.3695307  22.4206209  64.3077850
  74.4660473  21.0203028  64.8741579   9.8986205  27.8790067  68.3371622
  10.6398495  27.9169772  67.7327039  10.0371011  28.6156200  68.9325278
  43.6495590  15.0444543  33.6647606  43.5061216  14.1547477  33.3421493
  44.5172882  15.0160801  34.0678453  24.8844862  37.6767778  20.8449483
  25.4262757  37.0180726  21.2794638  25.5110884  38.3137989  20.5017233
  34.5929384  36.4734268  26.8246603  34.0838504  36.8288612  27.5531721
  35.3465462  37.0589757  26.7509031  85.1309504  73.5968500  47.8105622
  85.6738391  74.1887742  48.3312612  85.5363765  72.7372961  47.9246955
  36.2332726  14.6642828  11.6226637  35.7391071  15.2441204  12.2021651
  37.1370625  14.7312534  11.9307363  31.5113974  39.7655749   7.1098900
  31.1054635  39.7149277   7.9752707  32.4250174  39.5222330   7.2592854
  43.5700281  11.9947503  62.6554304  42.9414614  11.2966846  62.4714564
  43.0324133  12.7291272  62.9518973  28.3332419  17.8660941  10.1304269
  28.2372141  17.2212195  10.8312452  27.4487948  17.9727817   9.7802770
  37.1696719  78.3861999  25.5043340  36.8512305  79.2248694  25.1704788
  37.9576357  78.2076911  24.9910283  66.1505237  73.7598544  60.8257889
  67.0399585  73.9879113  61.0962110  66.2358751  73.5139471  59.9046605
  59.9427795  37.6426125  22.4011540  59.7548389  38.4896684  22.8053904
  59.5933962  36.9998574  23.0184293   1.3669731  28.6859632  33.2002878
   1.7947437  29.5324636  33.3294582   0.9633781  28.7511492  32.3347878
  31.7475279  10.6910775  47.4791937  31.3972529   9.8003267  47.4890976
  32.3408373  10.7234929  48.2296400  29.1416502  39.6773601   5.5123246
  28.4224772  39.8633480   6.1160064  29.9290299  39.7313213   6.0539436
  52.4226046  34.3308806  20.3251863  53.2894135  34.4618225  19.9408376
  52.3003960  33.3815169  20.3226304  70.7657671  24.5434761  40.6576824
  71.2949944  25.3086829  40.8826494  70.6817627  24.0602994  41.4797020
  78.4711995  80.3754406  69.1383611  78.7491908  79.9165636  69.9310683
  77.5886359  80.6869893  69.3389968   8.8214065  11.8535650   7.8084499
   9.0830471  11.8541014   8.7291980   8.5820915  10.9445035   7.6279891
  85.2857876  17.9461598   7.2361749  85.6188583  17.2026932   7.7387226
  85.9971619  18.1667972   6.6349202  48.4008503  14.0308726  18.5878301
  48.2652044  14.1553736  17.6485038  48.2722950  14.9008536  18.9657724
  39.1794086  41.7878246  12.3747706  38.4002304  41.2452412  12.2534490
  39.6144843  41.4142036  13.1411576  51.6139460  40.2214384   3.1610736
  52.4132538  40.0188065   3.6471608  50.9387159  40.3045559   3.8344103
  39.3493533  12.6752007  47.3591328  39.0871549  12.5339425  46.4494467
  40.2842522  12.8748226  47.3106956   4.5932404  59.8264115  51.5856164
   5.4993169  59.7184103  51.2964838   4.1712062  58.9957457  51.3662677
  36.3492020  50.2269728  38.1574225  37.1129807  49.8121912  37.7563858
  35.7114943  50.2926810  37.4466133  76.5861335  42.1755853  52.0181351
  76.1896052  41.3465042  51.7505138  76.5454783  42.1628814  52.9743867
  14.1557693   7.8585255  12.8371835  13.9810872   7.2838128  13.5824513
  13.3223426   7.9029995  12.3685122  45.3964051  72.5321282  12.6161587
  44.7520789  72.7011074  11.9287586  45.0468357  72.9788745  13.3871651
  48.7576294   5.1807308  34.9787045  48.8317156   4.5604891  35.7039928
  48.5581827   6.0174966  35.3985548  51.7154312  46.2031507   5.0348336
  52.2839355  45.4335308   5.0080788  51.1552906  46.1140823   4.2637676
  59.9958792  55.9535461  66.7119052  60.5848446  55.2216618  66.8954667
  60.5274882  56.5675371  66.2053113  30.4273319   4.0918267  32.8410840
  30.0489759   4.3909755  33.6678791  29.8555446   4.4615835  32.1683502
  33.8582206  27.1893501  20.8017588  34.7966647  27.0783186  20.9541655
  33.5727596  26.3490677  20.4430532  83.4956374  38.2573240  36.3515406
  83.9828935  37.4335294  36.3383704  83.8333430  38.7473556  35.6018382
  42.2295429  34.4556260  22.9242611  41.9609215  33.6828375  23.4211206
  43.0759193  34.2155862  22.5470877  29.5502973  63.3023453  29.0024900
  28.9671659  63.9442682  29.4076157  29.3083930  63.3099222  28.0763936
   4.3410810   5.9396337  52.4865144   5.0425895   6.3580869  51.9875055
   3.8574298   6.6677449  52.8766029  48.7417126  33.4019804  16.3413930
  49.1981792  34.2382240  16.4339340  48.7912798  33.2042670  15.4061472
  36.7899140   2.7389072  57.9277926  37.4985178   3.3533500  58.1190353
  37.2248610   1.9924758  57.5156169  13.8143086  36.1104012  30.1830578
  13.3149588  35.3754711  29.8270249  13.2601881  36.8749356  30.0259948
  21.8237424   7.8935826  34.9383354  22.4131799   8.0867141  35.6673717
  21.9625330   8.6120850  34.3213081  64.5088830  74.0421324  57.2880392
  63.9374866  73.3009248  57.0871668  63.9307895  74.8045497  57.2605257
  52.3504114   1.0206406  21.4622521  52.3047924   1.9757259  21.4179516
  51.4518452   0.7304080  21.3054943  84.7529584  76.6851501   6.0812962
  84.8067147  76.9452010   5.1616681  85.3784901  77.2552879   6.5283811
  70.9815230  53.1151586  60.9462064  70.6328454  52.4392288  61.5273886
  71.7416825  52.7063637  60.5323499  70.7992077  46.9352770  11.7534733
  69.9847126  46.4678049  11.5682769  70.5551958  47.8605318  11.7290711
  18.8737750  72.5381756  31.8493938  19.2088401  72.6380730  30.9583378
  18.1326234  73.1421471  31.8957019  62.3819780   3.2146475  36.3012981
  62.4606323   2.6833045  35.5090094  61.4805079   3.0781090  36.5927386
  76.1147213  41.8211460   3.5314637  76.7877245  42.3927879   3.9009565
  76.2897205  41.8223429   2.5903970  59.5867958  37.7886864  67.7065100
  59.1461840  38.1795599  66.9519826  58.9028015  37.7161040  68.3721790
   4.6838238  47.2435951   4.9419433   5.1677467  46.4759493   4.6373686
   5.0995590  47.9813623   4.4957462  81.5792179  65.2203560  10.5822420
  80.9112549  65.2360010   9.8968160  81.4490223  66.0381937  11.0622668
  61.1091805  18.2899654  56.9422579  60.7807970  19.0621316  57.4028635
  60.9308720  18.4680665  56.0188293  72.5159693  66.2004280  10.5455291
  71.8756056  65.9621811   9.8751521  73.2236290  66.6250610  10.0606251
  13.0351211  37.7684903   1.8139903  13.4124996  37.1819282   2.4695539
  12.2225906  37.3385048   1.5472806  75.1465273  32.7167487  32.4698853
  75.8182764  33.3986473  32.4697042  75.6271648  31.9070125  32.2979927
  33.0886102  22.5294137   3.8514870  33.9217782  22.9700875   4.0184349
  32.9048395  22.7061415   2.9288670  78.1174994  41.0501385  33.2992625
  79.0315056  40.7663012  33.3154535  77.9207420  41.2761164  34.2083573
  65.4032040  39.3422222  22.2494578  65.2765942  39.9447632  21.5165544
  66.2499475  39.5907044  22.6202822  10.8143284  43.9045954  25.5286384
  11.0112144  43.6678267  24.6223211  11.6216041  44.3040895  25.8525968
  83.0643368  44.3700743  13.3969808  82.6456451  44.1676950  12.5603390
  83.9603233  44.0473080  13.3006883  64.8047447  65.5322123   8.9381737
  64.6287537  65.6955862   8.0115837  65.2325726  66.3315201   9.2452681
  48.8164616  49.7455645   9.7845209  49.5482445  49.6024370  10.3847218
  49.1924906  50.2526522   9.0650082  44.2760324  40.6282043  23.3859921
  44.3354273  40.4124641  22.4553156  43.7905407  39.8983741  23.7705326
   6.4449851  70.3091245  52.6232760   5.8844296  69.6374827  52.2348051
   6.3982264  70.1447516  53.5650974  71.0976076  22.4221230  19.9937081
  70.7850456  22.2012711  19.1163468  70.4746485  23.0751896  20.3125501
  81.4486804  48.4516071  59.0113287  81.0138144  47.6844697  58.6390107
  82.0307555  48.0948686  59.6822684  43.2272911  46.1063576  22.1667647
  42.5074482  45.5698395  21.8347955  43.9188862  45.4777622  22.3736358
  29.3441892   5.0760508   9.2050725  29.0713525   4.2392874   8.8287508
  28.5938048   5.3599072   9.7271621   4.0181496  35.5315161  33.4879494
   4.7923614  35.7930779  33.9863634   4.2030956  34.6338868  33.2117438
  37.8166962  40.8008051   8.1425846  37.7310324  40.4257059   7.2661161
  37.0408463  40.4935312   8.6114889  42.4617672  56.7841816   4.2650151
  43.2415724  57.2897911   4.4941399  42.7163696  55.8727789   4.4090807
  68.6866236  30.2586293  31.0736847  69.5708609  29.9102473  30.9597230
  68.7512732  30.8306265  31.8384552  46.1931133  63.0090809  12.3418760
  45.7031584  63.5770655  11.7472529  46.7332506  63.6093950  12.8557885
  28.4681805   2.4322627  58.5694604  28.3849533   2.9217408  59.3878203
  28.4897812   3.1051563  57.8890353  55.3674936  19.2338490   4.0769550
  54.6396065  19.4499695   3.4941152  56.1406469  19.2563438   3.5130802
  62.9203510  30.9592438  13.6516845  62.7670336  31.6935730  13.0571389
  63.7589264  30.5938339  13.3697236  67.9212952  68.4392262  17.8466141
  68.8576031  68.5188818  17.6643729  67.8757906  67.8959513  18.6333883
  69.8509741  70.2866411  29.8875690  70.7719517  70.0568485  29.7641754
  69.3832302  69.7559214  29.2427540  37.0495510  80.5609417  35.6392121
  37.8628039  80.0804424  35.7940507  36.6904569  80.1731300  34.8411632
  24.6611404  52.2821999  21.7643762  24.6832752  52.1608543  20.8151579
  24.6409941  51.3933611  22.1190596  46.5033245  38.3927894  20.9686899
  46.2748718  37.9932904  21.8079996  45.7245779  38.2709789  20.4255939
  58.9460516  52.2492695  18.8835835  59.3342113  51.3793945  18.9778018
  59.6935320  52.8317499  18.7485993  61.6181326  17.7237129  15.8289135
  60.8136129  17.2119904  15.9133077  62.2930527  17.0767677  15.6235433
  38.6792850  48.5368586  31.8063855  39.6040940  48.3273172  31.6758060
  38.6467314  49.4934559  31.7964935  54.2220926  39.1208720  17.3345256
  53.8101292  39.8225880  16.8304312  54.8871279  39.5634270  17.8618813
  28.8245400   9.5730518  45.4937845  28.1122883   8.9966844  45.7707959
  29.1674527   9.9389289  46.3091236  80.7981777  24.4219136  42.8189182
  81.6877174  24.1856170  42.5560188  80.3399467  23.5847878  42.8929520
   2.9040863  17.0226860   7.3944491   3.5602238  16.3262808   7.4216193
   3.4141399  17.8326559   7.3997450  24.1460037  36.2187338   6.0232282
  24.0188050  35.3046751   6.2772954  23.5163212  36.7050910   6.5553832
  61.1707067  59.6389771   8.0320609  62.0495510  59.6571827   8.4109229
  60.6112719  60.0248909   8.7061042  66.5020466  37.7182364   7.8838885
  66.5731668  36.8529034   7.4809355  66.0235023  38.2427716   7.2419447
  54.0044793   3.0769942  66.2835839  53.3515271   3.1274532  65.5854934
  53.7429341   3.7558196  66.9056948  57.1780396  42.8731012  10.7808018
  57.2939253  43.2047129  11.6712153  56.2906837  43.1390524  10.5397654
  73.9636612  42.2419834  42.6374531  73.2643270  42.1155739  43.2786942
  74.7000742  41.7379570  42.9836988  81.2627125  62.0447636  40.4981709
  81.3976288  61.3478851  39.8559952  81.1936665  61.5878868  41.3364649
  57.1977997  50.4002285   0.1952114  57.1260405  49.8951578   1.0051412
  57.4004841  51.2897635   0.4848202  24.6947243  29.0954685  35.6230736
  24.8357632  29.9821687  35.2912664  25.1209118  28.5285711  34.9802494
  73.5517754  69.3135672  25.6304698  72.8799643  69.7905784  26.1176639
  73.5323920  69.6999054  24.7549110  70.5501223  39.4107294  13.6736751
  69.9046326  38.8201785  14.0620351  70.3374624  39.4176555  12.7404213
  22.5908256  24.8606944  31.0727286  21.9083261  25.3885269  30.6582189
  22.2930479  23.9573026  30.9657502  13.9215048   5.9537910  60.8556717
  13.2940348   5.5329107  60.2679902  14.6063908   5.2976106  60.9844612
  14.1324474  50.6706238   2.7304551  15.0633289  50.5598831   2.9239035
  13.8196899  49.7854662   2.5436002  54.8293018  51.0594463  19.0688562
  54.3975210  51.5478849  19.7697282  55.4813433  51.6671658  18.7199259
  57.6282454  28.0838299   6.3788193  58.2483864  28.7686872   6.1285609
  58.1768179  27.3251629   6.5781230  65.2870321  50.9188938   9.8124331
  64.6826410  50.4323769  10.3730094  65.3662443  51.7754555  10.2322650
  40.7943964  54.2996168  20.3288555  41.6116714  53.8320494  20.1565957
  40.1319265  53.8125181  19.8388577  71.7171955  29.0042353  30.6578922
  71.9354725  28.2121778  31.1490464  72.2063494  28.9209056  29.8393464
  70.4283905  49.8133755   4.8489940  70.9802198  50.3366756   4.2677271
  69.5458555  49.9078178   4.4905931   1.1658336  79.4440985  25.2846026
   0.2557804  79.4718552  24.9891973   1.3886310  78.5131884  25.2868295
  31.5198588  40.4355526  26.3510966  32.4389505  40.4602766  26.6173458
  31.4631987  39.6888041  25.7549524  59.4275331  25.4314113  15.1587498
  60.3133106  25.5077386  14.8040593  59.5441484  25.4828835  16.1074245
  73.3476877  43.6464310   3.8942677  73.6788034  44.1651487   3.1611073
  73.9958143  42.9512596   4.0078425  46.1932135  42.0519829   9.9449289
  45.3340673  41.8577242   9.5702785  46.3374424  42.9771948   9.7463942
  63.6020470  47.8843927  17.2983444  64.0888071  47.0759821  17.4588978
  63.2642221  48.1353188  18.1580758  51.8657112  43.8683176   9.6349591
  51.0297585  43.4611320   9.8621297  51.7829704  44.7716713   9.9404752
  51.8951035  46.5705538   0.4025508  51.4797258  45.8521605  -0.0745264
  51.5141106  46.5275335   1.2796053   3.8002350  56.2356043  30.7763338
   4.3411590  55.6375313  30.2606368   4.4013931  56.6048098  31.4232755
  84.2961230  60.5877941  50.3227716  84.2044892  61.2952738  50.9609776
  84.7603240  60.9874087  49.5872050  43.2150459  27.4822617   6.9228935
  42.3850489  27.9589319   6.9118989  43.6531067  27.7824402   7.7192760
  68.5651541  14.9084127   7.6531708  68.9157867  14.0252566   7.7685905
  69.2609406  15.3850949   7.2005278  34.8456629   7.3976587  67.6278623
  33.9255007   7.6528762  67.5615462  35.3310736   8.1879256  67.3910417
  11.7153319   4.4050096  62.2766047  11.1121519   3.7282918  62.5839370
  11.3665398   4.6678613  61.4248496  57.9591227  41.1063528  14.2501843
  58.3770418  41.6525269  13.5844004  58.6882877  40.7175779  14.7333086
  15.1551461  36.9517517  18.8201094  15.8203530  36.9629073  18.1319189
  15.5149603  36.3722658  19.4916475  65.5089512  69.1293292  70.3411587
  65.4446521  68.5468417  71.0979968  66.3417282  68.8971525  69.9302969
  69.4329834  52.5737000   2.6351851  69.9263144  53.3506584   2.8982240
  69.0853167  52.7921104   1.7705138  18.4853794   7.1534944  23.1225538
  18.9184429   7.2902209  22.2799397  19.1990425   7.1474153  23.7604308
  64.7572803  62.9374361   9.7242033  63.9829779  62.7658081   9.1882622
  64.8790503  63.8854456   9.6724665  50.2187872  69.3433809  17.5259030
  49.6324348  70.0815344  17.6918983  49.7515392  68.5835505  17.8731370
   7.3998054   6.5856145  68.6996364   7.1069392   7.3303102  69.2248877
   7.0349296   5.8205674  69.1443860  17.1563967  23.4759162  66.0258742
  17.3353918  22.7014182  66.5591168  16.6027268  24.0257047  66.5803190
  33.2437778  10.1210046   9.1479242  33.0545568   9.3787354   9.7219145
  32.8593373  10.8744073   9.5960552  76.7471123  52.1330309  16.2687075
  77.4719667  51.5475798  16.0494816  76.4175844  52.4337578  15.4218256
   4.4707045  63.1284523  27.3408175   3.5217744  63.1361771  27.4661350
   4.6429965  63.8771582  26.7698669  47.9311991  53.9834738  29.4764829
  47.7432013  54.5545197  30.2213287  48.2679272  54.5729923  28.8017130
  82.2547531   8.4367120  14.1169751  82.2906685   9.0583932  13.3900273
  81.7662144   8.8953972  14.8004770  76.9082737  68.8998842  49.9594927
  77.3774195  68.0912781  50.1651382  77.5666666  69.5886517  50.0508833
  61.3344097  58.4719753  34.2188311  60.7193947  59.2013931  34.1417956
  60.9749699  57.7941561  33.6464667   6.2028654  27.1654342  65.5152874
   6.9440492  27.1029447  66.1177593   5.4310234  27.1194337  66.0795336
  51.0135031  66.8355513  16.1605155  51.9517136  66.6481686  16.1307657
  50.9621525  67.7862406  16.2594140  20.3187084  49.5263004  40.4861927
  19.8704290  49.3683052  41.3170433  20.7432699  48.6933279  40.2809286
  58.3893824  30.0592494  24.1022372  58.1117392  30.2241516  25.0033212
  59.1161442  29.4418001  24.1847372  62.4777307  52.6565485  57.8398853
  62.4805751  51.7021828  57.9134410  61.7847600  52.9406493  58.4359615
   8.6628040  21.1888049  64.0146225   8.2276662  20.3403018  64.0978878
   8.9694484  21.2127898  63.1081866  72.6898241  47.1718073  26.3518143
  72.8242397  48.0729485  26.0583615  71.9660044  46.8503141  25.8142686
  34.9504151  61.9877367  60.3693109  34.3715753  62.7060490  60.6246655
  34.4572958  61.5077119  59.7039979  22.1758606  62.0348215  20.0366497
  21.8196251  61.4720678  19.3491673  21.5622093  61.9406319  20.7652068
  51.1047306  73.4238487  67.2893765  50.9474292  73.6398821  68.2085159
  50.2584519  73.5595899  66.8632101  69.5017209  50.6860935  42.9041439
  70.3865399  50.4533457  42.6227885  69.4342198  50.3391647  43.7937026
  84.4115939  80.7345968  62.5239616  84.7182002  81.6095381  62.7620768
  84.8210969  80.5596595  61.6766512  16.4464442  72.7760034  69.1542626
  16.4075629  72.2128921  69.9273258  15.5976407  72.6567965  68.7281769
  57.7539778  68.3070993  34.7221160  58.1818724  68.8134623  35.4125762
  58.1894541  68.5851002  33.9163208  69.3755770  33.7292099  28.4683466
  70.1824999  33.5576463  28.9538121  68.6757565  33.4694195  29.0675044
  59.3777037  53.5825968  33.9800715  59.1423988  54.1167879  33.2214522
  59.1039610  54.1042471  34.7345114  70.6332016  52.5138426  25.4304218
  70.3619194  53.1108093  24.7330928  71.3381195  52.9778147  25.8821487
  59.0422344  65.5214739  44.2460871  59.5569038  66.3234282  44.3367052
  58.5595369  65.6378460  43.4277391  59.3348074  53.1241226  13.3544397
  60.0862694  53.6292315  13.6649168  58.9742231  53.6469030  12.6382613
  69.8852626   8.5253566   1.3115829  69.2565958   7.9091399   0.9356980
  70.6346742   7.9829448   1.5573348  66.9036293  12.6990831  13.0411863
  67.6172733  13.0957448  12.5415885  66.8958187  13.1785572  13.8696051
  85.0160217  42.3631859   7.2841662  85.7388973  42.2277594   7.8968209
  85.4193115  42.2940588   6.4188296  56.7706728  57.3531723  30.2534938
  57.6638079  57.5298929  30.5489683  56.7017460  56.3984632  30.2569413
  58.4485960  34.4929624  19.3220222  59.3748808  34.3807054  19.1084254
  58.0629492  33.6289644  19.1770422  35.4639872  26.0188649  37.7623659
  35.3653534  26.4931701  36.9368129  35.9413155  26.6235612  38.3304577
  62.9197502  78.4845686  41.0839891  63.6261845  77.9651356  41.4678812
  62.6051760  77.9560471  40.3505421  86.0195889  79.9132042  48.9134794
  86.9403186  79.6588521  48.9750963  85.9637418  80.7318097  49.4064289
  45.9721661  48.7139940   2.7376151  45.9214735  48.2036400   3.5458261
  45.0629425  48.9363098   2.5373086  86.7910862  59.3952608  46.9889069
  86.1777401  60.0612068  46.6781664  86.4282036  59.1076946  47.8266764
  74.6114063  63.6200523  19.8990071  73.8797283  64.2357445  19.8566020
  74.4912672  63.0524778  19.1376555  70.8382082  32.5369787  46.3394213
  71.2048817  31.7929697  46.8171597  70.5165386  33.1252503  47.0225716
  85.5709267  70.3654289  18.9801490  86.1541939  69.6658802  19.2745316
  85.3857422  70.1537228  18.0652082  77.1652079  47.1381807   7.2575516
  77.8853512  46.6377735   7.6412350  76.7067099  46.5092611   6.7003489
  84.7314548  35.4419374  38.5568047  83.9639473  35.1286077  38.0782723
  84.5728970  35.1778889  39.4630980  66.1586714  21.7401791   8.1477445
  65.9916449  21.5695381   9.0746832  66.6987514  22.5304484   8.1432122
  34.1402721  46.0523891  15.3976178  33.3595705  46.4915657  15.7350552
  34.7926950  46.1581612  16.0899985  32.3950672  37.0592570  16.6054332
  31.6193223  36.5333223  16.4108980  33.1016588  36.4197874  16.6951036
  49.1498041  37.9969096   1.8403049  49.4455814  37.8154469   2.7323914
  49.9439383  37.9416704   1.3087720  71.8241310  53.7921953   4.1674691
  72.5793743  54.1576958   4.6281663  71.0672760  54.1014338   4.6652415
  68.4419145  80.2813034  62.6388787  69.1951051  80.2500968  63.2287621
  68.8095298  80.1102930  61.7717879  75.5019107  71.0493260  53.5242634
  75.7545009  71.2027150  52.6138227  76.2083497  71.4407711  54.0380197
  69.9983501  27.9824662  14.5088685  69.5030260  28.0261469  15.3267777
  69.5957899  28.6465931  13.9493060  85.4862407  37.9070997  25.2636981
  85.8968694  37.4306655  24.5421529  86.1027217  37.8187704  25.9905958
  72.8813553  58.1691408  27.2761130  73.0576134  59.0919447  27.0928335
  73.7187862  57.8217173  27.5830913  28.8299417  26.7020535  11.2940359
  29.6888280  27.1239662  11.3171935  29.0226030  25.7648849  11.3228798
  14.4271000  19.3369220  62.5146531  15.3057392  19.7132323  62.5657772
  14.5619925  18.4622882  62.1498924  34.0180373  27.9814649   7.6155233
  33.4036493  28.7060118   7.7329612  34.5898581  28.0257130   8.3818746
  28.8406422  56.6882801  33.2884097  28.9041664  57.3855639  32.6357293
  29.6258213  56.7912674  33.8261080  74.0375757  42.8331852  25.4062724
  73.7305832  43.5674334  24.8744202  74.1305447  42.1103334  24.7857308
  34.8500498  23.8258527  47.0267921  34.9003752  24.7616933  46.8321162
  34.0651425  23.5275005  46.5672951  42.0193919   0.3650068  57.4212413
  41.9642552   1.3020681  57.2338694  42.6007517   0.3061507  58.1793886
  65.8544779  74.4663668  37.6553059  64.9170113  74.5984602  37.7965307
  66.0269547  73.5891533  37.9973221  12.0139273   2.5280164  49.7199374
  12.6287659   1.9657443  50.1911622  11.2060412   2.4807571  50.2311283
  14.3145092  21.2906192  66.4593368  13.8334950  21.5541385  65.6748538
  13.9289387  20.4498218  66.7055633   5.3988220  10.9670329  28.2320547
   4.8567345  10.4202652  28.8007474   6.2927105  10.6622851  28.3879995
  63.2235154   8.8454984  35.2667289  62.8778656   8.9662097  34.3823176
  63.0639656   7.9221748  35.4622870  52.6562023  49.1708708  10.3693020
  51.8998384  49.0718794  10.9475267  52.5170946  50.0124121   9.9349159
  48.1712063  30.1891397  62.0048045  47.6239117  29.4333242  62.2179692
  48.5903223  30.4225896  62.8331023  73.5886145  78.8764668  37.2240233
  74.5236444  79.0183401  37.3717546  73.4091759  78.0258894  37.6247072
  11.4077904  69.5308352  19.3207967  10.9898712  70.3788567  19.1710222
  11.3584473  69.4035006  20.2682066  81.5702343  48.0449724  25.8239555
  80.7586479  48.3172894  26.2522078  81.3064861  47.8202629  24.9316692
  10.8974975   2.1833937  38.4586954  11.0014432   3.1184714  38.6349440
  11.3301891   1.7513125  39.1951132  79.1950750  20.2492785  11.6708922
  79.7390270  20.8064890  12.2275484  78.3496046  20.6967998  11.6372406
  72.8093537  40.6058334  59.4607716  72.9913624  40.5122112  60.3958338
  72.6536377  41.5424846  59.3396788   8.3577903  20.0149177  54.8911350
   9.2495497  19.8622630  54.5785790   7.8099378  19.9086736  54.1134446
  76.8150806  55.5690622  10.9873533  77.0061636  54.6332932  11.0510516
  76.5915060  55.7057381  10.0667202  61.9365025  73.1205606  21.2513304
  61.7235613  72.4641752  21.9146919  61.9723988  73.9462328  21.7342424
  10.4544117  24.5234346  37.4624562  10.6232597  24.5377779  38.4045386
  10.0399067  23.6748886  37.3063087  42.6062584  77.3061514   2.9242316
  43.2064009  76.7050648   3.3655399  41.9856262  76.7353201   2.4712405
  27.4051708  23.1191962  42.3754549  28.2341712  23.3480304  42.7957392
  26.9951957  23.9617484  42.1798897  80.4833031  61.2989283  17.1466422
  80.3201866  60.3978157  17.4252498  81.1331749  61.2198067  16.4483297
  46.5923263  55.9725094  19.6636796  45.8113052  56.5092802  19.5290887
  47.2095634  56.2766647  18.9982951  27.2904914  20.6368964  51.0179853
  28.2001918  20.4394286  50.7951117  26.8962997  19.7826903  51.1945534
  61.0070038  51.2594748  15.6256604  60.4738092  50.4891920  15.8221304
  60.6007624  51.9662619  16.1273110  41.9217602  76.5815907  61.8790089
  41.9409863  77.5261169  61.7249577  42.6001946  76.2309390  61.3019466
  64.5101023  74.4657898  14.7210038  64.0028906  74.0611458  15.4247355
  64.1974688  74.0379143  13.9238739  77.7311373  78.3737993   8.0276728
  77.5869656  77.8549147   7.2363418  78.6612082  78.2594442   8.2229257
  40.1294955  30.1712297  63.8008725  39.4682797  30.8321164  63.5952895
  40.4864891  29.9168084  62.9499584  84.6244812  60.7616138  10.1052892
  84.9240112  61.6705370  10.1245975  85.3660774  60.2578640  10.4406953
  63.9150715  49.6599817  21.3601613  63.4789324  49.3346167  22.1476603
  63.5075092  49.1746759  20.6428051  48.8292742  59.4174576  12.4708092
  48.3023596  58.7512016  12.0295632  48.4828711  60.2493286  12.1479619
   1.9187977  66.8196392  17.1649635   1.8149139  66.0296202  17.6953530
   2.8333904  67.0731354  17.2894311  54.8627663  61.3511276   9.6250802
  54.5718956  61.8137932  10.4109347  54.0839767  61.3084888   9.0701944
  65.3046560  47.2313213  43.7381411  64.7603083  47.9143429  43.3464766
  65.1322412  47.2968626  44.6774054  47.3814352  13.6312078  52.6544862
  46.6563996  13.0222581  52.7949768  47.0516833  14.2499660  52.0028465
  66.6191053  48.8080215   8.3507633  66.2329388  48.9110470   7.4809980
  66.1767769  49.4648075   8.8885427  22.1796316   1.0352843  24.6703935
  21.8361896   0.1894801  24.3824792  21.8155139   1.1556571  25.5474138
  10.1170589  69.5334101  30.3111315  10.1763298  70.0810194  31.0939741
   9.7466423  70.1100731  29.6429372   1.4205124  60.7766151  35.0799656
   0.8425857  61.5233278  35.2369881   1.4826824  60.3391504  35.9290767
  82.5200653  45.9943008  30.8024120  81.9277763  45.2578545  30.6505203
  82.2798443  46.6365528  30.1345515  44.5068600  71.1997128  33.0453491
  43.5624649  71.1280346  32.9067802  44.7683098  71.9594002  32.5250053
  33.9827085  64.4955826  41.1321163  33.1655955  64.5219040  41.6299820
  33.9400983  63.6725807  40.6452036  40.9227419  28.9988232   7.3665112
  40.9977961  29.3042278   8.2705718  40.1388311  28.4495449   7.3635548
  66.6484308  62.5648260  30.6440902  66.0784054  61.7987728  30.5772710
  66.9674397  62.5480175  31.5464115  38.1014538  80.7989311  15.5354643
  38.3713198  80.5185986  16.4100039  37.8920102  79.9851370  15.0770879
  77.9342651  43.4016085  58.8814926  78.2530165  42.8356600  58.1784058
  77.1652555  42.9468060  59.2250252   2.3717071  40.9739208   5.6044078
   2.6277401  40.7975197   4.6991122   3.0387165  41.5792370   5.9283423
  22.7848865  33.5287642  34.0464783  22.9361679  34.1010714  34.7986817
  23.6405136  33.4583449  33.6231923  15.3914064  16.1726992  23.3451986
  14.6550744  16.0426562  23.9428043  15.4410499  17.1215480  23.2292080
  11.0294193   1.5593760   4.0401000  10.8725685   0.6432956   3.8111153
  10.2161640   1.8448107   4.4564778  64.6134520  60.2293777  30.3548408
  65.2533484  59.7160721  29.8616099  64.1060257  59.5780754  30.8391547
  74.0581799  13.0234134  19.1027558  73.3095837  13.5598516  18.8418460
  73.7642622  12.1219790  18.9713728  73.1957539  42.1479438  68.2235616
  73.9032753  42.3031734  67.5978254  73.0999096  42.9794906  68.6878677
  62.7669430  25.4960585   0.8723159  62.3161650  24.9552035   1.5207805
  63.2829142  26.1126661   1.3917352  62.0841360  78.4988546  24.3447661
  62.4540710  78.3294964  23.4783363  62.8390503  78.7276888  24.8869586
  70.0946951  29.9225020  65.7306337  69.2755651  29.4386363  65.8361483
  70.0971317  30.1918960  64.8121309  33.2958086  28.6205934  36.8737035
  34.2380913  28.6043809  37.0412403  32.9515370  27.8778241  37.3696905
  63.9874601  77.7734709  22.4982595  64.6090555  77.5516224  23.1915355
  64.4056082  78.4909725  22.0222545  85.8212566  34.6854591  18.0113888
  85.6923294  35.5134749  17.5487888  86.7104149  34.7424865  18.3612335
  57.8886700  46.6346884   9.1691834  57.3674297  47.2316265   8.6323345
  58.0644894  47.1258879   9.9717057  66.8951797  43.1281376   8.4052253
  67.4480343  43.7544107   7.9379296  67.0545340  42.2931147   7.9652542
  38.3527525  14.3567823  52.0908027  38.4236439  13.8426612  51.2865107
  38.8312968  15.1639960  51.9020396  23.9199074  19.6356271  40.1832943
  24.4325550  20.2688478  40.6857448  24.4177826  19.5116971  39.3752127
  31.6850608   3.4532779   7.9427105  31.3680213   2.8877681   7.2384912
  31.3104862   4.3121665   7.7471799  10.1538127   7.5856345   9.2763919
   9.4702142   7.9477923   9.8400956  10.2177041   8.2048934   8.5493040
   0.9183456  50.1172066  20.5581832   1.1227753  50.3010178  19.6413112
   0.1448681  50.6500816  20.7425976  76.4433384  55.0897217  49.6821928
  75.6362486  54.7464657  49.2987585  76.5306044  54.6236229  50.5136776
  19.8747772  18.6402934   2.5541162  19.2296737  18.3345931   3.1917867
  20.7187932  18.3827536   2.9249746  75.7349348  63.8776064   6.4873743
  75.6881571  63.0015421   6.1045486  75.2200317  64.4256115   5.8950949
  64.9222469  76.9549799   6.0864556  64.3282366  77.2725105   6.7665756
  64.3539953  76.7731714   5.3379458  21.3300794  21.2006324  38.3980584
  21.2347549  21.1603682  37.4464679  22.2671646  21.3352530  38.5394096
  55.1108879  77.9855754   1.3828129  55.8280223  78.3964016   1.8656964
  54.3233150  78.2325627   1.8675417   0.3082053  71.7261582  53.7757807
  -0.3913816  71.2479716  53.3306437   0.5280654  72.4405532  53.1778400
  12.1929886  51.6459703  18.9532089  11.8190624  50.8143187  18.6620653
  12.7413322  51.9309902  18.2222378  63.2002163  55.5577898  52.0476675
  63.4796572  56.0005713  51.2463617  63.1717062  54.6306181  51.8114996
  65.9667301  76.8680859   9.7624743  66.2002993  77.3980141  10.5246150
  65.7320738  77.5069284   9.0893841  73.3827639  48.2005978  20.4609585
  73.1975365  47.9000282  19.5712507  72.7772331  48.9290333  20.5986190
   9.5173504  40.4546309   5.9222341  10.3662922  40.0604105   6.1225355
   9.0847065  39.8163462   5.3550977  48.9554358  49.1033125  26.0770845
  48.1704426  48.5600424  26.0072756  49.4182205  48.7584925  26.8407345
  39.1081738  74.7359705   2.9692584  39.0365815  74.6600866   3.9207563
  38.5716915  75.4973888   2.7486700   3.6093189  37.6942706  16.6541827
   2.9473450  38.1723523  16.1547208   4.3842365  38.2553148  16.6231751
  75.3886890  46.4730978  64.2628908  75.8212137  47.3168230  64.1314363
  75.0559282  46.5116596  65.1595592   9.0625336  75.1686239   5.5616462
   9.8873092  75.6531954   5.5957502   8.9513828  74.8223639   6.4470738
  60.9366552  13.5124247   2.1923949  59.9897973  13.6526912   2.1881433
  61.0569874  12.6765769   1.7417192  77.4936867  56.0925341  16.3574123
  78.1306553  55.7774067  16.9986594  77.7573109  55.6795979  15.5350900
  63.2488298  58.4532261  27.8363276  63.9771891  58.4056044  27.2170877
  63.5564709  57.9733801  28.6053109  44.1018971   3.9586232  57.2427743
  43.9399155   3.2891153  56.5781312  43.5183104   3.7254880  57.9647868
  20.1954420  21.7399286  45.2116280  20.9635123  22.0222448  44.7150402
  19.4669875  21.8286632  44.5970469  53.9210423   9.8751996  52.5431006
  54.6197518   9.4630979  52.0349567  53.8697632   9.3554567  53.3452683
  53.9032555  51.0673046  13.1396008  54.6909761  50.5554152  13.3231795
  54.1680717  51.6750669  12.4491477   8.2059242  56.2850428  17.4281013
   7.9226925  56.2885094  16.5137720   8.5116150  55.3909063  17.5807595
  71.9296598  32.5265932  30.7712555  71.9746542  32.1556211  31.6524982
  72.3243809  33.3944631  30.8562875  81.8418789  54.0542889  25.3282952
  82.0707989  53.1771851  25.0208569  82.2146893  54.1044521  26.2084842
  81.5668869  55.2342939  10.2274454  80.9004688  55.6138611  10.8001935
  81.7120743  54.3556547  10.5783737  66.7486580  50.7134078  55.2035301
  67.3021515  49.9549220  55.0175744  67.3562058  51.3808559  55.5223160
  50.1023149  45.6869745  54.5878601  49.7198200  44.8185253  54.4624615
  50.0425196  45.8411598  55.5306673  70.8796549  52.6077700  12.7863896
  70.2256489  52.5634909  13.4839213  70.8131504  53.5022497  12.4521446
  28.0107452  76.2309647  15.4841769  27.8593113  76.1295223  16.4238632
  27.4770119  75.5466652  15.0803185  21.4519646  45.6970596   3.1185997
  22.1880581  46.2927008   3.2586560  20.7914211  45.9797430   3.7510633
  72.7719035  75.8399778  52.5708394  72.6011720  74.9177103  52.3797791
  73.3227601  76.1366563  51.8464308  70.0771475  67.7170563   0.6667844
  69.2405796  67.4428654   1.0425551  70.3799152  66.9542694   0.1741198
   1.1219422  78.7078219  57.0859569   2.0673148  78.6564212  57.2268742
   0.8497826  79.4878464  57.5694054  65.8511782  68.2117367  15.9465683
  66.3024664  68.0386925  16.7727816  65.5254936  67.3559237  15.6677318
  62.8221607  54.8770046   3.0469203  63.0005598  55.6538534   2.5169158
  63.6530113  54.4019604   3.0628639   5.0894405  40.8185101   5.8788759
   5.3462459  39.9964380   5.4611641   4.5144417  40.5530691   6.5966177
  19.8954576  12.1068137  29.3923426  20.1636404  11.6558020  30.1929069
  19.0680068  11.6915458  29.1492176  74.6445704  45.1022911   6.4989990
  73.8913822  45.2804661   5.9357989  75.1404762  44.4308805   6.0304689
  69.7166395  50.2621603  45.4863310  69.0021133  50.4620934  46.0910702
  70.4514980  50.7883406  45.8015299  66.8510008  44.6720123  15.6365848
  66.8858480  44.1774225  14.8178065  67.7254820  45.0511360  15.7247937
  46.7090893  75.8725214  27.0882535  47.6219034  75.7124186  27.3277736
  46.7584896  76.4711142  26.3429475  18.9751865  33.2466340  40.7978392
  18.5678341  34.0559983  40.4892492  19.2606117  32.8025866  39.9993515
  22.6863521   0.1180117  32.3182797  23.0926746   0.4055732  31.5006971
  23.4078163   0.0877803  32.9466128  14.0558674  26.8118954  12.3271275
  14.0852024  27.0583057  11.4026535  14.0105583  25.8558035  12.3188436
  60.9573507  41.4887810  12.3231614  61.1195087  40.5482626  12.3963857
  61.5372849  41.8832445  12.9745507   4.2761375   7.0759791  18.6812139
   3.7149002   6.7159796  17.9944479   4.3282463   6.3806242  19.3369567
  69.5799923  42.6870060  12.1501875  69.6646452  41.7419529  12.0239508
  69.0427542  42.9798031  11.4140630  62.3467167   4.9995015  68.8655845
  62.8164395   5.7502769  68.5023715  62.4111184   4.3261789  68.1882929
  39.8007607  77.1468687  17.7361846  39.7995186  77.3228073  18.6770749
  39.0635824  76.5510082  17.6029682  15.9811204  16.9318812  27.5026703
  16.5909904  16.2149565  27.3285961  16.1418193  17.1664374  28.4166694
  41.5246391  18.9274633  18.8985229  42.4515247  19.0898323  18.7231767
  41.5211535  18.3927941  19.6924686  74.0490532  51.1866856  17.6746309
  74.5011520  51.8080568  17.1038938  73.6022663  51.7351151  18.3194900
   2.5817444  35.3271747   7.1480703   2.4850799  35.8571291   6.3568449
   2.3158981  34.4472814   6.8809599  10.1822720  18.3931754  42.1324997
  10.6094418  18.8584588  42.8517085  10.1845799  17.4758313  42.4058228
  29.1263223  70.1295090  32.3486853  28.2572365  69.8957014  32.6746535
  29.3568659  69.4188643  31.7503047  -0.2867363  65.1656961   4.7650370
  -0.1428269  65.8794069   4.1436324   0.5610134  65.0462914   5.1931614
  86.4863110  60.4422045  20.7812929  85.7861423  59.7909021  20.7388806
  86.6232300  60.7062626  19.8714793   2.7152969  70.8612108   6.4782941
   2.6490833  70.0849485   5.9221768   3.6297180  70.8761120   6.7608726
  39.6375084  36.3072515  17.3577893  38.9749408  36.7970705  16.8706417
  39.1497636  35.8792996  18.0614901  17.4837162  49.6569109   9.6024340
  17.5158741  49.4396877   8.6707628  17.5298263  50.6126738   9.6272594
  81.3553715  79.8218918  19.6738255  81.8483734  79.0018988  19.6457863
  81.7511272  80.3627968  18.9904284  67.7701712  75.7653379  36.1688709
  67.1887732  75.1268291  36.5818048  68.5301352  75.2534056  35.8920884
  81.5772533  29.0426326  29.7706103  82.5164413  29.1172194  29.6014810
  81.2166977  28.6771178  28.9627552  10.3341724  34.0412736  23.3191419
  10.1467563  34.6442127  22.5997186   9.5787861  33.4538341  23.3422732
  76.0687923  70.5845594  29.0475416  76.4273262  71.1373568  29.7418761
  76.0512829  71.1505365  28.2757926  66.8330765  69.3921089  53.7476873
  66.3206339  69.0771580  53.0030823  66.2390947  69.9784136  54.2163706
  44.1968966  45.9067297   8.1831348  43.6143446  45.5064106   7.5376803
  43.6094856  46.3639069   8.7849426  20.7155031   1.8522113  48.5258484
  21.1884063   1.6068118  49.3210697  19.7914308   1.7754023  48.7633753
  61.1566742  65.4977344  57.7616840  61.7488201  64.7517799  57.8572588
  60.9951981  65.5562423  56.8200176  79.0313244  37.9486895   5.6210262
  78.9839745  38.3096910   6.5062761  78.1449223  37.6344347   5.4427880
   9.0640785  53.9283800  35.5698276   9.7346451  53.2582855  35.4373550
   8.9291050  53.9481449  36.5172577  85.0185013  61.1504126  14.5416653
  85.3792858  62.0168924  14.7295058  84.5072842  61.2721157  13.7416172
  34.6874096  66.5005541  26.6477442  35.0889065  65.9952545  27.3546410
  35.4102280  66.6931057  26.0505176  67.1625280  19.2143786  15.1743710
  67.8247690  19.7653258  15.5916524  66.9094706  19.6979892  14.3880403
  68.6974812  33.5844564  19.1016281  68.7793684  33.6859465  20.0499034
  67.8207016  33.2221127  18.9743543  16.3396408  36.2344742  25.1772809
  15.5505325  36.6050529  25.5725145  17.0560123  36.5598440  25.7224202
   7.5206615  38.4625840  14.4282794   7.4861385  37.8279281  15.1439977
   6.8709518  38.1494498  13.7989485  81.4670753  73.1112671  48.9692163
  81.8949223  73.9049673  48.6479330  81.5840244  72.4741173  48.2645226
  39.4337757  11.4936135  68.5708337  39.7943886  10.6671117  68.8918955
  38.8505276  11.7882369  69.2703000  68.0468464  72.3517084  14.1178203
  67.9871655  71.4116144  13.9478326  67.2169113  72.5717640  14.5409167
  83.7494850  17.5727475  35.8882093  84.5515537  18.0088222  36.1758780
  83.9262676  17.3195183  34.9821997  10.8642532  26.0622287  40.5654240
  11.7411949  25.7560372  40.7966423  10.2798893  25.3688502  40.8719778
  47.3656996  17.6590894  57.9610639  46.4367731  17.4775241  58.1037527
  47.4122198  17.9744790  57.0585149  82.2492218  59.9463606   8.8610071
  83.0410099  60.2019739   9.3342626  82.4215126  60.1964426   7.9532576
   0.4302265  49.7397804  25.9142876   0.8871986  49.3349171  26.6515064
  -0.4909847  49.5204258  26.0538745  45.2670916  23.8408588  64.6951651
  45.7226380  23.0160020  64.5268743  45.6025370  24.4401000  64.0283709
   0.1516574  18.8595050  16.8014467   1.0189575  18.9110797  16.3997459
  -0.0481898  17.9235881  16.8205166  75.8809614  61.1441040  14.6033680
  76.7872858  60.8511496  14.5085824  75.4281759  60.3984356  14.9973142
  69.1432238  36.8721366  19.0811026  68.9873409  36.1247110  19.6584129
  69.5672703  36.4950323  18.3102536   7.4190094  43.8049793  57.1817780
   6.7810394  43.0979967  57.0847893   7.5482799  44.1346025  56.2924671
  64.1114426  41.5649557  16.6201413  64.6918678  42.3122931  16.4758456
  64.0025711  41.5262032  17.5703406  84.0238094  58.5225201  17.7109325
  84.3743515  58.7649870  18.5679972  83.2075977  58.0626822  17.9073620
  86.6587679   2.2759097  21.3133478  86.0104219   2.6809924  21.8893623
  86.3870136   2.5293582  20.4312229  26.8549977  25.4620574  69.7488327
  26.5002594  24.8335479  70.3776171  26.6527043  25.0845836  68.8927839
  67.2829294  51.9842529  17.9525757  66.6778421  52.6906061  17.7263844
  66.8371964  51.5005302  18.6479664  83.8323784  78.6583042  25.7419825
  83.3906555  78.8870859  24.9241996  84.5902443  78.1415558  25.4683995
  83.9456550  21.5823024  20.1455235  84.5218507  20.8181231  20.1297593
  83.9132492  21.8388694  21.0671306  21.9338894  71.2107134  50.9023190
  22.5876808  70.8726740  51.5142965  21.1908674  71.4526701  51.4551353
  83.5313598   8.2324164  18.4587646  83.3794347   7.6818888  19.2269266
  83.2985965   7.6759951  17.7154982  40.9139633  55.4691935   0.5140182
  41.2810898  54.6875906   0.1010408  40.8643723  55.2478647   1.4439571
  55.2956581  78.4050035  43.9711237  54.9808407  79.0534830  43.3413601
  54.7200155  78.5079479  44.7289276  82.9555798  44.2240286   7.4589622
  83.0236244  44.8038340   8.2175303  83.6815262  43.6087036   7.5619310
  81.9329643  60.5450296  43.0996418  81.1589813  60.0811481  43.4190178
  82.2093010  60.0480604  42.3296499  42.4379309  30.0255035  62.3325478
  43.0467232  30.1181815  61.5997343  42.2033890  29.0974830  62.3331838
  32.5695850  79.4432068   4.2358974  32.3172237  78.7793255   4.8776242
  33.4108021  79.7735786   4.5512277  36.7002910  22.8320544  24.0309310
  36.5177387  22.8604167  23.0917287  37.5946468  22.4962752  24.0910554
  76.0527563  79.0020752  43.4036636  76.3351250  79.9138165  43.4759331
  76.6065025  78.6336946  42.7152634   7.6199764  11.4123576  20.5714154
   7.0694345  10.6661742  20.3340364   8.3700508  11.0231536  21.0210204
  84.6739006  70.0671387  16.1372173  84.6395206  70.5758524  15.3271186
  85.4613686  69.5300674  16.0495448  58.9017153  66.7250299  13.7823915
  59.1119003  67.6559877  13.8556719  59.6324873  66.3526249  13.2889152
  26.5268844  11.1054461  26.4637470  27.0099872  10.9299796  25.6562495
  25.6120914  11.1628859  26.1878920  79.1530991  55.7177973  20.4794407
  79.3098831  55.2441263  19.6625650  78.4268427  55.2501583  20.8918691
  76.9700813  46.0602665   0.7708149  77.6100016  45.6430626   0.1940370
  76.1212683  45.8308554   0.3925049  16.4156621   9.7411673  53.0363226
  16.5749305   9.2729705  53.8558722  17.2381919   9.6643107  52.5528288
  78.9726162  32.5798249  28.7473011  78.6957216  33.4642148  28.5076880
  78.3154774  32.2857571  29.3781114  18.6675495  24.7340052   3.8123953
  19.1976398  24.2831080   4.4696084  17.9272502  25.0892012   4.3043536
   9.0290787  57.2675848   9.8891270   8.6361553  57.8393126  10.5486500
   8.3067371  56.7154312   9.5898187  54.0491146   3.1164592  18.0956924
  53.2684463   3.1882804  17.5464916  54.7765296   3.0810778  17.4745178
  77.6018476  66.3940048  23.8831258  78.1570244  67.1669579  23.7803745
  76.9922972  66.6282511  24.5829892  79.9058676  58.3745003  10.1453376
  80.0336361  57.4786425   9.8333341  80.6555080  58.8581514   9.7984320
  32.5234993  48.0843662  70.0791651  33.1109532  48.6908935  70.5299935
  33.0625399  47.6968311  69.3896113  63.1656170  74.7563410  36.6894174
  62.7342272  74.9120903  37.5295830  63.3687353  75.6313038  36.3586378
  15.7464077  51.1706400  67.2018957  16.4741184  51.6034365  66.7553949
  15.3681995  50.5929422  66.5389824  12.7977842   1.7224543  70.6725407
  12.5228208   2.0772975  69.8271322  13.1306976   0.8484881  70.4686213
  70.4287577  54.4585466  20.0892591  70.9680414  55.1312876  20.5049777
  69.5520258  54.8412371  20.0558090   0.0132229  78.9894199  43.5171652
   0.7349827  78.3653784  43.5937595  -0.3531311  79.0414333  44.3999529
  20.0137561   4.7601073  39.1514635  20.3888410   3.8845961  39.0565467
  20.6563514   5.3413623  38.7447071  75.2240181  31.0887790  10.8055568
  74.3164158  30.7901168  10.8628845  75.5387497  30.7398963   9.9716157
  82.7077103  45.4563522  10.1786125  83.5412407  45.0437927  10.4050004
  82.0508671  44.7837448  10.3585851  16.7490150  67.8766155  33.7956262
  15.9987785  68.0203152  34.3724585  16.3613369  67.6854181  32.9415894
  54.6582890  56.0224676  50.8960867  53.9480495  56.6230440  50.6700325
  54.4339895  55.7046795  51.7706919  82.9002190  61.0416985  12.2766900
  83.2788086  60.7011795  11.4661646  82.3353004  61.7606974  11.9936109
  82.1921253  40.1716185  27.3432851  82.2754383  40.2888155  26.3969469
  81.2596607  40.0066566  27.4830246  12.5381901  54.3999100  26.1489129
  12.0075657  54.3853188  26.9454408  12.2505047  53.6318684  25.6553698
  29.4658615  36.7601204  15.2674282  28.5700943  36.7080522  14.9340665
  29.5828392  35.9520674  15.7670259  85.4317474  78.1962729  21.8895030
  85.7439709  78.7876797  22.5743318  84.4842815  78.1576490  22.0200491
  69.3183184  68.0762291  24.7136569  69.4383907  67.1968651  24.3551421
  68.6591053  68.4777260  24.1475606  79.0172005  43.3850431  40.5386686
  79.4401407  43.8627863  41.2521887  79.0734816  42.4657869  40.7994986
  43.5257286  13.0797427  41.9346189  44.1085666  12.8218406  42.6487732
  43.9295810  13.8663714  41.5680742   1.5077164  45.6144762  33.6780000
   1.6981937  45.9994173  32.8225613   0.7777550  45.0172138  33.5147023
  57.4460602  63.3641624  44.4516182  58.1973410  63.1030750  43.9190388
  57.6254034  64.2739296  44.6890783  20.9171535  55.6966352   7.8934950
  21.7464783  55.2186871   7.8972900  21.0881664  56.4772511   8.4203935
  38.9027516  73.7302213  67.0226296  39.7311417  73.4242230  66.6533621
  38.2375542  73.4202080  66.4081093  17.8292125  10.4391139  28.4596968
  17.6976293   9.8939841  27.6839709  17.6959270   9.8430674  29.1967154
  54.9639797  18.0676138  14.7138333  55.4642344  17.3330355  15.0693226
  55.5094194  18.8349247  14.8869169  21.6743231  11.4307165  34.5279670
  20.9115767  12.0043600  34.4546080  21.4602137  10.8385623  35.2488995
   4.1456016   4.2669318  60.6145494   3.7256702   4.2103265  61.4728516
   3.9680847   3.4203027  60.2047484  17.9310338  31.3014256  54.3058389
  17.9881875  32.1030074  53.7858086  18.0219619  30.5944579  53.6669629
   3.8286456  77.4972782   8.1863904   3.1065400  77.5689499   8.8106179
   3.6477478  78.1723578   7.5323451  38.0119729   8.7844652  14.2661154
  38.1577802   9.6011633  14.7435832  37.0609164   8.7273061  14.1741562
  38.6511763  72.7676756  24.8729062  38.9765986  72.8843338  23.9803123
  37.9833086  73.4457488  24.9748850   6.1674937  67.5413246  20.0670004
   6.9732269  68.0541141  20.0031829   6.2235077  67.1125025  20.9209371
  10.4589589  67.5495822   9.8098665  10.9850987  66.8731792  10.2363491
  10.7236679  67.5148482   8.8906527  24.9052167  25.9641838  24.3881321
  25.4817080  26.2626719  25.0915480  24.8537922  26.7085171  23.7885022
  33.2696780  80.3083428   1.5414113  32.7853402  80.0856096   2.3364192
  33.1337794  81.2497366   1.4339860  48.2598742  74.4370903  30.7615638
  48.1606491  73.8592053  30.0049686  47.3630627  74.6282334  31.0362005
  17.8104885  65.2325589  48.9917231  17.9358872  64.2836458  49.0002775
  18.6613806  65.5842442  48.7299395   9.0988175  34.7713583  68.5421623
   8.4757344  35.3534513  68.1072246   9.9537007  35.0428634  68.2079580
  57.7362069  11.6539310  45.4247551  57.2601422  12.3873161  45.8143049
  58.6230191  11.9882606  45.2905493  17.8658780  76.8182505  20.5131626
  17.5798615  76.2848325  21.2547112  17.1196230  77.3876462  20.3257489
  64.1162634  23.3440208  45.1909924  64.5509434  24.0795517  45.6225920
  63.1949425  23.6004782  45.1506424  74.6482754   2.2879414  18.5803044
  74.5044899   1.6559474  17.8759313  74.1917133   1.9144112  19.3341339
  13.1291350  17.3407386  55.7871478  13.5298260  16.8700193  56.5179699
  13.5416659  18.2043241  55.8034950  63.5236120  42.9911423   5.9475994
  63.2046413  42.2648573   5.4118776  63.8569212  42.5743151   6.7421985
  22.7836251   2.5073850  27.9573774  23.4569335   3.0465648  27.5424385
  23.0799556   2.4084368  28.8621593  11.5840491  80.0093047  23.4666348
  11.4021262  79.1910156  23.9287376  11.7774590  79.7394807  22.5688481
  21.2938937  80.4569162  28.8696170  20.9666785  79.8928856  28.1688809
  20.7062539  81.2124740  28.8630366  47.8761339   2.1240015  54.7948694
  47.5644970   1.8133128  55.6449223  47.3141050   1.6828632  54.1578865
  72.8481593   5.7015663  70.0879494  72.9838958   4.8848896  70.5684159
  71.8968120   5.7931595  70.0352343  14.9716822  59.9087887  55.7431810
  14.2063205  59.4638699  56.1071842  14.6330039  60.3879600  54.9869245
  29.7781666  52.8588207  28.9340138  28.8479098  52.7148421  29.1075754
  29.9109467  53.7922795  29.0991139  73.3516216   2.7517915  13.7557805
  72.5344276   2.2575153  13.8199449  74.0248442   2.0849818  13.6202478
  51.8223008  78.5742862  17.1564984  51.1338719  79.2200668  17.3154366
  52.6277359  79.0893860  17.1098495  61.5363026  20.9814477  16.9388413
  60.9703732  20.2951074  16.5854371  62.4215364  20.7112217  16.6947842
  84.1268444  25.4970026   2.3588003  84.9008083  24.9733734   2.5662035
  83.8925076  25.9163809   3.1867117  84.2479339  52.3445695  47.2624259
  85.0981393  52.5833087  46.8931227  84.3984952  51.4976757  47.6823478
  42.4119767  76.1307109  26.5802121  43.0096396  76.8334411  26.8355489
  42.6919850  75.3773976  27.1001577  17.0043437  43.6161020  70.4152292
  16.6180197  43.7800162  69.5549286  16.9227711  42.6703393  70.5381525
  65.2440453  29.6767688  12.4204421  65.9215736  30.1057363  11.8977821
  65.1310349  28.8198066  12.0092499  21.3023098  71.8363685   6.6486299
  20.4453286  71.4715667   6.8693870  21.4596709  71.5505917   5.7487404
  24.8631009  66.4599354  22.0652699  24.1535529  65.8174617  22.0656395
  24.4473751  67.2757442  21.7862368  13.2338723  72.6040388  54.2694521
  13.1949004  73.5002870  53.9356041  13.0215796  72.6853538  55.1992607
  15.6060751  67.6187594  41.2577915  15.5188139  66.6656751  41.2735415
  14.7391613  67.9427166  41.5022182  36.8102320  44.7621376   8.6916506
  36.4528569  44.4841702   9.5350075  37.0211275  43.9450414   8.2398647
  17.9584599  28.9045453  35.0433517  18.3335602  28.6351967  35.8817935
  18.4367192  29.7006869  34.8117137   7.4737803  59.1121214  52.0327764
   6.9606559  58.4790354  52.5349098   8.3417479  58.7147813  51.9622045
  44.9615955  22.5959468  12.8667510  44.6930552  22.2912979  11.9999731
  45.7735491  23.0780959  12.7102280   1.1906354  53.0363756  52.3818713
   1.5292899  52.1509343  52.5142985   0.2495019  52.9163640  52.2549682
  46.7836626  75.3549952  19.0966129  47.1581992  74.9215151  18.3297706
  47.1223124  74.8585136  19.8416328  76.7569842  55.4897039  39.5222574
  76.1053004  54.8644286  39.2051368  76.6172042  55.5220633  40.4686432
  18.2972590  62.5491028  48.0236679  17.4201171  62.7967315  47.7311998
  18.8576619  62.7122813  47.2650128  54.0606346  59.2265337  57.9656582
  53.2067313  59.6589487  57.9557209  54.4910183  59.5642906  58.7511020
  70.3225436  75.4483157  63.3651518  70.5207028  75.8926802  64.1894727
  71.0401883  74.8253971  63.2503097  63.5824728  32.6061654  22.0330286
  64.2204380  33.0828810  22.5640392  62.7328348  32.8637815  22.3907804
  44.5524766  58.4609228  58.6152749  45.4106369  58.4694117  58.1913405
  44.7031393  58.0216020  59.4522529  27.4648206  35.5224615  69.5266201
  28.1993024  36.0946824  69.3045073  27.2529237  35.0756644  68.7070440
  41.1000021   9.9882911  49.7325330  41.8750962   9.4868968  49.9856406
  41.3505848  10.9019302  49.8692732  74.2993975   6.3376892   4.7357091
  74.4267702   6.0058051   5.6244504  75.0759459   6.0465658   4.2577416
  57.3817053  79.1719919  64.1187900  56.9544473  79.7935920  64.7081058
  56.7279520  78.4871035  63.9781897   8.2979457  66.6642528  62.9490750
   7.7343671  66.3841157  62.2278725   8.6467568  67.5095134  62.6660585
  48.5424519  19.1112065  18.9191830  48.7066317  18.2599473  19.3249345
  47.9914045  18.9133108  18.1619430  41.1855268  32.4271822  19.0507293
  41.2438536  31.7646265  18.3623600  40.4169941  32.9479218  18.8174427
  48.8924885  30.9257102  13.8788629  48.3218956  30.5541706  14.5516288
  48.3434820  30.9681773  13.0959105  18.7714346   3.2938026  67.0045771
  19.7103413   3.4319947  66.8797492  18.5798033   2.4941753  66.5145712
  63.8440847  27.2940850   2.6131701  63.0548143  27.4451447   3.1332326
  64.3320322  28.1153035   2.6743346   2.0315520  52.6343160  58.2608490
   1.9207446  53.3904856  57.6845150   1.7191378  51.8915599  57.7441853
  84.1509628  31.7587018  23.6290646  84.6599770  32.2734404  23.0028272
  83.4778118  32.3620105  23.9439058  60.4596567  13.5755694  20.3750825
  60.1964378  12.9271746  21.0281754  60.7318974  13.0564356  19.6183670
  71.1043801  59.7132032  67.8379335  70.8944001  59.3430703  66.9805305
  70.3820624  59.4363885  68.4017231  37.7799900   5.0548099  33.0303865
  38.3308800   4.3294070  32.7362161  38.3841952   5.7910846  33.1256323
  21.3533799  57.3552602  55.9861200  21.3947694  56.7883532  55.2159672
  20.8473412  58.1147807  55.6975263  33.0408669  29.4946718  18.9653194
  33.2300472  28.8874173  19.6806419  32.1435022  29.2863965  18.7053370
  43.2564714  76.0937338  69.8844305  44.1908851  76.2518936  69.7499330
  43.0858960  76.4072447  70.7726008  76.9130196  36.3024314  61.7555743
  77.1280637  36.0011103  62.6382940  76.9906917  35.5199080  61.2098127
  78.8401508  26.6399741  32.0266485  78.3166265  26.9966888  31.3090754
  78.7333345  27.2714734  32.7380037  18.8856753  16.2013601  58.1570821
  18.3406647  16.9097112  57.8144007  19.6276911  16.1568759  57.5540321
  68.8953122  12.8619407  63.0504178  68.8484200  13.3552860  63.8693445
  67.9824074  12.7519820  62.7844398  39.3282811  32.7029686  57.9468267
  38.9695374  32.5317460  57.0760673  39.6862523  31.8609964  58.2281964
  80.9089088  26.5270996   7.8132004  80.1061058  26.0062861   7.7909845
  81.5878296  25.9345484   7.4904257  75.4989781  33.6042928  57.4564593
  76.4251246  33.4664535  57.6551764  75.0765862  33.6647498  58.3132928
  69.1521502  37.3439765   9.5408487  69.6561766  36.5535283   9.7341871
  68.7788105  37.1839571   8.6741048  78.8363075  23.2695150  36.1781025
  79.5856142  22.7653646  35.8609247  78.1510687  22.6164436  36.3201427
  34.9751353  44.6503544  25.8284760  34.7752762  44.4941807  24.9054933
  34.5939517  45.5085135  26.0142040  61.5460044  16.9673465  65.6065910
  61.7271003  16.9051574  64.6687382  61.1322725  17.8237603  65.7143628
  22.8301104  70.5939812  35.9989882  23.0869015  70.6570167  36.9189453
  21.9168766  70.3083403  36.0242677  79.9268633  78.0641682  27.0761538
  79.8447067  77.1828390  27.4404907  80.8457381  78.2950259  27.2125483
  56.7152119  18.8701487  20.6985784  56.0852432  18.3660316  20.1835680
  57.5679207  18.6291397  20.3365946  83.9199796  56.9600671  44.2827397
  84.4002976  57.4333566  43.6033850  83.8510051  57.5835138  45.0057822
  67.5823212  25.6222677  18.0388713  67.1487236  25.0864792  17.3746753
  66.8967295  25.8104634  18.6797929  57.0156097  55.5243111   4.9228498
  56.6091585  56.0926008   4.2685744  56.4827633  55.6447220   5.7088560
  57.2552681  20.6483340  15.6491518  56.7898846  20.8231211  16.4671385
  57.9755688  21.2787032  15.6439829  30.2554043  66.7290873  30.3579497
  31.0118731  66.5659911  30.9213209  30.2530821  65.9963901  29.7420096
  24.5080868  34.9650656  57.0498090  24.5045583  34.1660177  56.5227967
  23.8649766  35.5339103  56.6266625   4.3151871  32.2183686  61.0710161
   5.2604548  32.1066349  61.1720955   4.2204396  33.0522417  60.6106787
  68.9772844  22.8109932   1.6883013  69.8281431  22.4372816   1.4589253
  68.3761740  22.0662737   1.6713397  39.4202709  32.1994019   7.6111531
  38.8930368  31.9294000   8.3630538  39.3582153  31.4658833   6.9993281
  69.6869850  75.8594656  16.9529307  69.6895552  76.7458725  16.5916705
  68.8004494  75.5371666  16.7904222  72.3193455  34.1765809  15.6136537
  71.7984438  33.3851480  15.4775369  72.3622417  34.2744279  16.5648723
  24.8222272  47.3207735  62.7737521  25.2456109  48.0792504  62.3716449
  24.7989384  46.6630333  62.0787220  74.7678232  39.0828466   1.2187228
  74.6671152  38.3503103   1.8265717  74.3047810  39.8078203   1.6385272
  50.3896618  14.3946576   0.5384094  50.7094812  14.6595418   1.4008367
  49.9193764  15.1615667   0.2114288  42.2574663   3.5308340  15.7883704
  42.4593878   3.6320329  16.7185426  42.1404076   4.4258904  15.4699314
  74.6103239  22.7287197  16.3140130  75.0017405  23.5971594  16.4080262
  74.6926308  22.3336697  17.1819949  39.7346218   3.7699769  68.8609599
  40.3709324   3.0735419  69.0232026  39.5808419   3.7386869  67.9167121
  56.8177605  20.6592751   7.1512973  56.1542511  20.5043745   6.4789921
  56.4107132  21.2857604   7.7496803  18.4276358  64.1049772  59.7558730
  19.2297665  63.6087423  59.5928746  17.9688803  64.1013771  58.9157765
  78.3865371  47.4250501  39.9886136  79.2152038  47.2168844  39.5570975
  78.6407771  47.9065203  40.7758742  64.8292542  18.2295370  10.6779099
  65.2355623  17.3637950  10.7183623  64.1121292  18.1873500  11.3105106
   1.4307453   9.2663592   6.4976394   0.6521942   8.9522910   6.0378039
   1.3819172   8.8543874   7.3602676   3.9176385  57.2986989  63.8370334
   4.0632359  58.1842702  63.5041695   3.6057202  57.4277692  64.7327351
  26.9483956  70.0741179  34.4228768  26.0066517  69.9297864  34.5151830
  27.0225342  70.9719689  34.0994620  56.4460945  66.1169910  11.9736636
  56.8100119  66.0923195  12.8586423  55.8488512  66.8649721  11.9810545
  85.5868530  38.6620688   1.1142775  86.1290264  38.9625001   1.8436718
  85.3629971  39.4611549   0.6372251  22.3344994  24.9506235  -0.0608843
  22.7745271  25.7981944  -0.1259256  21.5380645  25.1319075   0.4381713
   2.3345200  72.6729160  69.4311403   1.9431130  73.4448247  69.8400304
   2.6879756  72.9944783  68.6017431  32.6603715  77.0312434  70.4714951
  31.9875733  76.9118457  69.8011804  32.2597996  77.6205950  71.1105894
  32.5700831   6.9801885   4.4916615  33.3896828   6.9712704   3.9972842
  32.7958894   7.3990673   5.3221935  60.7704534  39.1942679  42.3769026
  60.6343999  38.2766437  42.6128822  61.3084617  39.1609255  41.5859108
  21.8843285  76.2334972  61.4663177  22.7478139  75.8253198  61.4029812
  22.0579020  77.1725374  61.4006834  68.8281503  59.9945896  53.7739723
  69.2342820  60.2224272  52.9376846  68.0867639  59.4377106  53.5363536
  73.2146850  78.7023240  60.7751929  73.9525237  78.2185274  61.1463659
  72.6201215  78.0238800  60.4551297  71.6899204  17.3380148   3.1731373
  71.7791414  17.2746515   2.2222133  72.4834108  16.9269216   3.5160714
  59.3122196  23.1343627  23.4301591  59.6283150  22.8709698  22.5659037
  58.3596849  23.0625224  23.3689404  42.6149607  21.1966157  22.1242404
  42.5353146  22.1418190  21.9958806  43.2584143  20.9196973  21.4719248
  77.1788645  44.1127300   4.9215052  77.3424387  44.8371124   4.3175599
  78.0407286  43.9001846   5.2796113  24.4778206  22.6011634  20.5986619
  23.6272671  22.1704412  20.5134273  24.5332481  23.1751657  19.8346722
  68.4785604  74.8989534  13.2982302  68.4255695  73.9629602  13.4914660
  69.1526842  74.9661160  12.6220047  80.9574618  76.8287306  32.8770738
  81.5103068  76.5188675  32.1597343  80.2793708  77.3509770  32.4484878
  57.0780754  21.6102219   3.7575355  57.5979567  22.3933506   3.5768110
  57.5961590  21.1210370   4.3966922  14.2272965  53.9480560  63.0627035
  13.9644019  54.0892725  63.9721953  14.1077582  53.0088442  62.9219066
  73.9450598  11.8684280   5.9798127  74.2109251  10.9891415   6.2488931
  74.0144157  12.3940241   6.7767882   0.1235731  70.2557726  11.7330742
   0.5916317  69.9892206  10.9418070   0.3655942  71.1735673  11.8568015
  78.3287301  51.1747187  68.3680817  78.8739266  51.4771085  67.6417544
  78.9376368  51.0771459  69.1001632  74.6052265  53.0299711  20.7346153
  74.9465179  53.2806158  19.8761702  75.3842258  52.9260492  21.2810469
  36.0440525  70.4713254  60.0690239  35.6446191  71.1598282  59.5373743
  36.7152073  70.0904231  59.5027237  79.7892728  71.5107041  59.3008690
  79.2009845  70.9077745  59.7554272  80.4406705  71.7518907  59.9594586
  56.7441645  48.7736534  67.2109791  56.8065491  49.0565800  68.1232794
  57.3120084  49.3783265  66.7333239  82.2393424  17.9692434  44.5377999
  82.5310809  17.4022935  45.2517252  83.0466873  18.3388303  44.1802602
  77.6044893  50.4045868  21.2440276  78.3315802  49.7852850  21.3075233
  77.3950720  50.4331970  20.3104568  16.6567628  47.4510961  68.4823432
  16.1513583  46.8115418  67.9805805  17.5571601  47.3364960  68.1783905
  11.0906936  23.7473392   3.0105159  12.0140316  23.7076211   3.2597256
  10.6156494  23.5698605   3.8223439  30.8371115  59.1031647  16.6676295
  30.4250264  59.4438887  15.8736992  30.7719493  59.8204803  17.2980618
  23.8014619  70.2788787  32.3518353  23.7986867  69.7616368  31.5464240
  24.1741864  71.1219221  32.0937949  28.8224999  77.3794418  36.0059505
  28.8515774  78.2245975  36.4543872  28.4347550  76.7821389  36.6455703
   7.5894841  65.6325252   7.1922117   6.7930492  65.1111490   7.0917583
   7.7595814  65.6309230   8.1341755  58.8976669  35.0499129  11.4869785
  59.5498037  35.5967641  11.0489118  59.2444515  34.1605401  11.4163506
   1.2178661  27.3907661  28.8839793   1.0561706  28.3251357  29.0145087
   0.4731132  26.9581723  29.3016386  22.0263624  32.1889853  19.4852674
  21.7327476  31.3353586  19.1669214  21.7875457  32.7997375  18.7880003
  21.3167151  73.2507629  14.9654007  21.8549164  72.5317533  15.2964532
  21.8806084  74.0215189  15.0301397  43.5129166   1.8775602  29.6218038
  44.3189430   2.3168626  29.3505812  42.8623533   2.1497273  28.9745569
  38.4034880  71.3446552   2.0009834  38.2170733  72.0027287   1.3313416
  38.1508406  70.5141992   1.5975697  51.5303278  62.4949503  14.0808094
  51.8719816  61.7265654  14.5380747  52.3096848  62.9500818  13.7619245
  10.5825297  49.8829626  68.3038714  10.5319993  49.7065859  67.3644196
  11.3771216  50.4066508  68.4068496  39.1721829  16.5552543  41.1099701
  39.3592747  16.7123817  40.1844745  38.3009632  16.9280933  41.2448650
  25.1509953  45.7096195  16.3783407  24.6029997  44.9421406  16.5423965
  26.0060453  45.3479815  16.1452317  10.8721789  13.4136604  41.5748673
  11.4261540  13.1954454  40.8253818   9.9903854  13.1590579  41.3031178
   8.4928187   1.9294761  67.5772574   9.4406088   1.8014310  67.6163696
   8.3673509   2.5802539  66.8866201  54.4318247  51.9806528  21.9274259
  54.1981459  51.1986494  22.4275231  55.3479338  51.8452120  21.6852808
  27.2473073  51.4183903  18.5392141  27.2525287  50.8143139  19.2817080
  26.4349055  51.9144964  18.6397755  48.5645390  47.9831886   2.1418838
  47.7952528  48.4481192   2.4709216  49.2667341  48.6331463   2.1684615
  76.2695217  18.2077670  10.9787273  75.3441572  18.1875014  11.2226999
  76.2660456  18.4061325  10.0423133  61.1358547   3.3224112  17.8070903
  61.4365673   3.1791896  16.9097090  61.1264133   4.2742851  17.9074836
  69.8871708  13.3281624  15.6406605  70.1738119  12.4994397  15.2568793
  70.0406742  13.9762700  14.9531841  48.6929035  22.0352507   7.4442834
  48.2667112  21.2279320   7.1564829  49.2759180  22.2689414   6.7219859
  84.2652001  78.2350426  70.4595680  83.7205233  78.5986143  69.7614425
  84.1790070  78.8591175  71.1802155  14.8279150   4.0434478  64.2157697
  15.7018479   3.6610959  64.2950319  14.4915923   3.7025092  63.3869874
  68.3742189  31.9649243  26.4269352  68.5830736  32.6375222  27.0751834
  68.4313583  32.4174142  25.5853772  63.4997368  37.1919513   2.3247877
  63.7486696  36.2744617   2.2130951  62.9693985  37.3918438   1.5534145
  27.3316884   5.8366156  34.5660996  26.6732788   5.5226892  35.1859212
  28.1569648   5.4758745  34.8901653   9.1528861  45.8595818  61.3907378
   9.7875993  45.3578775  60.8792054   9.6081273  46.0581868  62.2089951
  22.5648705  57.0202177  48.9705687  23.5034100  57.1933775  49.0440350
  22.5004784  56.0664969  48.9205532   1.3512470  21.6282463  12.8369153
   1.1866905  22.5711823  12.8319359   2.2910835  21.5499902  13.0006957
  61.0481167  28.9770007  14.0290999  61.6253901  28.5896063  14.6870589
  61.6360569  29.4633985  13.4511960  79.8494067  59.2137211  27.4778848
  80.4670968  59.8172455  27.0650344  80.4023614  58.5879605  27.9457479
  63.1498345   6.8287395  66.8263059  63.4866341   7.6879333  67.0804494
  63.8088711   6.4813445  66.2252917  27.3418482  12.1616290  62.6636051
  26.8153342  12.4791311  63.3972316  28.1931408  11.9571756  63.0505484
  31.6567334  75.6361927   2.7918202  32.3099144  75.2230359   3.3565235
  32.1690424  76.1649931   2.1801490  72.4210119  26.8243408  32.4031639
  71.7128658  26.5255475  32.9736757  73.2214975  26.6039038  32.8794622
  62.0958486  34.9653523  50.9662395  61.4769950  35.2036308  50.2759700
  61.8871441  35.5565279  51.6895562   4.1308562  72.4742632  59.9811011
   4.9564473  72.7375083  60.3877156   4.2152039  72.7490859  59.0680902
  47.9096079  11.4079142  39.4183254  48.2784081  12.2844791  39.5271897
  48.0389881  10.9864187  40.2679348  59.8665967  60.4280560  70.7651624
  59.4805756  60.1062684  69.9505016  60.8108654  60.3459781  70.6315657
  60.1065445  64.8445415   7.5468373  60.9172344  65.2301359   7.2146839
  59.4642544  65.5520391   7.4907494  80.7455635  22.1267939  13.2969832
  80.3984928  22.5638008  14.0746701  81.6934681  22.1186686  13.4297943
  75.9808316  51.2836461  69.7035430  76.8188348  51.3491826  69.2456288
  76.2180915  51.2113362  70.6280493  76.6677489  62.8525548  67.7864148
  76.2860789  63.4885817  68.3914206  76.1245932  62.9136329  67.0006143
  18.7051543  75.1836104  18.3955860  18.5159596  75.6715519  19.1970527
  19.1350945  75.8195967  17.8238308  74.6089172  24.3170691  26.3407588
  74.7311878  25.2653360  26.3862753  74.6029568  24.1210413  25.4038644
  59.1443005  81.8167143  46.5964466  59.3695917  81.7004662  45.6734281
  58.7931027  80.9680443  46.8659907   1.9726517  36.7339587   4.6459070
   2.6115848  36.3281512   4.0599686   1.1236431  36.4441872   4.3120757
  41.6336679  23.7934279  17.0177317  41.5062141  24.5550871  17.5832939
  42.2739553  23.2545614  17.4823642  72.5446033  14.3494785   4.3431640
  72.7406311  13.7548423   5.0671893  72.0448637  13.8168991   3.7244141
   9.8543612  29.1566663  59.4967597  10.0853364  30.0627320  59.2919987
   9.1818969  28.9299004  58.8544219  36.7192221  42.4079084  16.9948399
  37.5901246  42.0474434  17.1616495  36.4045596  41.9288969  16.2281787
  30.5813996  71.2333756  68.8576933  30.8823315  71.1798888  69.7647808
  30.7466523  72.1413355  68.6036610  65.9221268  62.3290873  14.1780674
  66.7895985  62.1549225  14.5432937  65.6397676  61.4876032  13.8197219
  47.3505688  29.7017455  18.1755805  47.9935169  28.9955401  18.1113601
  46.5563345  29.2741609  18.4958947  53.6572218  41.1835337  15.5997753
  54.5598888  41.4983034  15.5513358  53.2543898  41.4850950  14.7855163
   4.7002331  20.5718570  63.8269185   4.0787331  21.2811583  63.9907967
   5.4319970  20.9938376  63.3767109  57.5447369  48.3610439  11.3707972
  57.6634312  49.2854595  11.1526191  56.6353941  48.1746531  11.1371458
  12.4050776  65.2974205  32.1493440  12.6662270  64.4060021  32.3804408
  11.5917222  65.1885753  31.6565543   8.1069996  57.8711605  13.4824657
   8.1306507  58.1483030  12.5665689   8.8480236  58.3212471  13.8881040
  85.2979183  11.8336380  14.0715408  84.5162868  12.0437670  14.5825469
  84.9617767  11.5889764  13.2093441  42.5679970  22.7265668   7.4132299
  43.1243515  22.8249049   8.1859100  41.8677807  23.3669233   7.5392026
  71.6975799  62.8905778  52.4485641  72.6233020  63.0560761  52.6271253
  71.2508359  63.6831026  52.7461510  39.9556645  76.0067130  32.3418021
  39.6563919  76.9157279  32.3607469  39.5738705  75.6124646  33.1260443
  24.9006939  35.6976819  33.4632206  24.2572808  36.0236931  34.0924788
  25.5901051  35.3118777  34.0036821  80.9801865  22.7371073  38.8962364
  81.0073662  22.6157308  37.9471540  81.8911457  22.8959060  39.1435719
  76.7558575  32.6247072   4.3234220  77.6874352  32.8174758   4.4294080
  76.5650558  32.8571105   3.4146786  55.3507344  66.2632327  65.6629550
  54.7356335  65.5373769  65.5579805  55.4790799  66.5986376  64.7756772
  23.3625507  28.9915514  38.0989623  23.6023426  28.9423394  37.1735930
  23.4555626  29.9178505  38.3215547  16.5734156   4.1134999  56.7470174
  16.7341860   4.9759839  57.1297770  15.6251200   3.9978526  56.8069594
  45.0832137  18.6261867  64.8873614  45.5753811  18.9691280  64.1414415
  44.8456438  19.4022773  65.3947800  55.5113220  17.3312950  27.4071813
  56.4097452  17.6048672  27.2221756  55.0460052  17.4627423  26.5810847
  14.7280742  57.4136877  11.0117567  14.2061855  57.3929691  10.2096152
  14.5658256  58.2818937  11.3807058  85.9161091  26.7422748  41.1948395
  86.5913582  27.4200225  41.2251425  86.0372829  26.3213301  40.3437519
  49.5242786  47.4034595  21.1191201  48.9846182  46.6354179  21.3064861
  49.9338150  47.6186275  21.9571042  64.5685101   6.4856845  54.6929216
  65.2629566   7.0930582  54.9480200  64.2067146   6.1735344  55.5223179
  12.3176162  61.5700107  67.3349037  11.8908898  62.3924761  67.0947313
  13.0736510  61.5129047  66.7506223  84.9736895  32.8541743  51.5590613
  84.8973384  33.0424236  50.6236654  84.2419352  33.3244842  51.9585352
  67.8660693  69.9712043  56.6364687  67.2155466  70.4666977  56.1389356
  68.4388580  69.5914751  55.9701710  60.3199013  10.5545686  68.2194009
  60.0743016  11.4310048  68.5156660  61.2521275  10.6238054  68.0135351
  64.9665642  32.0576310  16.2960577  65.1622581  32.5029659  15.4716718
  64.0112162  32.0703411  16.3542426  28.9451464   0.5248855  29.3971401
  28.6570938  -0.2806880  28.9678245  29.3751248   1.0253118  28.7036519
   8.2339398  64.5839649  65.8848553   7.8332059  64.3212562  66.7134856
   8.3599393  65.5291181  65.9687661  66.6095400  30.6750250  68.1850529
  66.1487150  31.1867070  67.5201797  67.5357199  30.8619356  68.0317831
  68.6994179   7.7414869  60.3594189  69.3589505   7.4405883  59.7343593
  68.5392388   6.9837735  60.9219503  29.4036048   7.8785556  18.1891179
  28.9259380   7.0915644  18.4512603  28.8695758   8.6027472  18.5156083
   5.5035416  76.5068107  65.2001774   4.5545832  76.4058452  65.1259064
   5.7472007  75.9457689  65.9364482  35.6887364  58.6359358   8.1167734
  36.3339019  57.9307890   8.1693006  35.1842022  58.4406233   7.3271340
   6.6552593  69.4171476  10.9147954   7.0543529  68.7840557  11.5115786
   7.2072460  70.1957750  10.9874952  23.9940693  63.3331156   2.1165432
  23.3449413  62.8454733   2.6235610  24.8366024  62.9842854   2.4075577
  45.1849890  23.8376212  17.9234254  45.6580877  23.0273199  17.7341509
  44.4724035  23.5690451  18.5033524  39.0021777  47.1750355   7.8134966
  38.6877489  48.0551720   7.6067966  38.4388351  46.5934086   7.3030180
  26.6559460  32.2568059  29.3154359  27.4024631  31.9964027  29.8549986
  25.9822800  31.6045737  29.5078087  60.7621487  10.1833318  65.1383840
  61.2356194  10.7662748  64.5448952  61.2632569  10.2128003  65.9533983
  77.3242950  31.1281037  23.6803174  77.0020294  31.2565756  24.5724320
  77.5387716  30.1963449  23.6349869  45.2615945  66.1512237  63.5177933
  46.1091058  66.5333825  63.7456452  44.7961346  66.0863858  64.3516820
   1.5304996  30.7778740  12.6708913   0.8035995  31.1100936  13.1976569
   1.8290665  29.9983358  13.1393039  86.1045742  63.0909109   9.8878121
  86.2212086  64.0046883   9.6277267  86.9952106  62.7520514   9.9781543
  39.6065100  68.7982375  25.0254798  39.0539940  69.4164796  25.5037379
  40.4768046  69.1966028  25.0365710  57.4218369  30.9837890   8.8156593
  57.6864290  31.8993092   8.7259924  58.2437611  30.5072355   8.9321440
  84.0033817  29.4576979  17.7252233  83.0784988  29.5717287  17.9439127
  84.0919781  29.8400927  16.8522072  80.9028973  64.9336987  39.8989706
  80.8666196  64.0877872  40.3454595  81.7670741  64.9505883  39.4877057
  10.9406551  14.0833877  63.5654997  11.7379578  13.8983558  64.0617882
  10.2320727  13.7574313  64.1203826  75.9595728  42.0682192  27.1407771
  75.7371140  41.1394310  27.2047830  75.2636003  42.4446344  26.6021109
  47.1520058  55.3694182  65.4550885  46.6166131  54.8134535  66.0212066
  46.9029919  56.2627893  65.6919723  59.9320140  51.8848365  55.8779531
  59.8281803  51.3391858  56.6575151  59.9966612  51.2603777  55.1553863
  11.2626712  63.0241638  44.5834666  10.3725402  62.7248722  44.7687202
  11.7521159  62.8291612  45.3826218  24.6585514  26.7448378   2.3596168
  24.9132015  25.9811306   1.8417951  23.7469150  26.5785050   2.5993720
  42.7331313   4.2236589  64.3921845  43.5797652   4.3475173  64.8212611
  42.9451521   4.1457675  63.4620159  83.0652585  75.3675943  70.8171924
  83.1122699  76.3182407  70.7157388  83.4908690  75.0216632  70.0327072
  65.7255497  74.1314655  67.4520706  65.1022806  74.1257911  66.7256155
  65.2047410  73.8849550  68.2164156  80.1852512  27.3160863  10.7216144
  80.1028252  26.6414118  10.0476313  79.4494104  27.1556139  11.3123977
  60.8505448  18.1361173  49.9174862  61.7683323  18.1909297  49.6512442
  60.8419903  18.4642528  50.8166438  59.6485806   0.9731428  29.5769358
  59.2614031   1.7201757  30.0332952  58.9124298   0.3827574  29.4164348
  70.8898973  19.6097744  25.4781032  70.8041239  20.5621409  25.5213809
  70.7859755  19.4018853  24.5495462   6.3635556  68.1392198  68.7037980
   6.2711207  67.4702650  69.3821680   5.6779258  68.7772136  68.9015541
  50.2673817  48.5497189  16.6299403  50.6975174  47.7203417  16.8381464
  50.3049803  49.0502501  17.4449778  19.0536038  73.1803828  68.2868598
  18.2027594  73.3535700  68.6897214  19.5993869  73.9205962  68.5522633
   5.5833866  16.2435257  11.9707727   4.7770359  16.1024022  11.4746809
   6.1741688  16.6713405  11.3509452  57.0429047  11.6408227  30.1847940
  56.6856106  11.5193341  29.3051296  56.7229756  10.8864425  30.6795507
   0.4893925  31.4092422  52.2295523  -0.3258465  31.8060827  51.9227314
   0.2191879  30.5778027  52.6193333  85.1000690  36.0268903  10.6482124
  85.0157166  36.4115667   9.7757792  84.8186207  36.7209816  11.2442493
  42.5567436  21.7587376   0.4237688  41.6455412  21.6130352   0.6781416
  43.0379486  21.0406733   0.8349381  50.3733452  67.3430128   9.1162044
  49.5734175  67.1756453   9.6145338  51.0043295  66.7084129   9.4558775
  53.7428427  37.3669434  11.4985752  54.0449095  36.4790583  11.6900063
  54.3426323  37.6835799  10.8231306  50.0720263  25.4097867   8.8279074
  50.6649780  24.7147369   8.5423529  49.8711205  25.8966208   8.0286187
  64.7906971  63.8386726   5.8031780  64.2130470  63.2829809   6.3263959
  64.6287775  64.7246790   6.1272347  11.6171138  68.4370046  68.9603432
  11.7215745  67.5598054  68.5917788  12.4900023  68.8258105  68.9043993
  46.7088127   6.8719459  13.9526188  47.2111034   6.1925507  13.5027730
  46.7953968   7.6438153  13.3931959   5.7273247  22.8364062  21.7915726
   5.6605388  23.7639546  22.0183468   4.8506214  22.6002121  21.4885163
  71.9721842  17.1690118  14.7794724  72.4581289  16.3496614  14.6858954
  72.1012306  17.4209213  15.6938684  79.0365696  27.7287865   4.1262966
  79.8987198  28.0321169   4.4107631  78.4601402  28.4800172   4.2663416
  72.1824408  32.9670286  53.5833263  73.0146790  33.2997251  53.2472849
  71.7432499  32.6010966  52.8155804  69.2057276  34.4560885  21.5148401
  68.7029505  35.0908160  22.0252991  70.0902033  34.8207068  21.4835024
  82.6971245  23.0911350  18.0056953  82.9951477  22.5017047  18.6985028
  83.3823681  23.0430603  17.3390985   8.4882339  77.9016216  43.7550116
   8.1183322  77.6267997  44.5939827   8.8775833  77.1057696  43.3927155
  69.4704628  52.9132414  14.9879539  68.7650204  52.2771215  14.8699093
  69.5968437  52.9576159  15.9357357  76.9512081  55.4262638  25.8036017
  76.5175867  56.1348152  26.2791681  77.2267485  54.8136425  26.4855123
  73.2975847  13.0273412  69.0096051  72.8038723  12.6951144  69.7593410
  74.2014462  13.0765126  69.3208107   7.1770813  22.5643396   5.0542426
   6.9868996  21.6455221   5.2435565   6.3696434  22.9009175   4.6656692
  86.2871415  30.0177835  66.2073310  85.9356410  29.3881582  66.8368178
  87.2155553  30.0862430  66.4300235  28.5432069  77.1711498  70.5092580
  27.6350800  76.8686109  70.5126732  28.5357873  77.9573756  71.0551747
  65.9180307  35.1412535  17.6622820  65.9707880  36.0885501  17.7890790
  65.2292585  34.8571634  18.2632148  79.6973419  68.7478161  23.7136412
  80.2881050  69.5006227  23.6910725  78.8252926  69.1305065  23.8101292
  70.6406927  70.8469629   0.5149585  70.7449913  69.9151278   0.7073935
  71.5146875  71.1368370   0.2535436  65.8779478  15.8335817  11.2717569
  66.6718483  15.8338046  10.7370055  66.1960459  15.8906710  12.1727502
  19.3805553  33.4292221  30.1191092  19.4583656  33.0221581  30.9819388
  18.5083820  33.8236213  30.1181221   6.3138692  71.6132360  47.2847300
   6.6798989  70.7436853  47.1230703   6.5973012  72.1356898  46.5344363
  40.8863552  28.8893436  68.7237387  41.6712483  28.7106012  68.2058363
  41.1774500  29.5072721  69.3943078  66.7422438  31.1200118  10.7864583
  66.2422562  31.4091921  10.0231659  67.3759031  31.8213701  10.9374571
  22.8807022   7.6960838  23.9612389  23.0274917   8.4644157  23.4095597
  23.4186889   7.8522092  24.7373962  63.6148882  69.0234613  18.7869465
  62.7159643  68.7314558  18.9382768  64.1199493  68.6194706  19.4925928
  64.4491204  27.1068500  50.3354412  65.3312024  27.4777625  50.3111415
  63.8991364  27.8181909  50.6636792   4.8502406  20.9669851  52.7753537
   5.5169137  21.2252258  52.1388882   5.3334769  20.4840158  53.4457713
  63.0299344  71.0868650  45.5555563  62.7207222  70.3574377  46.0927301
  63.9808597  71.0784035  45.6646519  58.3466902  64.5402794  49.8259097
  59.1048016  65.1246291  49.8200803  58.7223902  63.6602693  49.8001342
   9.6170537  51.8304031  55.7602649  10.4551760  51.7736023  55.3014021
   9.2359511  52.6561027  55.4615848  44.4229078  66.9682646   9.5019209
  44.0745163  66.6624069   8.6644804  44.2270708  67.9051256   9.5149851
   8.2737891  71.0254937  59.0784936   7.8912608  70.1481061  59.0880626
   8.5170857  71.1906534  59.9894064  21.0247239   9.3631385  67.4384167
  20.1816138   9.5320724  67.0178729  21.4245041  10.2280687  67.5295388
  76.3125896  41.3843155   0.7351837  76.0742569  40.4606247   0.6562854
  76.0497952  41.7716408  -0.0997710  34.4544053  14.6385694  -0.0818198
  34.2907882  14.8814654   0.8294777  35.4084444  14.6142530  -0.1556241
  18.2030060  57.3672915  34.3520689  18.9735939  56.8374109  34.1479707
  17.5630237  56.7398167  34.6881342  77.7238464  32.4556327  37.3079348
  78.4781408  33.0265927  37.4538159  77.2312975  32.8837228  36.6076756
  78.7296629  14.0117276   8.2685113  79.2193460  14.0699673   9.0889060
  79.2755175  14.4714606   7.6306081  60.4190111  38.1685829  17.0492053
  60.1567364  38.3882618  17.9431772  60.7341385  38.9945722  16.6822338
  78.0143174  14.8056911  47.4353629  77.4846943  15.2529214  46.7752700
  77.5517376  13.9833520  47.5966697  85.6205750  39.8938990  20.2108169
  86.5433121  39.6466064  20.1504898  85.3719616  39.6742678  21.1086965
   1.1133911  61.8667364  44.6060848   1.3436462  62.1138287  45.5017233
   0.8551647  62.6890087  44.1896486  71.0114461   9.4177888  60.7667433
  71.0662657   9.3910478  61.7219984  70.0756985   9.3460344  60.5784362
  77.9446697   2.0608127   9.6337295  78.7113667   2.5300995   9.9626338
  77.1993637   2.5871861   9.9230045  43.5616938   6.6882651  22.7103639
  43.1046168   5.9024089  23.0099416  44.4632761   6.5695136  23.0091596
  56.2349319  36.6569543  21.7956328  56.8765211  36.1841178  22.3257470
  55.8104372  37.2552180  22.4105430  52.3213689  59.7881203  67.7465039
  51.7073838  59.1492825  67.3843747  52.7049462  60.2131706  66.9794091
  62.2116756  37.5059009  20.7639432  62.0768738  38.2401872  20.1648760
  61.4085579  37.4701381  21.2835217  48.2301426  23.4763956  15.2430427
  48.8249111  24.1249371  15.6197000  48.7495232  22.6737213  15.1962924
  12.8096535  59.6570063   9.2907059  12.0308639  60.1608753   9.0543962
  12.8907825  59.7714710  10.2375674  33.0334997  42.7382469   8.7550503
  32.3483467  43.1203985   8.2066393  33.5510492  42.2029781   8.1535017
  25.6866662  72.1075755  51.4183228  26.4485280  71.8107992  50.9206074
  25.8327119  73.0452662  51.5433793  62.3560572   8.4361017  15.2343154
  61.7325068   8.8043684  14.6083772  61.9466686   8.5725987  16.0887158
   4.1631047  66.3325410  57.0721202   3.4221188  66.4431458  57.6678877
   4.1676966  65.3976803  56.8665748  31.6879519  73.9258499  23.6271119
  31.6026362  74.3950845  24.4570351  32.0943411  73.0922008  23.8639879
   1.0853149  53.3981085  22.4364614   1.0191013  53.8152170  21.5774679
   1.9073917  52.9089689  22.4024820  46.5660874  63.5725003  65.2545833
  46.8220441  64.0074401  66.0679375  45.6090466  63.5841422  65.2676605
  44.7447109  19.2586136  13.6331308  45.6681967  19.0910971  13.4451330
  44.7572374  19.9222302  14.3228304  73.4691668  26.4203882   3.5524690
  73.7038803  27.2772765   3.1962615  73.5739756  25.8179855   2.8160188
  47.6678713  47.0874904  67.0455050  48.1514510  47.8399680  66.7046615
  46.8075474  47.4393008  67.2742029  74.0484476  49.6201706   4.8225567
  73.7501144  49.0115309   5.4984140  74.9945831  49.4824219   4.7769269
  65.8740044  27.3983240  37.3446012  66.6894007  27.6667380  37.7680564
  65.1861238  27.6897907  37.9430127  35.0180840  31.7535686  21.7741609
  35.1104045  30.9691072  22.3148346  34.3341017  32.2640324  22.2075486
  53.4975529  58.4527302  32.5029683  53.8348103  58.6514568  31.6294694
  52.6453876  58.8874722  32.5353146  18.4328087   1.2117980  64.9105733
  18.1189402   1.4626477  64.0417861  19.1343363   0.5834268  64.7395813
  82.5231942  44.8028682  51.6287749  81.6028603  44.5410655  51.6025083
  82.6988896  45.1487086  50.7537013  56.9773301   7.7194999  58.3768981
  57.2233113   7.8500055  59.2926984  56.0701855   7.4162076  58.4134381
  83.2159805  25.0868416   7.3766392  84.1607761  25.0638866   7.2247750
  82.9316711  24.1810536   7.2543895  11.9341423  43.6395073  15.7545340
  11.9602730  44.3158197  15.0776684  12.2929813  44.0656614  16.5329039
   0.3035690  24.4385552  29.8839331   0.7121898  23.6771464  29.4722056
   0.8816387  25.1689959  29.6636605  68.9465666  33.4113812  24.1928720
  68.4534931  33.6158848  23.3983350  69.0764236  34.2586493  24.6189094
  16.5117518  80.9057360  67.5235995  16.2734095  80.2731162  66.8459456
  16.5354697  80.3934460  68.3318231  53.1161022  62.7083015   3.0322239
  53.9203358  63.0561495   3.4175098  52.6094151  63.4846449   2.7939144
   3.3320286  50.8653736  16.5130210   2.7205803  51.1261082  17.2017729
   2.8299000  50.9496784  15.7024705  79.6366262  54.4812489  17.7360511
  80.0258064  54.3115425  16.8781626  79.2103910  53.6575508  17.9728711
   2.7621414  41.8933678   9.9062914   2.8799393  41.0108137   9.5549351
   2.9967834  42.4729776   9.1815674  62.6053762  18.8496876   6.0531461
  62.0475960  19.0743077   6.7979014  63.4590673  19.2232323   6.2720174
  77.0442867  54.9678707  22.0292664  77.4306154  54.6862698  22.8585339
  76.6333389  55.8087826  22.2298074  58.2077646  33.3939886  15.8913219
  57.8868961  33.8760233  15.1291418  58.9988470  33.8634372  16.1559772
   4.0118172  25.1486254  35.9693384   3.3457710  25.8219767  36.1079526
   4.5398475  25.1661325  36.7675304  81.6365814  34.9644566   5.1806879
  80.9316158  34.3180084   5.2175486  81.3842392  35.6307387   5.8199233
  13.4685757  25.2722883  40.8597660  13.2933094  24.7883844  40.0527000
  14.3614532  25.0237250  41.0989666  64.8847342  72.1579647  27.0687747
  65.1353741  71.7989922  27.9199791  64.1448355  71.6185570  26.7898226
  48.0658627  68.4136724  21.4552879  47.3240376  67.8617191  21.7028213
  48.4902763  67.9383135  20.7410479  83.0318894  80.6363588  58.6738997
  82.3241963  80.8776741  59.2715340  83.2717385  79.7468000  58.9334958
  65.4123211  41.3351059   1.0407200  65.2876949  40.6111097   0.4270984
  66.2425232  41.1403275   1.4755322  64.0028095  18.9646757  32.8802228
  63.4621906  19.6722829  33.2312965  64.2332029  18.4372401  33.6450505
  43.4421595   7.4835609  53.7491184  43.8324602   7.7628539  54.5773023
  43.3677491   6.5325282  53.8280862  18.3387009  51.4254611  51.5630763
  17.6469342  51.1709195  50.9524219  18.2554452  50.8083700  52.2900551
  72.7223492  33.2901716  33.7303281  72.7249861  32.3548508  33.9338040
  73.4583807  33.4066653  33.1295633  58.4015036  28.5190225  13.2785416
  57.9644203  29.2352819  13.7391520  59.3245029  28.6099577  13.5152507
  77.3800087  35.4479003   3.3525583  76.6965866  36.1111379   3.4488890
  77.6118803  35.4759812   2.4242908  18.2940914  47.9947710  16.2788975
  18.9535953  48.6144257  15.9669626  17.4812366  48.2797670  15.8614230
  85.5228615  22.2975087   5.0274628  85.7624245  23.1723690   4.7217470
  85.0703812  21.8994808   4.2837796  16.2667610  43.2553816  14.0015304
  15.9404709  42.8042173  14.7801304  16.9177582  43.8717175  14.3370330
  84.1864109  13.8831913  33.7239885  84.9721813  13.7261212  34.2475677
  84.1965485  13.1907642  33.0631757  33.9093639  26.6202235  17.4999464
  34.2817547  25.7441044  17.5998163  34.6585323  27.2099781  17.5845802
  63.5459995  43.8843918   0.7012272  63.9901495  44.6611404   1.0412616
  64.1707325  43.1721735   0.8379175   7.8150894  25.3302646   9.3580210
   7.0421459  24.8577046   9.0490443   8.5541107  24.8544741   8.9789402
   7.7135803  44.9978352  39.8111248   8.4353782  45.2562332  39.2379975
   8.0515053  44.2460155  40.2977562  17.7379753  79.7479868  35.9900355
  18.0936195  80.3675938  36.6270924  17.5460769  80.2812481  35.2186441
  85.2945900  33.2008743  33.9407706  85.9850311  32.8003335  33.4124851
  85.6364441  34.0662646  34.1654086  68.2228804  30.6306267  15.2119327
  68.1745052  29.8468518  15.7592797  67.3097134  30.8784795  15.0672781
   6.6158916  62.0846891   7.6940531   6.1482193  62.9057264   7.8470683
   5.9260609  61.4239216   7.6328784  47.0321512  48.3929682   7.7539182
  47.4209547  49.0676308   8.3105946  46.1570263  48.2576227   8.1173331
  21.9347717  60.6255722   2.2035894  22.6807644  60.4589510   1.6274254
  21.2216522  60.8610487   1.6100866  74.6085739  22.1495914   4.1400665
  73.8546181  22.1808195   3.5511586  74.2327452  22.2427320   5.0154585
   6.6027790  23.8944721  37.9775548   6.5349531  23.6058211  38.8876700
   7.0173156  23.1606460  37.5238061  36.0259245   9.5728820  38.6506391
  35.5340580   9.8645823  39.4182372  35.5295692   8.8250296  38.3181071
  44.7000404  26.9058437   1.8429322  45.3832908  26.7811460   2.5016064
  44.4844743  26.0201664   1.5508027  37.4662956   9.0151710   7.0994086
  36.6104110   8.6078186   6.9661517  37.5666984   9.0559072   8.0504555
  38.6041818   3.9792865  17.2674894  38.6467610   4.7398131  16.6878200
  38.5936234   4.3507712  18.1496012  32.6856279  64.5753574  35.1364994
  32.4583268  64.5307779  34.2077470  33.6391401  64.6587610  35.1459837
   9.5943612  74.7154713  70.9196043   9.8046201  73.7896156  70.7978916
   9.3440157  75.0208664  70.0476599   3.2578270  16.4751284  60.9377670
   3.5319583  17.1633952  61.5438843   3.3632104  15.6632655  61.4337540
  32.1462321  79.0384483  58.2852554  31.4938712  79.5875216  57.8503132
  32.1161962  78.2083797  57.8095245  70.0277064  45.1404619  56.8152285
  69.8934565  45.8823109  57.4050379  70.4591559  45.5186605  56.0490370
  55.1192616  62.3716688  18.4616590  54.4892333  62.3010778  17.7445018
  55.2233122  61.4743519  18.7782514  21.4731844  15.8399648  31.0248274
  22.3761900  16.0771579  31.2359137  21.4558800  14.8848791  31.0859580
  76.4598559  50.4040051  18.7482965  76.4227198  50.4027557  17.7918184
  75.5439625  50.3642654  19.0236020  21.2657380  46.4300203  54.5182180
  21.2630820  47.3866463  54.5513058  22.1652913  46.2009430  54.2846394
  33.2896042  41.6147995  67.1509600  34.0118146  42.1352720  66.7991734
  33.6163902  40.7151508  67.1425056   5.4374886  74.0747213  40.7447004
   4.5925933  74.1347790  41.1905479   6.0534233  74.5016050  41.3402081
  76.5434728  59.9563456  63.8094664  76.6824923  59.8344421  64.7486401
  77.1618686  60.6441832  63.5630989  76.8921335  15.7446117  13.2729239
  76.9531866  16.5807552  13.7348456  75.9847112  15.4671592  13.3987708
  83.1192805  75.2317715  48.2186317  83.9000310  74.6780586  48.2266426
  83.4598081  76.1253595  48.1765223  70.9202250  18.8177509  17.9910845
  70.1878818  18.6853761  18.5930628  71.4750572  18.0478115  18.1159110
  60.8268173   5.0785369  14.5520587  61.1228534   4.3010110  14.0787215
  60.9855839   5.8025570  13.9464087  73.8669251  67.0742321  56.0892773
  74.3168519  67.0499229  55.2447605  74.5685087  67.0033121  56.7365646
  65.9335468  79.3176031  43.7464714  66.0212515  79.5976543  42.8353691
  66.4223121  79.9715519  44.2461586  65.0518968  19.5917959   1.5604586
  64.8199751  19.0999240   2.3481793  65.0387873  18.9406604   0.8589739
  78.2823567  54.7390652  45.0775337  77.7032338  54.0024424  44.8819923
  77.8152023  55.2400970  45.7460880  42.6301666  11.5280695   2.9951424
  42.7713617  11.0200901   2.1962351  43.3958133  11.3390417   3.5376210
  61.7521148  -0.1463061  25.6948657  62.4793442   0.3007955  25.2618880
  61.2811150   0.5501384  26.1524291  18.9816558  53.4707308  48.0268335
  18.7796009  52.5496435  48.1911707  19.2373979  53.4990358  47.1048641
  26.5075803  64.9114227  39.5069885  26.9842601  64.1158342  39.7437310
  26.8723297  65.5879164  40.0775576  70.4088255   2.8019685  20.8066077
  70.0882908   3.5130806  20.2518076  69.6158131   2.3747654  21.1304373
  54.7808383  43.6200285  62.1570969  54.8259590  44.4964170  61.7748165
  55.3218768  43.0794907  61.5814829  13.9347843   3.5835116  56.9447327
  13.4637276   4.0688174  57.6220894  13.2483105   3.2555526  56.3638449
  72.0522688  63.5761309  35.4420662  71.9913958  64.5311451  35.4202962
  72.9095886  63.3820772  35.0631475   8.6502391  60.5103111  22.5781679
   9.3480819  60.2310991  23.1708646   7.9738122  59.8395538  22.6718044
  83.2273470  41.8400478  24.7418284  84.1692434  42.0104551  24.7466660
  83.0324848  41.5974474  23.8366175  23.2772088  60.8850718  50.3492212
  23.8726330  61.6338062  50.3823996  22.6902914  61.0125875  51.0945415
  15.3148091  55.3898144  56.6110897  16.0771644  55.2554035  56.0480785
  14.6640909  54.7677994  56.2856722   9.1139108  78.6057854  63.0231190
   9.7779161  78.1990767  62.4664164   8.2954985  78.4959841  62.5389957
  71.0474978  56.7346668  57.9098892  70.1974247  56.2998724  57.9774284
  71.4127777  56.4193726  57.0832109  23.9118433  66.7051458  53.0892897
  23.5255456  65.8315706  53.0270290  23.1808853  67.3021889  52.9297066
  59.0707942  31.3266201  12.8368563  59.0250569  31.6000862  11.9206996
  59.9962381  31.1300010  12.9822058  41.4473057  49.4853497  41.7296219
  41.6020584  50.0905657  42.4548817  40.7750893  48.8872051  42.0560837
  53.8986770  22.1633666  63.0214310  54.4651548  21.9034903  63.7479258
  53.9597646  23.1183760  62.9998493  66.6219632   7.7713149  45.1866961
  66.2713830   8.6200755  44.9166203  65.8473555   7.2376101  45.3638029
   8.7085676  79.8526573  49.3975449   9.0539342  79.5301580  48.5651112
   8.0178654  79.2310381  49.6272182  46.4560984  74.6123362  46.2734318
  45.6131123  75.0657654  46.2722588  46.9041203  74.9416637  47.0525646
  72.3334487  27.2106237  11.3451094  71.8193432  26.8028564  10.6482215
  72.0635803  26.7526550  12.1411414  21.9704938  81.1383629  59.6719646
  21.2017274  81.7011833  59.7639704  22.5936651  81.6641808  59.1705656
  78.9943298  24.6204633   8.3154292  79.1610869  24.1244716   7.5139184
  78.1908448  25.1076049   8.1328435  56.4163232   3.4309692   0.3342909
  56.3453028   3.9513273  -0.4659706  57.3341784   3.5135860   0.5930371
   9.2173791  69.8456526  33.7864447   9.6609974  69.9387312  34.6295166
   8.9252007  70.7312155  33.5704803  77.8662465  81.0342312  63.9183664
  78.5528926  81.6957951  63.8342094  78.3079640  80.2784920  64.3056297
  73.8180540  76.5466452  45.6371689  74.1819010  75.7658100  46.0544777
  73.7101744  76.2991858  44.7188234  27.9839921  66.3299942  26.7403293
  27.1578479  65.9956360  26.3911581  28.5845947  65.5865240  26.6878152
  11.3232052  52.2408152  43.9316702  11.1490345  52.7858639  43.1643295
  10.7745051  51.4667606  43.8051701  81.1924891  59.1116095  56.5740061
  81.5007607  58.6184835  55.8137274  80.4508845  59.6197367  56.2452793
  55.8853433  53.7310905   3.0769629  56.5460104  54.0184612   3.7071747
  55.1035001  53.5714359   3.6056084  18.0354416  80.1384258  63.9541721
  18.7185645  80.3641891  64.5855236  17.6194072  79.3579674  64.3202734
  86.3394622  33.2617378  68.3228016  86.0151951  33.9358377  67.7255821
  85.8680144  32.4687481  68.0675840  29.6917415  66.4092112  66.9990826
  29.4455409  67.2453642  67.3946381  29.4400048  66.4958525  66.0796499
  53.5381927  18.8454980  10.8792204  53.6636226  19.0047712   9.9437422
  52.6821204  19.2266483  11.0744090  75.6019696  47.2607822  11.5047736
  75.0694855  46.9357128  10.7788081  76.4185961  46.7652053  11.4434905
   2.5184223  62.9246283  69.2877388   2.6536494  62.0914555  68.8363266
   2.3859537  62.6818085  70.2041006  60.6243102   2.1475451  20.7031012
  60.3812925   2.4504702  19.8282254  60.9055511   1.2418311  20.5734181
  86.2092485  24.0704768  36.3769865  85.3997125  23.5602992  36.4015722
  86.3380160  24.2708438  35.4498935  81.2448009  19.1451568   8.5763020
  81.9666560  19.7371454   8.7877459  81.4139708  18.3636636   9.1024966
  64.3548097   5.7474177  27.6658869  64.8725881   4.9708789  27.4534512
  63.7515726   5.8420890  26.9287443   1.2122852  69.8186398  51.0360765
   0.5664784  69.7695684  51.7408848   1.7097829  69.0042210  51.1099482
  73.4450380   9.9477141  40.4816723  73.7801210   9.3627875  39.8021078
  74.1520588   9.9972384  41.1250257  60.6799357  75.0898284   2.1375317
  60.7771708  75.5767364   1.3191838  59.7501494  75.1652641   2.3520941
  28.8944316  59.6075439  36.9524598  28.3646989  60.3389931  37.2696233
  28.3213282  59.1437721  36.3419652  77.7020530  72.6459599  44.0474463
  78.4044192  72.1736288  43.6004400  78.1393383  73.0997372  44.7679329
  58.2312266   9.1000121  27.1370530  57.2900621   8.9272063  27.1612310
  58.6242262   8.3483165  27.5806117   0.4376159  22.9080505   7.3014302
  -0.2026405  22.6569671   6.6356511  -0.0699177  23.3962411   7.9497475
  40.6535383  35.0665922   7.7965445  40.5826874  34.4615621   7.0582003
  40.9566601  34.5227642   8.5235972  55.2490155   8.0652087   9.1179472
  55.7341258   7.6767009   8.3899641  55.8709661   8.6677974   9.5257354
  59.5639656  57.6450777  68.9227772  60.4996846  57.7286053  69.1063118
  59.4861506  56.8183947  68.4465742  12.9671276  69.4021702  27.4667192
  13.2698572  69.4489670  28.3735800  12.9484630  68.4659147  27.2684550
  41.8456602  66.5512466  58.3880997  42.1368599  67.4496508  58.2321882
  40.9873056  66.6459322  58.8010073  56.4310829  13.9211982  45.9372663
  56.3002149  14.0061419  44.9928665  56.0131303  14.6985095  46.3078547
  19.0251336  40.3660888   5.8467812  19.4666610  40.4905052   6.6869015
  18.5110364  41.1644096   5.7258505  73.3165272  54.3808002  13.2830424
  72.6092442  53.8151664  13.5929579  73.1790038  54.4400901  12.3376364
  39.5985484  76.9692230  58.0674410  39.2849159  77.8138733  58.3906031
  40.5443287  76.9933367  58.2128763  78.5276310  44.5565074   8.5578346
  78.7208358  43.6770861   8.8826543  79.2148964  44.7306674   7.9147434
  85.9062298  39.0920181   9.8897833  85.8121403  38.7988157   8.9834685
  86.3969405  38.3909244  10.3186125  65.0964521  76.4568806  47.1834660
  64.8385261  75.5923319  46.8636847  65.0293253  77.0257425  46.4165783
  60.7279037  27.8725147  48.8757372  60.9876226  26.9721174  49.0708303
  61.1303614  28.3937454  49.5704126  74.1063796   4.6202701  44.5443630
  73.9470051   5.4983771  44.8904228  74.4238387   4.7678986  43.6534882
  21.2330937  21.2257671  18.2008290  22.1204090  21.3487148  17.8635025
  20.6831980  21.1832237  17.4185014   3.6915702  44.8729944  35.7860541
   3.0006641  44.6816254  35.1518178   3.2802162  44.7307205  36.6385674
  10.4439723  71.7991400   7.3842156  10.3633118  71.5792036   6.4561236
   9.8248756  72.5173950   7.5148380  85.4622052  28.5588050  54.8254871
  84.7605578  28.8750315  54.2563438  85.8635994  27.8415394  54.3349314
  59.1218923  69.9426413  36.6125655  59.0101431  70.8931065  36.5936279
  60.0670479  69.8141527  36.6925788  58.7107919  57.4626589  51.8667269
  58.5316585  57.0014000  51.0473490  59.3050073  56.8827868  52.3430538
   1.9879860  46.1124945  68.0818701   2.1447292  45.2965164  68.5570955
   1.1568804  45.9699965  67.6288939  76.4196525  79.8903751  18.3587372
  76.5710197  80.1168633  19.2763555  75.7067595  80.4671001  18.0841410
  17.7474391  45.0793219  26.4307308  17.2347605  45.5912066  25.8051372
  18.2140446  44.4403648  25.8919930  79.8589764  44.1634178  51.0552454
  80.0487302  44.1720152  50.1170826  79.7300367  43.2384396  51.2650633
   8.9972621  69.4855690  44.1910267   9.2238307  69.4874001  43.2610273
   9.1138846  68.5756111  44.4641685   4.2714071  73.3598232  29.8926306
   3.3302113  73.1906796  29.8505330   4.5260525  73.0794811  30.7717180
  24.0058541  21.2877631  34.5743179  24.2762399  22.0328498  35.1109433
  23.2268357  20.9464622  35.0134945  72.4965344  25.3785872  48.0789566
  71.5696786  25.6079149  48.1466293  72.8609965  25.5989265  48.9361906
  48.1447268  76.6884086  35.3771758  48.1885863  77.4413527  34.7877812
  47.9235816  75.9512694  34.8080063  38.3404682  61.0351944   7.1051997
  37.9219959  60.9308767   7.9597354  39.2773531  61.0639906   7.2992265
   0.5773721  50.1865768  43.9531898   1.3952017  49.8388290  44.3088007
   0.4013170  50.9678793  44.4774055  16.8328106  13.3779585   3.1728411
  17.6376390  13.5385299   3.6654857  16.3060677  12.8236973   3.7486616
  11.3142896  27.6678181  61.3276863  12.2463381  27.8757691  61.2623119
  10.8774757  28.3730364  60.8500910  75.0779353  37.0204306  35.2329707
  75.8084272  37.3641825  34.7187257  74.3314121  37.5644374  34.9819922
  10.3877747  66.0601521  16.6158521  10.5508029  66.7780209  16.0040390
   9.9168158  66.4673758  17.3428988  83.4260310  67.2973967  25.5163336
  82.5412403  66.9461679  25.6164050  83.9980380  66.5354776  25.6086373
  80.7669268  47.4797916  10.6724668  81.3880150  46.7514944  10.6645632
  80.9736602  47.9794502   9.8826361  73.1298683  48.5235262  40.0078440
  73.0373321  48.0722809  40.8469200  74.0588508  48.4406996  39.7925234
  67.2009943  28.2344294  56.0047436  66.3970278  27.8772521  56.3819599
  67.7529178  27.4682736  55.8478403  71.7610107  41.4645863  62.0748901
  72.3507617  42.2042847  62.2207499  72.3044453  40.6914043  62.2268629
  15.9116244  29.9877763  44.6077108  16.1854446  29.0967607  44.8252964
  14.9710107  29.9992537  44.7847652  75.3058718  47.3223972  46.0610628
  74.5291577  46.8011332  46.2641239  76.0418413  46.7529678  46.2854099
   8.1554770  60.6866884  27.1444869   9.0168864  61.0655308  27.3196554
   8.1462032  59.8710299  27.6453376  15.2307951  69.0697622  29.5731378
  15.2398443  68.1880569  29.9456239  16.0182083  69.1085196  29.0302634
  25.9803653  55.9514236  46.6860580  25.3933740  56.1993599  45.9717751
  26.7651796  55.6223726  46.2478542  25.6912971  80.6661987  36.1871433
  25.8916330  81.1277676  35.3728604  26.5441728  80.5233097  36.5975261
  65.7583912   1.8018455   5.7808585  65.9286596   2.3878402   5.0433964
  64.8400070   1.5513296   5.6806321  -0.0496590  34.8035073  53.1084585
  -0.2146703  34.7740269  52.1660519   0.9029438  34.7517276  53.1865549
  80.6440274  51.4557791  26.8952084  81.0567955  51.7216682  26.0735273
  79.7895138  51.1126089  26.6339135   5.3556311  58.8886595  28.8529658
   4.4960904  59.1618919  28.5323930   5.6722987  58.2716846  28.1931996
  72.4719558  41.7742300  45.0360203  72.8359185  40.8982182  45.1639366
  72.1720932  42.0383644  45.9058189  71.7893668   1.9833631   1.1624808
  71.4827891   2.5373668   0.4446215  72.7396985   2.0978136   1.1643166
   5.6268466  29.3301511  48.4016037   5.7461816  30.2755213  48.3106852
   5.6776357  29.1718888  49.3442631   3.8049324  78.3191199  26.2689805
   3.7296112  79.2012365  26.6328883   4.4941672  78.3905036  25.6086087
  72.1880696  30.8458948  38.4939337  72.9607592  30.4791045  38.0642271
  71.4804814  30.2408314  38.2715631   3.4918866  17.2910428  28.4035659
   2.9844683  16.4815545  28.4626126   3.2322764  17.6759338  27.5664902
  75.9160076  16.8442786  21.0589623  76.5500663  16.1873662  20.7714462
  75.0817333  16.3758326  21.0868263  51.4037893  40.4285908  52.0326519
  51.9282983  39.9073505  51.4248466  50.7484649  40.8539152  51.4795828
   7.4991351  50.2548313  68.0528307   7.0874089  49.6940565  67.3953772
   8.4034657  49.9446487  68.0997801  49.9328826  58.2092619  55.6213808
  50.1272867  59.0778637  55.2692795  50.7084249  57.6878166  55.4143429
  84.1472928  73.1763935  61.5963984  83.4983407  72.8035927  62.1931505
  84.7495582  73.6548901  62.1660900  65.2803562  75.7403183  31.5352988
  65.6743668  75.3100729  32.2941637  65.8228992  75.4659843  30.7959604
  13.1944323  41.2630129  48.7912798  13.5742939  40.4111814  48.5760689
  13.1729650  41.7331648  47.9577732  16.3457000  80.5850697  62.0259762
  16.8704796  80.1896286  62.7220058  15.7692361  79.8802423  61.7307806
  81.0127197  74.5198774  66.6789055  80.2077381  74.9563694  66.4001369
  80.7172678  73.6926413  67.0592022  23.8161778  55.9938049  29.7794366
  23.0479717  56.5414238  29.9413013  24.5080400  56.6138315  29.5489478
  49.3675758  10.7626743   6.6733212  50.0575139  10.1964206   6.3275284
  48.7242534  10.8153457   5.9665055  43.2344419  25.8173536  61.2309741
  43.4925014  26.4518331  60.5623393  43.2076019  24.9796651  60.7685965
   1.5552366  63.8632345  57.2500849   2.3023653  63.4759951  57.7062416
   1.5454844  64.7759628  57.5382996  73.1457005  62.3846579  14.4938135
  73.1469832  63.1571674  13.9286065  74.0721093  62.1938801  14.6407878
  84.8433326  74.5615530  23.1186366  84.4243346  75.1504374  22.4910331
  84.6012580  73.6841631  22.8222871  71.2956713  34.6477461  38.5869360
  72.0955406  34.1770768  38.8212681  70.8873449  34.1050816  37.9123878
   9.5507407  45.1273155  52.9221535   9.7806144  44.3971872  53.4968758
   9.8843902  44.8698616  52.0627213  84.7521683  81.2614727  51.7075205
  84.2395459  80.4533195  51.7258358  84.2707349  81.8634033  52.2750902
  11.5706150  15.9587138  42.3974419  11.4297215  15.0262301  42.2335815
  11.6497711  16.0253947  43.3490324  16.4281849  70.9796955   4.5450444
  15.8549801  71.1123540   3.7900109  17.0584253  71.6984965   4.4965119
  11.3527441  76.6892099  31.7377329  11.3168061  76.8476963  30.7944298
  12.1590841  76.1896467  31.8661237  33.9530847   8.3104937   0.7074026
  34.8411785   8.1706946   0.3788041  33.7107057   7.4745219   1.1056817
   7.9257506  25.2261782  55.7329464   7.1344030  24.9114990  55.2959347
   8.6264241  25.0730228  55.0990438  22.4155331  40.0908375  19.6380270
  22.0494199  39.2078662  19.5874989  21.6510892  40.6643486  19.6923041
  19.9960458  66.2121630  47.3498011  20.6502032  66.8984604  47.4813366
  19.8476017  66.2008238  46.4042473  40.5310011  62.8541708  45.5044842
  40.7124758  63.7645340  45.7380056  39.9126244  62.5546551  46.1709166
   4.2990330  39.6569347  43.2337666   3.8328984  40.3351641  42.7449369
   5.2030045  39.9691153  43.2739019  79.2046935  16.9556640  66.8494072
  78.8157970  17.8207277  66.7203452  78.8277179  16.4173387  66.1534711
  10.7267916  80.8074379  46.5015125  11.5654409  81.2051201  46.7354965
  10.1752424  81.5459538  46.2433958  21.2666607  51.6553020  62.5556612
  20.8443975  52.0237064  61.7796421  21.6994381  50.8623552  62.2391653
  47.2864528  28.5215110   0.8420891  47.6243587  27.9177494   0.1806349
  46.5694662  28.0434579   1.2587733  51.6423702  23.8837504  13.8961148
  51.6846609  24.6752858  14.4326925  52.0410442  23.2042575  14.4397867
   8.7730223  48.9587164  41.4102221   9.5489901  48.5524464  41.0241556
   8.1596231  48.2343006  41.5334940  48.5230364  11.1268491   3.9906163
  48.4982701  10.3129978   3.4873576  49.3555738  11.5326757   3.7489123
   4.9417084  60.0032568  60.2885866   5.2859104  60.6848240  59.7113323
   4.0351468  59.8846817  60.0051832  37.7166144   7.1768801  54.2505264
  37.9130791   6.3051455  53.9074278  36.9266091   7.0546096  54.7770023
  80.6662862  28.4897447  40.3214788  80.5945830  28.8432312  41.2081242
  80.0887553  27.7264023  40.3205299  77.5553926  10.8482475   4.4946713
  77.8708990  10.3338880   3.7516207  77.0250543  11.5400142   4.0991635
  10.0039792  57.8835106  70.3763103   9.1619444  58.2248211  70.6775045
  10.3995407  58.6111641  69.8964310  61.0693455  45.0568724  43.6112356
  60.8208323  44.5917892  44.4100952  61.9446373  44.7286272  43.4054375
  26.9699586  79.2712809   3.3326954  27.3645846  79.3310930   2.4626774
  27.6855330  78.9867403   3.9012188  85.2151378  32.8699131   9.7073264
  85.1940163  33.2152481  10.5998034  85.9527405  33.3188123   9.2942042
  57.6099435  61.3263013  22.5131697  57.9894249  60.5296804  22.1421904
  57.7901856  62.0035626  21.8611998  77.7080039   8.3079034  65.8187914
  78.2219742   8.9795500  66.2670708  76.8446092   8.3530968  66.2295675
   5.4371220  52.9281330  49.3787146   5.2437615  53.8635826  49.4401598
   6.3793200  52.8885889  49.2146063  13.9603186  29.8519540  69.1480064
  13.9129376  28.8960576  69.1636992  13.4312797  30.1055956  68.3916855
   5.1922923  74.1285515  37.9075933   5.3812194  73.2325268  38.1863070
   5.6223619  74.6787310  38.5622525  69.9680160  50.6043243  38.1802607
  69.6612034  50.6227922  39.0867686  69.9671505  49.6762371  37.9459715
  76.8487744  56.4961100  46.7426682  76.3400422  57.3062801  46.7102957
  76.2777434  55.8724880  47.1912813  14.3426192  71.3087988  21.5523362
  14.1681695  70.3812027  21.7115879  14.5017290  71.3642645  20.6100845
  82.8245054  21.4118433  30.3394818  83.2845716  22.0982099  29.8562932
  82.0601354  21.2102103  29.7997451  14.0656364  78.5219526  33.0885601
  14.2685318  77.6868820  33.5101295  14.5972323  78.5238028  32.2925496
   9.6746963  26.4687419  29.1378355  10.3968370  26.8173695  28.6151457
   9.5773464  27.0920706  29.8577070  23.7442183  81.4186001  53.5325098
  23.3848882  81.2431526  52.6628351  23.0929184  81.0627651  54.1370153
  42.9833555  72.2218466  60.5563736  43.7967443  71.9576359  60.9862852
  42.3133659  71.6595078  60.9451151  71.2455629  74.5747137  55.1251459
  71.1735032  74.0118361  55.8959961  72.1872912  74.6970797  55.0051165
  27.8565264  72.1394014  40.5152845  28.1107235  72.1821213  41.4371252
  26.9395900  72.4139690  40.5067062  71.4051813   1.5711044  68.1092571
  72.1399910   1.2287114  67.6002853  70.9618861   0.7916091  68.4440833
   6.5589052  56.8878031  67.9782724   6.1136848  56.5520000  67.2002935
   7.3356354  56.3354683  68.0668592  78.3694081  59.1657782  59.5574427
  79.2131792  59.5384645  59.8131514  78.5945807  58.4412193  58.9738798
   2.3612633   6.5829945  48.5604000   2.5520438   7.4622285  48.8871765
   3.0566135   6.4069247  47.9265881  72.9389976  41.7165613  19.0270174
  73.3345137  42.3324966  18.4102309  73.5790442  41.0088253  19.1023946
  16.1112670  24.9412864  35.9400940  16.3357560  24.0255683  35.7748771
  15.2743391  25.0671523  35.4929471  17.5035620  40.5982208  50.7334709
  16.5687668  40.5333900  50.5380535  17.9325473  40.1546526  50.0017262
  49.4989844  30.4477949   9.0112633  49.3809857  30.4568548   9.9611182
  50.4480346  30.4637308   8.8876481  28.4203219  79.8487520  11.0468209
  28.1487727  80.1597404  10.1832366  28.9257026  80.5737782  11.4144731
   2.1769154  62.2726822  11.0851753   2.9688746  62.7569246  10.8516335
   2.2883946  62.0642662  12.0127344  14.6949685  58.8924313  26.4501548
  14.6259522  58.7391043  25.5078387  13.7879515  58.9511585  26.7503262
  43.3519487   0.0816958  49.4998646  43.4772054   0.6354850  50.2704859
  43.8806013  -0.6966455  49.6757698   8.6456293  33.6241317  55.0870657
   9.3430996  34.2685747  55.2073240   8.9373171  33.0906487  54.3477774
  84.3477131  37.0616627  70.4248810  83.6135046  36.4954972  70.6628418
  85.0772144  36.4593196  70.2791357  71.2643538  74.6961737  25.5259943
  71.6660498  74.7897148  24.6622086  70.9377800  75.5714893  25.7343292
  51.1172150  51.3206911  52.9221392  51.8881272  51.6710377  52.4758434
  51.3557337  50.4197979  53.1406355  27.5137186  21.9153731  34.0864110
  26.6305519  21.9544547  33.7193680  27.8849814  21.1075537  33.7316799
  25.2291679  33.7612844  37.3960233  25.8287811  34.4657183  37.6419330
  24.5865512  34.1821814  36.8249512  28.4248257  50.9388971  42.8052044
  28.1369185  50.6364727  43.6665297  28.2370448  50.2059364  42.2189093
  30.9725404   5.1219755  25.7192564  31.3951325   5.3580213  26.5450454
  31.6153407   5.3497547  25.0475740   0.7193009   8.6811297  36.4573789
   0.1607887   8.2242244  35.8284664   1.0933773   7.9839938  36.9961810
  86.1113044  25.7998490  53.1614161  86.8126303  26.4364672  53.2995939
  86.4742796  24.9716902  53.4754801  61.1446927  23.1463599  60.5875826
  61.1401055  22.1914577  60.6536961  60.2834008  23.3659959  60.2323771
  72.9097782  50.9335947  12.2499347  72.5906394  50.3052521  12.8976750
  72.2561513  51.6328764  12.2523010  53.4445542  13.0926679  57.3167305
  52.8825954  13.4902070  56.6516011  52.8468558  12.8597043  58.0271631
  48.5425105   5.3151245   7.4816460  49.3460913   5.3631849   7.9995102
  48.6992355   4.6027059   6.8618674   5.3112811  43.5502863  33.7401605
   5.0292748  43.8207531  34.6139765   4.5141929  43.2260990  33.3208919
  16.6645086  53.2892132  33.0470777  16.0611570  53.9612198  33.3642507
  16.1015582  52.5478601  32.8241038  84.3358485  44.5946312  24.6683931
  84.3030718  44.7113132  23.7188983  83.4634746  44.2765951  24.9008799
  25.3578432   3.2839698  20.4141898  25.0299986   4.1822404  20.4573054
  25.6543883   3.1803722  19.5100016  85.6059836  48.3132267  14.5198834
  84.9778731  48.3789396  13.8005841  85.3297749  47.5381708  15.0089955
  16.7151046  57.7912092  54.4746065  16.9764829  58.6958933  54.6462536
  15.7585788  57.8081465  54.5062590   8.5577643  30.8701253  36.8538356
   8.0996072  31.7088509  36.8003273   7.9588711  30.2437067  36.4474392
  21.6244719  63.2808377   3.9364905  21.1534105  62.6305105   4.4574589
  21.0185937  63.5068919   3.2307715   2.8922364  21.1348343  38.8107204
   2.5702140  21.8079376  38.2111669   2.1801263  21.0128284  39.4386101
  20.1054883  45.3260422  52.2287083  20.1597595  44.3896866  52.4198198
  20.7922268  45.7204247  52.7663755  28.4957064  23.0805438  45.7231522
  28.5103493  22.3313277  46.3187170  28.8583986  22.7426951  44.9042845
  46.1438755   0.6125682   7.2657931  46.1950688   1.3207381   7.9077554
  45.9488443  -0.1676423   7.7848917  71.5298639  68.6810493  56.8708849
  71.3863061  68.7535381  57.8144789  72.4164162  68.3293629  56.7898178
  69.5000122  65.9370947  61.8164492  70.3143452  66.2693930  61.4387321
  69.2086969  65.2630806  61.2023926  55.1558415   0.2217047  27.5384092
  55.1569096  -0.2064664  28.3945012  54.2316572   0.2636283  27.2927284
   9.6790759   0.7673304  54.2954063  10.4114858   0.1517432  54.2659187
   8.9178578   0.2242606  54.5000172   2.3516594  41.3425779  46.0779381
   1.9609535  40.4719067  46.1521530   1.7408371  41.8331099  45.5279303
  41.3538392  43.4178466   3.3384938  41.5616687  43.1321258   4.2281003
  42.1967455  43.6792965   2.9678340   1.3695779  71.5084219  15.7920957
   1.2412807  70.5802202  15.5966151   2.3182960  71.6312265  15.7591438
  83.1517585  60.3493614   0.2668137  83.5942515  60.8721084   0.9355158
  83.1028922  60.9267540  -0.4950672  38.0159593  58.8221169  27.9665947
  37.5072479  59.1087198  28.7250805  37.8946805  57.8729582  27.9416466
  27.4655986  71.8609428  54.1502523  27.5009608  71.1082315  53.5599852
  28.2136226  71.7417431  54.7354698  65.5042384  45.7988644  67.4624157
  65.7579253  45.3022051  66.6844702  64.9100660  45.2161837  67.9353571
   9.2700905  48.8124371  52.3758221   9.3368679  49.3610811  51.5943098
   8.7801081  48.0425978  52.0868587  10.6672347  58.5901880  52.6864004
  10.4386342  58.2928181  53.5670471  10.6692839  57.7925444  52.1572542
  13.2348156  44.2597723  53.7531185  12.3455536  43.9536190  53.9312124
  13.7975681  43.5398769  54.0382433  19.0472364  50.1307774  31.5051365
  18.9449835  50.6784439  32.2834921  19.6993840  50.5882215  30.9743977
  60.3837434  74.3967058  16.2016387  60.2162878  75.3382661  16.2423510
  59.9553863  74.0433218  16.9812960   8.7169758   7.1998446  39.3235040
   9.4855396   7.2844928  39.8877525   8.4273116   6.2959712  39.4473481
  19.3774664  68.0890608  33.7576818  19.7094202  68.7096357  34.4064736
  18.4278154  68.1030321  33.8768435   6.8170244  71.9034576  19.0882850
   5.8687735  71.9288015  19.2163837   6.9279808  71.7572880  18.1488407
  74.2808906   1.8327658  45.2313948  74.5217363   1.4173453  44.4033575
  74.3509523   2.7714675  45.0577021  83.7696253  69.8273516  37.3504305
  83.6476101  68.9580679  37.7321196  83.2422955  70.4066372  37.9005098
  12.2565687  71.3781023  62.7757835  13.1452990  71.4099360  63.1298733
  12.1355820  72.2295189  62.3554420   8.5980874  56.2904644  23.3567166
   9.5173496  56.2380028  23.6183214   8.1104803  56.0605192  24.1476631
  86.2518536  37.2622132  54.4414663  85.8181181  37.0487809  55.2676344
  86.5841109  36.4234114  54.1217041   8.6186972  75.7349115  68.7152708
   8.3208218  75.0699645  68.0945068   8.1034627  76.5121537  68.4992670
  78.3201484  59.8516369  14.2144966  79.1967939  59.6445227  14.5382702
  78.0034433  59.0303087  13.8385260  85.9892154  63.4714603  62.2724628
  86.5866731  62.9544830  61.7320824  85.1254649  63.0965328  62.1004295
   6.9360733  42.9266644  52.4721479   6.8586308  43.4674025  51.6861200
   6.4049852  42.1529007  52.2838354  31.7443228  66.6856623  17.6207888
  31.1198974  67.2964287  17.2292638  32.5918269  67.1224594  17.5360847
  84.6253325  77.7155161  29.2629337  85.0255368  77.8820419  30.1163602
  85.2025503  77.0739985  28.8487959  86.1341929  55.0114489  25.2701163
  86.7242904  55.1228476  24.5247269  86.2124705  54.0858984  25.5013299
   0.5221215  32.0366454  27.1496606   0.2920863  32.9654241  27.1235013
   0.4018248  31.7858052  28.0655432  46.5986152   8.5476274  11.6033167
  45.6548365   8.6955137  11.6636748  46.9806131   9.4249410  11.6284842
  75.7657824  74.3672562  59.0821695  76.3554643  73.8197803  58.5637331
  76.2672709  74.5811319  59.8689318   1.1992856  56.7651892  50.8531284
   0.6301041  56.5495491  51.5918875   0.7767119  57.5162172  50.4364491
  20.1641750  70.7545137  38.4114647  21.0648751  71.0591412  38.3011293
  20.2302074  70.0334406  39.0375042   2.0413665  63.6934090   2.1024916
   2.6898545  63.0993509   2.4803682   2.5607413  64.3681002   1.6651419
  23.9387560  76.2977791  32.1510792  24.0351534  75.4907036  31.6455388
  24.5449662  76.1947489  32.8846526  49.2993450  69.9654055  31.6970587
  49.5200205  70.1489115  30.7838988  50.1443815  69.8244810  32.1240115
  50.8716051   0.7408850  43.3409166  50.1996271   0.6446975  44.0157700
  51.0126011  -0.1479680  43.0149031   6.8405908   6.7040813  12.0579135
   6.7960387   6.7940295  13.0098355   5.9260523   6.6879445  11.7757952
  17.0047200  53.0923843  38.2524109  17.8561878  53.5244179  38.1847143
  16.9002748  52.9140234  39.1870284  31.9490600  50.6767654  33.4741926
  32.4346089  49.9126530  33.7850070  31.0307717  50.4096270  33.5143709
   0.5507549  72.8098488  18.2120240   0.1072734  72.1282053  18.7169147
   0.9566270  72.3417044  17.4824095  20.2795362  80.4348183  65.6571913
  21.1746049  80.2712250  65.9543800  20.1721287  81.3830853  65.7312393
  24.5999558   7.9210418  25.9835815  23.9772848   7.7206080  26.6823936
  25.4299493   8.0679267  26.4371967   0.0784046  37.7236986  62.5799942
   0.2255634  37.2185779  63.3796406   0.1973545  37.0909333  61.8716955
   8.5183251  65.0730991  57.7391720   8.8732415  65.2370453  58.6128950
   7.6533759  64.6955347  57.8989792  28.5520506  35.9066296  58.9574575
  27.8597546  36.5392518  58.7657499  29.3525553  36.3237214  58.6389303
  13.7923610  43.4554100  43.6954355  14.1524863  44.2401409  44.1086483
  13.7155533  43.6860132  42.7696085   7.1895051  49.6350145  24.0536976
   6.4308834  49.1211319  24.3305564   6.9432968  49.9828434  23.1965923
  14.1957247  41.7412472  54.0387869  13.6298692  41.0847616  53.6325026
  14.2834699  41.4526415  54.9472141  77.4643568  58.0426788  39.8548794
  78.0801396  58.5682821  39.3442059  77.6822524  57.1370506  39.6344590
  71.5642367  15.4915476  65.8929396  70.6854926  15.6750751  66.2251425
  71.5709541  14.5462143  65.7428408  27.4251294  50.9806585  26.4996433
  26.8817639  51.7376995  26.7184401  27.7912211  51.1889982  25.6401062
  17.5839806  19.0367484  43.6341286  18.4072018  18.6855936  43.9735842
  17.4949825  18.6422956  42.7665377  -0.3020915  51.6451693  31.7012095
  -0.1385036  50.8607006  31.1776805   0.5413493  51.8409967  32.1092439
  17.7514720  62.2102404  10.6306624  18.5220265  62.2462797  10.0639367
  17.0371246  62.5388765  10.0848269  72.3072902   8.9032882  26.4149928
  72.1414606   8.5419505  25.5442643  71.4738504   9.2964785  26.6738510
  85.9095844  45.1323433   1.3603444  85.0502117  45.4040927   1.0380644
  86.4350208  45.9322853   1.3451380   9.1871560  62.3021221  48.2468557
   8.9749730  61.5473700  47.6977110   9.0471423  61.9938326  49.1421652
  84.4908724  38.3147478  44.8553753  83.8668398  38.2330155  44.1341686
  83.9617295  38.1976557  45.6443787  36.9092129  76.6974093  18.0823416
  36.5197716  77.5314047  17.8196234  36.1651323  76.1616208  18.3571238
  85.8141788  28.7725372  13.5573382  85.5435546  29.6302576  13.2297511
  85.0304492  28.2284565  13.4800715  13.8929772  11.3055825  67.5497484
  14.1112721  10.7770348  68.3173513  13.6929011  10.6651974  66.8670273
  73.8180814  47.4546242  52.2857046  74.2579077  47.4572515  51.4355421
  72.9506598  47.0922184  52.1054983  48.9361507  72.0772524  33.7732172
  49.6375203  71.7314477  34.3252420  48.9616084  71.5342052  32.9853845
  22.6168561  63.8827515  25.0147986  22.9276967  63.6551380  24.1385555
  21.7109060  64.1620111  24.8825192  70.7917677  78.6826658   1.7621596
  70.8067630  78.4757757   0.8277063  69.9163590  78.4244442   2.0506255
  19.1796124  39.5491409  70.1822519  19.8642063  39.3352675  70.8161449
  19.6519768  39.7151256  69.3664360  12.5968122  38.7632799  28.5879612
  12.8541124  39.2186189  29.3896437  11.8841827  39.2926812  28.2300186
  47.9325096   0.2759497  60.5718565  48.4961585   0.3572505  61.3412237
  47.5041525   1.1287253  60.4975796   4.4475952  60.6118727  37.8129721
   4.5505464  59.6617937  37.8676319   4.7328502  60.8330870  36.9264460
  37.3701533  38.4049625  24.0225119  37.2490319  37.7441902  23.3406443
  37.9797049  39.0356750  23.6392588  42.1557470   8.1482334   7.2905345
  42.2215195   8.2672567   8.2380242  41.2149616   8.1469507   7.1140332
   2.2260727  69.2566586  66.9050312   1.7134339  68.4653330  66.7400122
   2.6763323  69.4272089  66.0777426   5.5077654  63.6160994  35.2576804
   5.9027749  64.4690943  35.0771236   4.5703641  63.7964010  35.3284121
  32.5731182  54.4664001  24.9438453  32.7135348  54.8512840  25.8089352
  31.6863084  54.7347021  24.7034049   9.9762404  57.7040100  40.1134777
   9.8989075  57.1557188  39.3326902  10.5423081  58.4270573  39.8432994
  71.0913633  34.7892666  26.2487459  70.6317149  34.1998696  26.8467116
  70.4011713  35.1555490  25.6958389  41.4000360  18.5586303  45.9591866
  41.6886107  18.7300437  45.0627661  40.7856886  17.8291266  45.8776760
  82.2751836  41.3397455  18.3181655  81.9242187  40.7271433  18.9645207
  81.6522266  41.3049793  17.5922537  50.0557615  39.7531528   5.5598397
  49.2215331  39.7344608   6.0288233  50.3005977  38.8321800   5.4698033
  81.0433896  46.4448089   3.7741179  81.8056663  46.9718093   4.0137715
  81.2867268  45.5499477   4.0112824  27.9869723  72.5201702  28.4057903
  28.4213471  73.2022762  28.9179206  28.5732579  72.3670387  27.6648092
  32.3316741  63.2971525  32.8308630  32.4836802  62.4091578  33.1542706
  32.4056983  63.2215261  31.8795300   6.5119785  40.9107637  55.9614134
   5.6912106  41.3843489  56.0966396   6.2616372  39.9870944  55.9814215
  22.3391747  21.9623828  31.6833496  22.9053998  21.1947393  31.6036916
  21.5878510  21.7648816  31.1241198   0.8118344  68.9550304  40.8607626
   0.0569486  68.3671522  40.8886814   0.7215210  69.4215155  40.0298166
  25.4599881  62.9301500  59.8318720  24.6162105  62.5117826  59.6608782
  25.9405208  62.8455734  59.0083647  23.7399220  37.6558685  26.6584229
  24.4155931  37.0027375  26.4764357  23.7767100  38.2531166  25.9113121
  52.9711930  14.9815886  59.9661922  53.5741941  14.3156188  60.2965069
  52.4143855  15.1933043  60.7154417  35.4461932  76.2207651  62.8223228
  35.3489685  75.7967806  63.6749744  36.3325024  76.5820837  62.8341770
  64.4384781  17.1567576  37.3354483  64.9027793  17.0766490  38.1686592
  65.1326338  17.2059958  36.6782141   2.8900754  58.7281179  30.8773422
   3.2326016  57.8361368  30.9345508   3.1763357  59.0400076  30.0188470
  25.1831031  67.5207186  31.5840507  26.1135602  67.2960377  31.5843773
  24.9777746  67.6921320  32.5031209  46.3709164  59.2719936  55.8690739
  46.9967175  58.9616728  55.2146196  46.7784977  60.0558376  56.2374449
  16.7086506  43.2651758  54.2694330  17.0459592  43.3358717  53.3764267
  15.8934462  42.7716923  54.1791725  16.7442612  15.4045432  47.5532770
  16.6965942  16.3343661  47.3310232  17.6702050  15.1822322  47.4561405
  80.8125462   9.8716872  30.8548379  80.9147467   8.9463656  31.0774446
  81.3833704  10.3307383  31.4710140   6.1058038  75.8324432  42.7321815
   5.8103877  76.6314316  42.2956228   6.9836718  76.0436916  43.0499125
  30.3840399  80.6754875  42.2781181  30.0050569  81.5382385  42.4462128
  29.6589589  80.0651360  42.4121428  44.1018152  75.6811571  45.4957819
  43.4051323  76.2822342  45.2320147  44.0991449  75.0010633  44.8222113
   2.2535139  38.5427976  44.9390793   2.6640597  39.0386891  44.2307186
   2.8093314  38.7081599  45.7006264  33.8564132  29.3063967  41.8166161
  34.1092906  28.4959166  41.3745594  33.3990280  29.0161269  42.6057768
  63.6215703  17.5167411  57.5695944  63.8116852  16.6727202  57.1600533
  62.7465669  17.7439349  57.2549772  46.9908094  57.6794720  45.3908920
  47.7864027  58.2112837  45.3698254  46.8646765  57.4011421  44.4837761
  59.1866450  22.6262064  15.1809878  58.9696071  23.5495729  15.0524420
  59.7728472  22.6210422  15.9376711  41.1677889  25.9753745   3.3787617
  40.8410148  25.9772055   2.4790689  40.9100167  25.1212256   3.7254742
  30.8316922  65.3926659  47.7654028  30.0607634  65.9541321  47.8470182
  30.9811163  65.0608206  48.6507177  19.3296361  54.2943525  38.0350852
  20.0775051  54.3579626  38.6291218  19.6366394  54.6915817  37.2201085
   6.4000040  68.5734272  24.0103078   5.8786500  69.2091131  23.5200834
   5.9516764  68.4944248  24.8523259  63.1930153  21.4397280  21.6204476
  63.6583702  21.3186496  20.7927895  62.4696128  20.8140605  21.5822411
  21.0686956   1.2841768   6.3659758  21.4037500   1.0336704   7.2269148
  20.1651750   0.9682102   6.3593716  27.4961138  60.9573126  34.3499422
  27.4414682  61.4620304  33.5384583  27.5316310  61.6184139  35.0412560
  84.6263131  43.0357265  44.0314198  84.9467468  43.8614416  44.3943882
  85.2652089  42.3836327  44.3192101  79.1433988  34.1415429  42.5728035
  78.4902756  34.4432712  43.2041693  79.1889892  34.8420453  41.9220734
  10.6992269  78.2361507  68.3728743  10.4919314  78.4859180  67.4723911
  10.5439317  77.2920609  68.4013605  18.4905469  51.5857792  33.8881183
  18.0234766  51.3433123  34.6876717  18.0227113  52.3541689  33.5611033
  18.0308378  71.8636560  63.4524012  17.7050972  72.2766733  64.2521143
  18.9720738  72.0376110  63.4592676  49.8855821  23.5065406  51.6691303
  49.5763294  23.6122172  50.7694483  49.9273745  24.3983405  52.0143414
  10.5792260  63.6199999  66.7122984  11.2119031  64.3028307  66.4893770
   9.7473311  63.9415932  66.3647890  52.6880169  66.3929892  45.6104994
  52.0535898  65.9640980  45.0362301  52.8559065  67.2379208  45.1932096
  27.9027128  72.6665735  24.7301674  27.9490280  71.7681360  24.4032192
  28.4931850  72.6780605  25.4834580  30.1975846  49.8255491   5.8705449
  30.0180149  49.1301394   6.5033126  31.0437822  50.1823521   6.1404949
  50.0083510   6.7253630   4.1870990  49.1136734   6.4355605   4.0087873
  50.3064744   6.1584513   4.8984051  48.3260481   0.7716697  28.8775396
  47.9570750   0.9484141  28.0121756  48.2519678   1.6041892  29.3440890
  75.8265565  38.1191492  43.0979824  75.9127627  37.3110890  42.5921774
  75.0268827  37.9972267  43.6097288  18.0273676  68.6667299  27.5836492
  17.6153684  67.8139973  27.4446154  18.9409280  68.5355854  27.3298001
  74.3142899  65.0535411   4.5493931  73.5359998  64.7211761   4.1021533
  74.3339427  65.9861583   4.3347306  12.2479081  27.8256726  45.2615976
  11.7370403  27.8108788  44.4522572  12.5213110  28.7381649  45.3556108
  11.9064152  64.3495655  47.7806377  11.0184526  64.6052265  48.0304241
  12.2416914  63.8744545  48.5409594  29.0042210  73.8173819  61.6372967
  29.5889974  74.1650438  60.9639502  28.6476016  73.0159235  61.2542582
   6.1183534  21.2015838   8.2924456   6.1188302  22.1577806   8.3362526
   6.8096123  20.9337396   8.8979621  14.2790902  52.5470591  39.6872497
  15.1128411  52.5466299  40.1574516  14.0039265  51.6302633  39.6867442
  40.6827172  71.0039348  16.1465258  39.8034461  70.6268234  16.1766047
  41.0105510  70.9188957  17.0418067  50.0836484   4.0198272   2.1301220
  49.1764585   3.7773459   1.9445370  50.5172197   3.1901877   2.3299998
  65.9708021  42.1485806  54.3905640  65.1759122  42.3631382  53.9023542
  65.8948825  41.2118196  54.5720816  44.7130616  11.2863178   4.7212405
  45.2758833  12.0584316   4.6637339  45.3152235  10.5453796   4.6531195
   6.3988245  66.3446236  42.5720596   5.7440478  66.8123960  42.0537090
   6.4960581  66.8703985  43.3659983   8.4211357  47.4499725  59.0737682
   8.8525899  46.7897914  59.6162134   8.6436756  47.2047446  58.1756740
  23.5026836  65.7224083  60.0373459  22.7572298  65.9821892  60.5786800
  23.4303808  64.7702360  59.9712133  12.7703345  35.6403160  18.3675158
  12.8593719  35.0790858  19.1377914  13.5283625  36.2234569  18.4071422
  57.6362801  76.7812157  48.5656166  57.2749186  76.1993122  47.8970098
  58.4952831  76.4101315  48.7672138  70.2914333  40.8082914  69.0243101
  70.1864672  41.5301752  69.6440697  70.6690359  41.2151194  68.2444811
   8.3028275  49.5855665  54.8372602   8.8648111  49.2574263  54.1353083
   8.7838256  50.3286171  55.2016020  15.1031041  54.1817522  42.9026127
  14.7218859  53.7103033  43.6433125  14.6919346  55.0456667  42.9313469
  52.8859107  17.4902003  69.2666912  53.5484711  18.1761687  69.3484449
  53.1392471  17.0048754  68.4815073  24.0750217  59.0697289  34.4923639
  24.1151595  59.9265528  34.0675402  23.4703231  58.5621405  33.9511371
  30.4849863  80.1435471  50.7243347  30.4878330  79.9768066  51.6668940
  29.6785498  80.6357384  50.5706072  17.4910215  16.9193023  33.5551000
  18.3762578  17.0267718  33.9030075  17.4626891  16.0131114  33.2481241
  16.8003857  79.5189238  49.1032076  16.9575870  79.3362379  50.0295687
  17.6689529  79.7001505  48.7440681  15.6398392  41.0658550  10.9701109
  16.4466345  41.4632130  11.2978625  15.0496316  41.8056440  10.8265758
  10.5313921  70.9325647  57.7630329   9.9027169  70.9963560  58.4820080
  10.4805589  70.0193501  57.4807405  29.9485707  66.2571526   5.2132654
  29.3843913  65.6099367   4.7901353  30.8287358  66.0490417   4.8998496
  78.1861411  48.4408760  32.5915480  77.9692982  47.7787876  33.2479358
  78.4455882  47.9372644  31.8199944  38.4032154  68.3412886  66.5075731
  38.8357854  68.6915636  65.7288456  37.5291705  68.0943680  66.2054014
  86.2530212  80.0015163  33.9338660  86.7553450  80.7816124  33.6985779
  86.2910809  79.4478846  33.1539488  24.8986340  80.7500839  48.0754900
  25.6789827  80.6346130  47.5333166  25.2019310  81.2607956  48.8261032
  21.2153600  21.0562842   3.3853558  21.6596566  21.4183657   2.6187220
  20.4820905  20.5581801   3.0241880  38.7064318  14.9655574  37.4638891
  39.5305959  14.7054713  37.8753996  38.7541530  15.9202903  37.4146080
  20.2232909  61.3197279  43.9295387  20.7044673  61.5536690  43.1358337
  19.3198907  61.5780401  43.7468481  55.4380975  35.4136962  14.0955157
  54.5474188  35.1561756  14.3334384  55.4885824  36.3415594  14.3251986
  40.6217718  55.7649469   6.5507418  40.2389050  56.1663437   5.7706642
  41.4673376  55.4269791   6.2557209  36.2531565   7.1718447  44.5925426
  35.7081030   7.2636836  45.3740215  36.2763152   6.2295192  44.4260693
  40.0582647  69.3109894   8.1702763  40.2409697  69.7189999   9.0166682
  40.6639910  69.7365952   7.5634897  65.8532421   3.4694331  14.5180953
  66.0006825   3.2463401  15.4371834  66.4770452   4.1731112  14.3393874
  80.4090951  29.6013331  22.4437594  80.0211988  29.6280456  21.5690851
  79.7721742  29.1220236  22.9736900  44.8086357  61.4492226  32.4518943
  44.9453974  61.2456703  31.5266418  45.0534964  60.6466150  32.9124403
  -0.1822382   1.8188613  48.0673599   0.2061170   2.5939982  48.4730434
   0.4826683   1.5127795  47.4505568   0.9083829  12.7404947  10.7913298
   1.3290749  13.3623666  10.1975913   0.4544721  12.1271295  10.2134223
  13.1378078  72.3950243  57.3911524  12.5494814  71.6406822  57.3584080
  12.6595473  73.0498743  57.8997517   8.5627669  74.9409628  56.8962240
   7.7067167  75.3606129  56.9816875   8.3694196  74.0717602  56.5450430
  85.9086198  75.0797415  31.4943123  85.0295070  74.8643303  31.8057442
  86.3999648  75.2877522  32.2890091  61.3495890   8.6014216  29.2540288
  60.4480998   8.7207263  29.5528865  61.7271511   7.9781096  29.8746443
  65.7287423   0.4653113  45.1078558  66.2222377   1.2011187  44.7455168
  66.3915245  -0.0859029  45.5239248  36.1715817  70.9582233  62.6712084
  36.1484051  70.6861115  61.7537928  35.2682209  71.2035656  62.8711557
  54.0606419  23.8015597  32.5403380  53.6016933  23.0071109  32.8131938
  54.7605101  23.9071505  33.1847501  17.0975971  70.6293249  45.4994440
  16.3222468  70.2761555  45.0631666  16.8069112  70.8131742  46.3927126
  66.8813165  24.6484155  11.4140505  66.7128660  25.4919786  11.8338770
  67.6782491  24.3262119  11.8351359  34.9751417  12.8077739  65.8605528
  35.8020411  12.5863688  66.2888622  34.8403726  12.1066039  65.2230310
  38.2980500  20.4219668  41.0561609  37.4294488  20.2720397  40.6829500
  38.1259952  20.7673781  41.9321299  41.0974216  74.5898485  38.0085850
  41.3262081  73.6636686  38.0865288  41.4140224  74.8426056  37.1413398
  21.9674492  68.7188292  55.6070852  22.1009898  69.5940447  55.9709454
  21.1011744  68.7575722  55.2017450  43.9296440   4.6073287  54.0206242
  44.2932788   4.3710177  53.1673002  44.0071718   3.8092177  54.5433474
  26.0399866  68.2799625  46.4730930  25.2305818  68.7592793  46.2960386
  25.8494043  67.3809385  46.2053871   0.7340711  10.9583800  56.5374613
   0.0501436  10.2957671  56.6344833   0.8717435  11.2920802  57.4239826
  17.3648477  62.0231342  33.7362981  16.9272244  61.9166946  34.5809197
  17.1267533  61.2383986  33.2426023   6.5954677  12.1451228  52.3256636
   6.5740029  12.4910491  53.2179117   7.4248425  11.6701739  52.2728109
  33.8672541   0.4177039  49.7314787  33.3073456   1.0348933  49.2605162
  34.7230820   0.5018752  49.3111134  56.5712760  53.2358885  42.5680685
  55.8822606  53.3654451  43.2197618  56.5299771  52.3029184  42.3580885
  26.0175395  72.4960518  46.5744925  26.6664362  72.1525431  47.1886301
  25.2391219  72.6500845  47.1098137  14.8935676  38.9719915  48.6695337
  15.2924728  38.2656980  48.1613445  15.2915680  38.8973188  49.5368624
  47.0956278  76.7054987  41.7112875  47.2800064  77.4618673  41.1543798
  46.1617088  76.7756510  41.9090319  51.2713710  15.4883712  62.0392466
  50.3572957  15.7505267  61.9298124  51.7746131  16.2598365  61.7788219
  23.1356511  30.4327459   0.9809298  22.2508559  30.1160020   1.1627240
  23.6242566  29.6484108   0.7312960  76.4377451  75.6300259  32.9918361
  75.9489012  74.9478579  33.4521770  75.7781649  76.2854481  32.7646542
  62.8030912  29.2102378  51.0919380  62.4830333  29.0935939  51.9864702
  62.6444785  30.1343577  50.8993959  82.0056058  40.6364822  22.4544334
  81.5696470  40.6951714  21.6042995  82.3516394  39.7445464  22.4850845
  41.8728582  11.4288085  53.2351923  42.2413365  11.6896479  54.0792418
  41.0804621  10.9412425  53.4601784  47.2723345   3.0960505  37.5092578
  46.9086031   2.2406237  37.7377009  46.5121118   3.6761801  37.4676013
  16.4960849  59.4692898  36.4398098  16.2172091  58.6415720  36.8314004
  16.4490318  59.3156958  35.4961848  44.3247195  34.8887510  10.6925482
  43.9527114  35.5055399  10.0621409  44.1013606  35.2563352  11.5476698
  77.7186905  64.8673820  58.3911800  77.8223286  65.1481295  59.3003941
  76.7990826  65.0410700  58.1902170  84.8469928  71.1175632  52.4796343
  84.1760157  70.5980062  52.0368195  84.3712868  71.8658209  52.8402519
  74.5546745  77.0591211  34.8991346  74.1316782  76.3699961  34.3868709
  74.2039321  76.9500303  35.7830524  77.5902085  73.8390684  31.2211299
  77.0924245  74.1530800  30.4662538  77.2787671  74.3727160  31.9521952
  57.3271910   7.5111907  43.4043169  56.4531652   7.8612273  43.2317495
  57.3682109   6.7050402  42.8898668  11.3317696  15.7471793   5.3186697
  11.2652687  14.8006480   5.4447585  11.6896180  16.0741942   6.1440384
  24.9744010  68.1768513  37.0265007  24.9340868  68.4538889  36.1111546
  24.2128277  67.6078749  37.1382999  55.2639119   4.5372432  26.7081547
  55.5073444   3.6306517  26.5208936  54.7617380   4.4872802  27.5215173
  50.6752539  61.1738920  24.6917343  49.8877716  61.6063070  24.3614030
  51.1137009  60.8432531  23.9077210  65.0807158  37.1678298  53.7182379
  65.1403991  36.5054267  54.4066334  64.4688217  36.7976325  53.0820274
  72.3226498  78.9475584  50.6807661  72.9038571  78.2009745  50.5357075
  71.5808092  78.7906265  50.0965786  32.0652080  56.2416601  40.2270842
  31.4010978  56.9083071  40.0516653  31.5648556  55.4659843  40.4804802
  80.2977918  43.5832310   3.7382597  81.0093520  43.8303900   3.1476462
  79.7618536  42.9769087   3.2270098   6.1179084  58.6723137  18.9261997
   5.2953207  58.9726830  18.5397267   5.8514315  58.1700373  19.6962261
  45.0654860  43.5100860  12.2124953  45.3556820  42.8729553  11.5597434
  45.8600767  43.9876194  12.4508757  14.6728194  54.2357254  21.8587756
  15.5954254  54.3200731  22.0994282  14.5217371  54.9468327  21.2360930
  58.4652106  14.1607802  25.6622171  58.6635772  13.6155741  24.9008751
  59.2079369  14.0287345  26.2514138  12.9055440  59.8588800  44.7779322
  12.5543952  59.6329641  43.9166021  13.7901127  59.4931364  44.7794104
  43.7569336  39.9566691   6.5580356  42.9860489  39.3948596   6.6377109
  44.1891925  39.6581404   5.7578701   9.5572120  56.7422962  51.1915922
   9.6940565  57.2698498  50.4047012   9.4518262  55.8485699  50.8654356
  74.2937861  56.6488266  59.7846365  75.1416813  56.8268585  59.3776846
  73.8728009  56.0218000  59.1965532  76.2726347  19.2377036   8.4319335
  75.6945697  19.1595881   7.6730061  77.1143190  19.5082705   8.0650675
  27.7068348   6.2065261  20.8243799  27.8906412   7.0629065  21.2104583
  26.9324050   5.8941119  21.2922359  49.0453354   3.2723658  29.9169827
  49.5447985   3.4062140  29.1114688  48.6856834   4.1354220  30.1219916
  49.3136787  80.6898594  23.9511538  49.8650980  80.7539082  23.1713676
  49.7191143  81.2859917  24.5808196  68.4633239   5.9891147   7.2984500
  67.7368422   6.4406843   7.7280325  68.2782098   5.0591440   7.4292845
  61.9042460  26.1276381  56.5879059  61.1985270  25.5537551  56.2898111
  62.0561282  26.7220156  55.8531475  11.4611435  53.9871359  61.0412836
  12.0986986  54.4318867  60.4827595  11.9770324  53.3458376  61.5299845
  82.6224650  69.4832087  57.5791311  82.2612659  69.5632887  58.4619427
  82.8964843  70.3715134  57.3509693  83.8326494  55.2196836  56.2061262
  83.4058375  55.3267622  57.0561838  84.7437222  55.4680777  56.3625813
   8.5197580  56.2993765  57.2347212   7.9788190  57.0761490  57.3770094
   8.4709537  55.8188581  58.0611277  18.4682453  56.2784529  69.6732044
  18.2739997  56.9514704  70.3255463  17.7042794  56.2763023  69.0965033
  47.2439480  79.6775770  61.1934471  47.5799894  79.9891615  62.0338202
  47.9998350  79.7082758  60.6069946  24.0708185  13.0864280  60.1806116
  23.1925521  12.9223387  59.8371649  23.9236970  13.4136050  61.0680485
  77.8498135  72.9223967   6.5952855  78.7353395  72.8799582   6.2343502
  77.8197686  72.2154140   7.2398841  40.9990128  15.8016176   2.7278323
  41.6407820  15.1992960   3.1040997  41.2294551  16.6558952   3.0929846
  38.3228135  66.0844755  28.1173801  37.6747394  65.3819656  28.1694698
  37.8544354  66.8648815  28.4137249   6.4789480  48.8746786  59.9635553
   6.3752174  49.5313692  59.2749119   7.1554565  48.2844019  59.6316767
  47.0884581  53.3305854  -0.0477224  47.8903343  52.8352089  -0.2145629
  47.2964068  53.8740177   0.7123227  58.3432609   7.0829506   4.5562119
  57.8468777   6.3092632   4.2892928  58.5898664   7.5049800   3.7332244
  78.7088768   2.9262870  40.2638292  79.1278354   3.7770503  40.1338148
  78.6373607   2.8372615  41.2141943  21.1496782  68.1022406  52.0209217
  20.5423260  68.5860348  51.4611959  21.7587423  68.7663889  52.3436832
  13.4412122  35.6540108  62.1984863  12.7845550  35.7200313  62.8917933
  14.2786169  35.6427956  62.6620150  84.0130512  12.4202769  58.5125017
  83.7011568  11.5160887  58.5500336  84.4568149  12.4856513  57.6669073
   6.9874654  31.9457407  13.7660975   6.5789542  32.8098173  13.8182444
   7.5862417  32.0084114  13.0219359  59.0722219   2.8003924   1.3452941
  59.3610160   1.8992751   1.4895654  59.1230432   3.2094138   2.2092104
  36.2645388  76.6036844  45.6007433  36.8153524  76.0431671  45.0542450
  36.8737388  77.2296572  45.9922314  81.4086755  16.1164112  19.4190116
  81.5721448  16.6930313  18.6726756  81.4983376  16.6841287  20.1844401
  77.7301987  23.9326925   0.4869313  78.0906542  23.5616989   1.2923283
  78.4810813  23.9996976  -0.1029163  49.2536465  15.3886454  53.8206959
  48.6117128  14.7470134  53.5166311  48.7728206  15.9305232  54.4463253
  37.4174646  10.0182479  57.6922941  37.8316138  10.1381152  58.5468960
  38.1094060   9.6548503  57.1396780  69.6210013  40.4342461   6.5461785
  69.7682117  40.5458355   5.6069720  70.3013168  39.8208976   6.8240386
  78.2266371  73.1657887  57.6024437  78.6576198  72.5989485  58.2421112
  78.8519214  73.2311344  56.8806505  28.0502462  71.7546034  50.3673315
  28.9518404  71.5051842  50.5701828  27.9368424  71.5156603  49.4473982
  27.8565049  71.1576176  20.6548333  28.7681890  71.4074659  20.8052969
  27.4791479  71.0888338  21.5318179  54.5435764  43.2549400  10.4369731
  53.6720558  43.5837860  10.2166361  54.3945633  42.3530311  10.7208247
  48.3437729  76.3984489  52.2489548  48.5656166  77.3207378  52.1208668
  49.1642761  75.9910583  52.5265121  23.9142799  51.8524885  36.6721916
  24.1781068  51.1947489  36.0287595  24.1278362  51.4590502  37.5182581
  40.8434967   1.0900061  20.0630975  39.9357406   1.0019343  19.7724879
  41.3338963   0.4889338  19.5023441  34.1277575  56.2406874  38.1146955
  34.9217463  56.7230892  38.3451295  33.6694074  56.1224270  38.9466572
   1.3921452  74.0772486  52.3921156   1.2923007  73.9258003  51.4522600
   2.3388022  74.0936089  52.5328445  53.1663275  72.8910542  41.2418127
  52.4555397  72.9323530  41.8815851  53.4803152  73.7927532  41.1741018
  40.6450907  13.4574740  66.8421030  41.4589147  12.9745715  66.6981316
  40.0743810  12.8357737  67.2937727  68.9958088   4.3519347  34.8181534
  69.5506565   4.9023383  34.2654896  69.5367805   4.1589301  35.5838728
  73.8358871   2.9998820  28.4059072  74.7615377   3.0431311  28.6457586
  73.3714143   2.9983275  29.2428613  43.7477235  15.2291625  27.3655581
  44.5821003  15.3533118  27.8179216  43.2767455  16.0512584  27.5018287
  71.6805371  19.0181703  12.8679938  71.7769452  18.3185882  13.5141463
  72.5479444  19.4199295  12.8187460  10.0807003  16.4839118  52.1325827
  10.9132961  16.0554259  51.9340372   9.6123211  15.8546584  52.6811314
  85.6706344  69.4053936   6.5788251  84.9534414  69.9610424   6.2736696
  85.3216812  68.9693069   7.3561871  33.5231018  74.1451120   4.2642593
  34.1552758  73.6001968   3.7955874  33.2396650  73.6035013   5.0008392
  36.5333462  59.9881506  29.9228811  35.9265947  59.3096733  30.2191091
  36.6479683  60.5561829  30.6847405  51.6043566  50.4956198  46.3972950
  51.2690995  51.3714790  46.2057066  52.5553106  50.5837870  46.3329172
  22.5592899  56.8721437  58.4113741  22.1497917  56.0509825  58.6838388
  22.2163224  57.0305443  57.5318766  16.4402282  75.9575701  38.9627361
  17.2422540  76.3992167  38.6835742  16.3918817  76.1215687  39.9045420
  10.9196472  63.3779049  57.3114109  10.1846218  63.9898157  57.2722387
  10.9341097  63.0788136  58.2205677  32.8456531   7.1579952  14.8563284
  33.5305677   6.6071863  15.2354521  33.3188281   7.8888673  14.4586272
  21.4934651   8.4285968  39.1337872  21.6411714   7.6479666  38.5999060
  22.2068975   8.4208720  39.7718978  50.7594673  13.6813491  26.0084772
  50.9246437  13.0783313  26.7332625  51.1541502  13.2551997  25.2476549
  45.1969719  57.3549414  61.0890150  44.9167013  56.4961195  61.4054155
  46.0043955  57.5357008  61.5702915  37.4954704   7.3612921  59.8374987
  36.8880216   6.9496672  59.2228365  36.9390033   7.9010241  60.3989792
  27.1864581  67.9540253  56.2836599  27.9546380  67.9234648  55.7133961
  26.5709352  67.3358583  55.8896589  80.8298067  63.6633968  24.9042106
  81.4390354  63.7715673  24.1738868  80.0295739  63.3270979  24.5007730
  73.5432215  47.8105373   6.8721432  72.9140290  47.3327369   7.4125714
  74.3587144  47.3173256   6.9613165  31.9789195  74.3509817  53.9782906
  32.3754644  74.0735483  54.8041344  31.3242459  73.6787605  53.7892103
  82.5949640  78.5133743  22.9709029  81.8397139  77.9265785  22.9321957
  82.2547863  79.3608332  22.6839757  57.9596567  77.6015568  44.5746040
  58.0687046  78.0519152  45.4121733  57.2526169  78.0763245  44.1376543
  17.7955756  38.0416889   6.4663167  17.4527202  37.2673864   6.0200686
  18.1703267  38.5755796   5.7657761  28.3492327  53.7314034  39.9481797
  28.2535815  54.6831131  39.9847007  29.2660093  53.5739851  40.1739502
  19.1677487  66.8358707  60.3391123  19.2471671  65.8863640  60.4305887
  20.0136852  67.1142721  59.9882364  23.7574625  81.6880798  25.9214377
  23.2931447  81.0570145  25.3715301  23.1873226  81.8092346  26.6807103
  54.8802845   5.0899070  20.2180386  54.5178763   4.4723933  19.5827663
  55.8283655   5.0192015  20.1067948  19.3242979  76.2939596  44.6861172
  18.3798790  76.4479446  44.7104645  19.4529974  75.5100203  45.2200699
  60.8613984  32.1697562  48.0378914  61.4243070  32.3086970  48.7995052
  60.0229184  32.5594657  48.2854939  33.9040283  15.4934352  43.9063120
  32.9775817  15.2645915  43.9808893  33.9223132  16.2171881  43.2801533
  59.3068639   7.2949546  35.2128458  59.1297595   8.1830066  34.9026394
  60.2594773   7.2565978  35.2982283  43.1678486  71.9178057  57.7884197
  43.7726259  71.1822319  57.6914215  43.0735016  72.0271397  58.7346601
  36.1906528  75.9731865  54.3914652  36.5581656  76.5446568  55.0656939
  36.8318200  75.9977055  53.6811590  18.8718212  58.8651180  19.1925490
  18.6389697  58.4625435  18.3559215  18.4702516  58.2982969  19.8510945
  10.0062761  80.3640956   4.0107770   9.8171887  79.4838066   3.6858649
   9.1661463  80.6834716   4.3400330  75.3987114   2.1493094  33.5952258
  75.2060787   2.9934542  33.1871319  74.7678367   1.5447848  33.2043552
   4.4663081  34.9748153   4.3699069   5.3242812  34.6741647   4.0703721
   4.5226226  34.9465007   5.3250260  66.8587772  25.6229537  47.0654488
  67.3361413  25.4296248  46.2586117  66.8108002  26.5785735  47.0922327
  28.6563897  77.0969820  39.2355371  27.7401781  77.0909357  39.5125723
  28.9171696  78.0163336  39.2905140  19.6878600  51.3798952  36.9233346
  19.5350027  52.2065830  37.3809910  19.3942165  50.7077885  37.5383782
  71.5435783  12.4137538  59.2726755  71.1858837  12.0483439  58.4635019
  71.7112199  11.6511100  59.8262978  24.8256040  78.7196922  34.5158148
  24.3803954  78.0791235  35.0705171  25.0434089  79.4392633  35.1082778
  64.3252699   0.7359259  29.6094227  64.2957584   1.1098140  30.4900837
  63.4064690   0.6450980  29.3568659  86.0087196   3.8974898  70.1957655
  86.8439428   4.2660086  69.9079609  85.8791296   3.1319278  69.6359968
  16.2434993  37.7067060   3.4760565  17.1746812  37.5537605   3.3156104
  16.2107978  38.5664053   3.8956685  52.6593924  70.1256466  20.2318335
  52.0511007  70.6982565  20.6990910  52.2066832  69.2836475  20.1836634
  29.3470955  69.1104841  35.5841732  28.5694242  69.3968678  35.1051712
  29.8151350  68.5483122  34.9668121  12.1236352  18.0153888  47.8880358
  11.8808977  17.1190398  47.6559591  12.7379052  17.9164832  48.6154413
  28.1857920  62.2945738  64.7790146  27.4568582  61.9475126  64.2647839
  27.7763987  62.6388979  65.5727816  58.9261810   9.4212096  31.1811590
  58.2374326   9.6030181  31.8205380  58.4806935   9.4502776  30.3344440
  34.4034648  81.4191341  15.8575869  34.1008639  82.1119499  16.4446664
  34.9153709  80.8364582  16.4185488  79.3237678  29.6231501  20.0096536
  80.0013963  29.2582648  19.4405282  78.7971584  30.1751654  19.4315588
  16.3429111  22.8066008  22.2285819  17.0341962  22.7125495  22.8839540
  16.4706796  23.6848586  21.8700314  69.6464864  -0.1765210  43.7997723
  69.6386472  -0.4873521  44.7050667  69.4525997   0.7584994  43.8658857
   0.8750021  77.3573875  46.4526892   0.0935936  77.9099894  46.4689159
   1.5989068  77.9612780  46.6185379  66.2737552  12.6610511  30.3491879
  66.5911166  11.8126242  30.0398517  66.0145132  13.1246321  29.5528722
  72.0448063  26.2717175  24.5765042  72.9532729  25.9705639  24.5614028
  72.0108770  26.9637561  23.9160776   0.9668661  33.3163428  11.4875937
   0.2104142  33.5855865  12.0086706   1.2963036  32.5340867  11.9300616
  84.7639963  37.3642850  59.4639826  84.5531781  38.2975459  59.4924450
  85.6212063  37.3252034  59.0398407  57.9446576  24.6891761  30.4490423
  58.4843705  25.4555392  30.6430268  58.3981012  24.2533302  29.7274756
  81.8771450  18.6017919  24.5625782  81.0060476  18.9943504  24.5049667
  81.8229277  18.0072749  25.3108048  51.2272285  17.8516388   9.0016520
  51.1703036  18.5757971   9.6250176  51.2615154  18.2758069   8.1442505
  74.3813894  18.6075497  33.6671138  74.7867487  19.3441498  33.2095838
  73.7084697  19.0083861  34.2173338   5.9658247  42.0728540  23.4004951
   5.6161958  42.0121956  24.2894888   5.6047237  41.3102293  22.9485559
  16.4548576  15.0483119  31.2792611  16.6534197  15.8509994  30.7970810
  17.2984064  14.7667110  31.6333199  69.2486427  32.3320246  11.6151822
  70.1385472  32.0291090  11.7955792  68.9868889  32.7941418  12.4115264
  65.6824416  64.1246755   3.3249584  65.2740038  63.8841958   4.1565710
  64.9803317  64.0398593   2.6799157  49.8232234  68.4261603  58.2678080
  50.4654831  67.9188401  58.7641525  50.3487367  68.9630122  57.6746321
  34.9072242  26.7091393  40.7914019  35.6145549  27.0572495  40.2485085
  34.6621275  25.8868647  40.3671122  22.0459056  42.9120874  12.5338972
  22.5668764  42.1787548  12.2067142  22.0281076  43.5358906  11.8081009
  58.9595488  78.5388340   4.1101831  58.1039435  78.2847718   4.4560498
  59.0788247  79.4415056   4.4054613  50.3817652  41.5186834  55.8572388
  50.5133818  40.5961990  56.0761690  49.8871992  41.5021896  55.0378704
   8.3415341  19.7710943  15.5266893   8.3999473  20.3838778  14.7936714
   7.9248202  20.2738667  16.2265491  50.0001206  -0.1589232   9.1474433
  49.4575336   0.2099056   9.8444361  49.9175211   0.4634304   8.4248871
  70.4610799  72.5305176  61.0453510  69.9436007  71.7253017  61.0362816
  69.8519848  73.2099390  60.7561779  23.5893846  11.1326432  19.8193455
  22.7389765  11.0063028  20.2401495  24.2055845  11.2213123  20.5464387
  17.7476180  33.9225984  53.3591175  18.0004334  33.7368774  52.4547815
  17.3794162  34.8056126  53.3283567  65.3415845   7.0200914  29.8347998
  65.0462959   6.4751691  29.1053510  64.5476292   7.4553007  30.1453781
  78.6300866  28.7110043  33.8202691  78.3017669  29.4465852  34.3373370
  79.4820516  28.5080719  34.2065406  74.6382910   7.2883867  69.0041996
  73.8468474   6.8991540  69.3761500  74.9107665   6.6729615  68.3235819
  62.3912500   2.0123422   3.0998865  62.2559665   1.6324961   3.9680150
  61.8247245   2.7837431   3.0850396  75.0378178  42.6409149  40.1737261
  75.4779051  43.4846735  40.2768373  74.5285056  42.5366306  40.9774399
   0.8113002  23.7950635  16.9449222   1.0563931  24.7202706  16.9324410
   1.4128216  23.3795881  16.3270366  61.5715097  26.1267233  20.8138275
  60.7188318  26.4089251  21.1447859  61.4769409  26.1454391  19.8614955
  15.7490289  37.8953195   0.6248961  15.9109831  37.8834343   1.5682207
  14.7990000  37.8109670   0.5439038  32.6002032  81.2079220  19.9827957
  32.0392043  80.6303778  19.4651544  32.4885494  80.9055290  20.8840847
  36.5292555  64.9767215  66.6441774  35.5994636  65.0577624  66.4316940
  36.5428287  64.7236187  67.5672102  27.8212935  74.7920627  32.4688268
  28.5389215  75.3793044  32.7062941  27.1603662  74.9354107  33.1462169
   6.8874907  42.4402380   9.1071630   6.7777199  41.5425301   9.4206876
   7.8352666  42.5564146   9.0404028  48.0674337  40.6768465  63.1738949
  48.3896802  41.1775208  62.4244213  48.1329797  41.2822676  63.9124107
  74.0173469  30.3443360  61.9846106  74.7155057  30.3369617  62.6394033
  74.4748352  30.4239488  61.1475897  49.0860389  21.8563652  61.3338900
  49.3515967  22.7751613  61.2948036  49.0038703  21.6703820  62.2692442
  18.2728243  35.6373715  39.3663621  19.0017438  35.7367182  38.7539577
  17.7892673  36.4606738  39.2987275  12.1858728  17.4815941   3.3107319
  11.9157994  16.8582404   3.9850631  12.4417007  16.9348884   2.5678340
  25.2184701  32.8226614  25.4085898  24.4122839  33.2579279  25.1313925
  25.6130695  33.4271312  26.0371923  12.7084374  17.9634535  34.1946578
  13.5284209  18.3628309  33.9042139  12.0291877  18.5708666  33.9015675
   8.9998412   8.1198174  20.2331328   8.1407559   8.3470982  19.8773980
   8.9694589   8.4187341  21.1419559  29.1726858  75.9148980  12.9231131
  29.4048912  76.8291841  12.7606535  28.5886246  75.9471119  13.6807847
  56.4523271  14.4606994  51.2944084  57.1336209  15.0407241  51.6344755
  56.9175458  13.6589311  51.0557251  83.2107134  56.9471169  38.2199883
  83.9947836  56.4146996  38.3541441  83.5269804  57.7297544  37.7686739
   3.2077125  24.8078537  10.3081369   3.9419222  24.6654367  10.9055352
   3.4581324  25.5798459   9.8006427  63.3756564   7.1620977  10.3732252
  63.7447451   7.9861933  10.6908298  64.1166804   6.7055327   9.9748987
  28.4042725  63.9629175  11.9274706  27.5092716  64.2771007  12.0559020
  28.9475895  64.5811941  12.4161143  26.7130067   4.3494647  15.4151988
  26.5101835   4.7922366  14.5911574  27.5468818   4.7291510  15.6921840
  20.8110023  19.9072194  11.7913616  20.6979489  20.0462008  10.8510780
  19.9477887  19.6295297  12.0979249  14.1834831  29.5173240  25.0015402
  13.8992667  30.2826309  24.5017815  13.4047949  28.9631891  25.0545502
  15.9282973  56.6963904  67.9911851  14.9830677  56.7557805  67.8524586
  16.0540750  55.8527952  68.4256481  68.6433182   9.0515071   3.8910291
  68.1886087   9.8899925   3.9711079  69.0444730   9.0785909   3.0223674
  37.5538945  44.4740582  21.7941213  37.9189539  44.1554546  22.6196241
  37.0745420  45.2669764  22.0344090  79.4405679  27.6386452  61.8130350
  80.3710268  27.5969553  61.5922642  79.0199677  27.9644418  61.0173035
  34.5209956  73.3359575  11.1244321  34.6752739  74.1320801  11.6329753
  35.3814626  72.9213667  11.0616136  74.6483157  44.9841928  43.1888056
  74.8990451  44.0807104  42.9962206  75.2727817  45.2690220  43.8560009
  10.0582981  12.9140580  58.2762861  10.7124877  12.3776031  57.8285313
  10.4235959  13.0583036  59.1492033  85.3290190   4.7284949  12.6943064
  85.4144716   3.7845606  12.5604510  84.3916706   4.8673123  12.8297305
  78.7894563   7.1447539  35.1511264  78.3238862   7.9521275  35.3693557
  78.3356927   6.8079609  34.3785334  22.5105856   1.8642085  11.3649523
  21.9617728   2.6157420  11.5890968  22.6836584   1.4355510  12.2031236
  72.4643992  28.2489252  22.9707670  72.5222991  28.4626055  22.0395184
  72.6105521  29.0828347  23.4173846   4.0935373  11.9963729  12.4455595
   3.1713521  12.0443738  12.6975548   4.5137236  12.7005529  12.9393256
  21.3809109  47.8843927  25.9385681  20.7156491  47.9386520  25.2524829
  20.8835769  47.9008245  26.7562628  63.9754413  26.5603375  33.9817905
  64.0448211  26.1044407  33.1429958  64.8513911  26.9145346  34.1350532
  51.8134409  74.3886800  45.6824398  51.5432263  73.7194354  46.3111877
  51.6338796  75.2186907  46.1241055  22.1549940  27.8176641  41.5604782
  22.6909184  28.5813332  41.7745495  21.3104105  28.1837440  41.2979937
  46.8965044  51.0906952  69.4773462  47.2577026  51.5266149  68.7055039
  47.3041489  50.2246373  69.4760110   0.6319311  61.2121439  51.3468695
   0.4318634  61.6420221  52.1783781   1.4654005  61.5953732  51.0735655
  44.6661329   1.3256934  47.1984863  43.7389421   1.1650536  47.0231581
  44.8892069   0.7066099  47.8936195  62.6911686  24.2233872  38.6012864
  62.7581905  23.9598322  37.6835299  63.4198616  23.7769723  39.0325069
   2.6729572  43.0018187  19.2577553   2.8012374  42.6462936  18.3783376
   1.7716309  43.3240652  19.2566991  21.9988179  73.0573368  31.1964345
  21.3893104  73.7487268  31.4547133  22.8443098  73.4995651  31.1202312
   6.4945203  18.9379215  53.4372044   6.5411037  18.0297232  53.7359285
   6.4162391  18.8732743  52.4854040  78.9713280  40.9146214  41.5181303
  79.4710026  40.2679348  42.0164776  78.7052087  40.4514360  40.7238579
   3.0916163  43.4027863   7.6788747   3.6551875  44.1592884   7.5166434
   2.4332778  43.4413958   6.9850940  23.6113977  73.6678839   6.1016721
  23.3781004  72.7739191   6.3519418  24.4292641  73.8413811   6.5677464
  48.6519605   8.0850480  65.5288880  47.7137560   8.1551192  65.7052230
  49.0557951   8.7130855  66.1278229  22.4858212  46.8555021  64.7524691
  22.0220447  46.2592602  64.1645527  23.4044194  46.7802382  64.4941187
  34.3740861  39.2396274   6.7252154  35.1921336  39.5034711   6.3040061
  34.0418820  38.5277038   6.1783738  56.2544910  63.8939239   3.2778258
  57.0503275  63.7503673   3.7899489  56.3266150  63.2808949   2.5462336
   1.5872432  28.0022955  38.4868026   1.8482652  27.8381681  37.5806212
   0.6610218  28.2371807  38.4304619  34.0660000  43.7681484   5.9763634
  34.6562433  44.3506050   6.4544696  33.2737446  43.7371778   6.5126491
  59.7594546  13.1941484  68.3279163  59.0456623  13.8292621  68.2699098
  60.5550921  13.7261317  68.3143095  56.7107461  55.9267998  22.1005654
  56.1204503  55.4957676  22.7186227  57.2070525  55.2106857  21.7042232
  16.3257968  46.5177441  24.6624589  15.8948350  47.1907043  25.1893616
  15.6223023  46.1396599  24.1348433  21.5334940  18.5804152   6.0786045
  21.8716264  18.3138263   5.2237189  21.8103933  19.4919109   6.1720604
  86.2376284  56.0484886  31.3531637  86.8036022  56.8187428  31.4042735
  86.3777505  55.7064724  30.4701996  76.2946497  34.8218203  52.5546932
  75.9543644  35.3976512  53.2394218  77.2433786  34.8339152  52.6811838
  64.6586297  55.6774807  19.9415886  64.4196509  56.0744667  19.1040194
  63.8427399  55.2983284  20.2683949  27.9184681   0.5164378  44.8756027
  28.6697369   1.0289614  45.1741743  27.8043827  -0.1553018  45.5479002
  67.9977415  27.8640485  27.2223902  68.8160418  28.2297158  27.5584054
  68.1243215  26.9161415  27.2633982  70.9442240  28.7271665  58.2499152
  71.3011319  29.5384715  57.8884798  71.0578794  28.0831788  57.5509172
  61.3795118   6.6874189   1.4458174  61.6560047   5.8037252   1.2031884
  60.7931902   6.9574565   0.7390399  81.0342829  30.6482601  43.3188438
  80.1230441  30.9201908  43.4280682  81.1930679  30.0454855  44.0452576
  26.1475396  34.2862320  13.4784973  26.2983966  34.9835277  14.1166627
  26.5696883  34.5985508  12.6781988  12.0290899  27.3203158  27.7233720
  12.7044880  26.6958547  27.4585748  12.1185231  28.0460858  27.1057224
  49.9070978  66.3953347  32.9854369  49.9057913  66.4253719  33.9421630
  49.1668201  65.8309538  32.7625132  73.7779246  47.0978832  49.2912436
  73.4815787  47.8915691  48.8457394  74.7152064  47.0529175  49.1022682
  31.0362625  41.2147141  12.1683455  30.7641411  40.6361341  12.8806853
  31.4439845  41.9607258  12.6081848   1.4464346   7.2429711  43.9704370
   0.6068895   7.6157671  43.7013292   1.7270201   6.7185104  43.2204771
   5.8180028  68.2590199   7.3305774   5.3717566  68.2470798   8.1773078
   6.3192892  67.4437809   7.3125082  26.3765680  76.4251619  67.0200678
  26.5793666  76.1127572  67.9018318  26.2084671  75.6286555  66.5165289
  82.4479903   1.0713851  19.3582034  82.8532187   0.7483166  18.5534382
  81.6147600   1.4463657  19.0729880  75.4256163  25.2875853  16.7418408
  75.5541573  25.2955484  17.6903379  75.7572911  26.1360645  16.4480591
  73.8459403   9.9514316  64.0550213  74.3892151   9.6824096  64.7957712
  73.1315953   9.3145154  64.0381198  33.1570005  51.3639450  15.7699394
  33.6039162  51.7488956  16.5238035  33.7548828  50.6844759  15.4583418
  79.5898372  29.0483545  56.3913052  80.3008825  28.8660215  55.7769757
  79.8640687  29.8450969  56.8454283  68.8547204   9.8299444  38.9805794
  68.6209915   9.3140268  38.2089376  68.1933556  10.5210137  39.0159678
  65.8220023   5.6196569  59.6494680  66.4996338   4.9541400  59.7683566
  65.7326293   5.7035564  58.7001496  78.4508721  52.7588415   1.8848516
  78.7912665  52.7090693   0.9916070  78.1054602  51.8832254   2.0586759
  62.3694680  39.0021229  53.0278635  61.5795086  39.3328381  52.6002836
  63.0367301  39.6628547  52.8423214   0.5473993  28.3103871  16.4145982
   0.6384555  28.8219070  15.6106782  -0.1130376  27.6500487  16.2048113
  72.9807375  38.5390568  34.2716908  72.3524008  38.5422373  33.5495996
  72.4860845  38.8706779  35.0210762  74.4853817  75.0963783   8.6378759
  75.2143429  74.8618603   9.2122012  73.9120041  75.6326962   9.1854471
  39.7830870  66.3998704  62.8731775  40.4136588  66.9284921  63.3622282
  39.4434383  65.7769232  63.5156780  81.4905111  39.8961782   1.1708741
  80.9617637  39.5304489   1.8800282  82.2260679  40.3189850   1.6140716
  81.6089354  39.7499061  53.5830593  81.2767301  38.8953304  53.8579607
  82.3551385  39.9136233  54.1597795  37.1145710  70.9800082  67.5797339
  36.8081936  70.5495625  68.3779079  37.9333415  70.5327969  67.3656099
  41.4082045  72.8422225  47.7140808  41.8454832  72.2805328  47.0741367
  40.5930311  73.1036515  47.2858524  65.7619665  44.7912312  47.1962166
  66.5961621  44.8684072  47.6592398  65.1008890  44.9925900  47.8585291
  70.0728236  50.6752968  69.2696524  70.0237141  50.0769567  68.5241270
  70.3501747  51.5089750  68.8898039  14.0191642  76.9326879   7.8495593
  14.1235022  76.2304045   7.2075743  14.4509963  77.6880361   7.4505610
  73.3825598  41.1350203  15.3779483  73.5077296  41.6881371  16.1490703
  72.6120327  41.5006876  14.9434280  10.3911471  67.8784370  58.0997133
  11.2269855  67.7140570  58.5362768  10.3912461  67.2830677  57.3502016
  70.8844076  36.5443540  49.0199232  70.6013952  35.6307459  48.9817715
  71.8331407  36.5064645  48.8986826  48.7630943  79.2535497  17.7579112
  48.2655481  78.8114239  17.0700068  48.8648955  78.5923530  18.4425158
  73.4305940  24.2189670  20.5449343  72.7793954  23.5174799  20.5543160
  74.2346380  23.7953663  20.2444220  13.9938402  36.1626649  38.0876160
  14.2691469  35.7033896  37.2942042  13.2306755  35.6734300  38.3949590
  28.1491375  76.4669085  21.2311840  28.1646562  76.1843109  22.1455860
  27.7784610  75.7227516  20.7567716  18.4067011   9.3662053   6.2034136
  18.6724317   9.6368688   7.0822543  18.4046578   8.4096241   6.2377703
  80.6298379  51.5387774   3.3747917  80.3444080  52.1395016   4.0631866
  80.1132320  51.7893267   2.6089108  15.3357530  53.3519363  30.1365614
  14.3943882  53.2132387  30.0325131  15.6375754  52.5878525  30.6277990
   2.2630905  38.7457991  14.7473371   2.3034444  39.4257760  14.0748549
   2.5756273  37.9551458  14.3075418  73.1194077  70.0816250  44.8531103
  73.8793324  70.2302742  44.2903948  73.4786068  69.6616602  45.6346750
  46.7012638  77.8348235  25.0581312  47.4928791  78.3652178  24.9672508
  45.9965045  78.4003104  24.7422647   0.0942981  37.3909211  46.4291525
  -0.6920633  37.4195123  45.8841276   0.7024497  37.9956484  46.0040760
  19.4924939   5.6699485  14.7352254  18.6818564   6.1414278  14.9270737
  20.1738834   6.3413453  14.7693682  61.3108681  74.0007591   8.0292970
  61.0335587  73.1398869   7.7158743  61.2230824  74.5729017   7.2669470
  18.9382195  30.0255752  68.3310938  19.6191049  30.5441523  67.9024887
  19.4018686  29.2658424  68.6833286   9.8110068  39.5684528  29.0119648
   9.0412366  39.5312357  29.5796800   9.5012933  39.2427635  28.1668401
  17.4273086  39.5542669  15.6260109  18.0764616  39.5159554  14.9236119
  16.6704273  39.9855924  15.2293777  18.9915180  57.7298355   1.2353107
  19.3661487  57.2246599   0.5137275  19.7160089  58.2698488   1.5511099
  38.3332610  32.4568486   3.8201955  38.9292407  31.7649746   4.1071668
  37.4675035  32.0488620   3.8356557  15.1978111   7.6191342  35.6413436
  15.1071167   8.3555496  35.0366116  15.6639791   6.9517529  35.1378322
  82.5378744   8.6090517   9.6414065  83.1560491   9.0478349  10.2258384
  82.8119479   7.6919502   9.6477771  34.3108153  42.0851517  22.0224452
  35.2360106  41.9354200  22.2169352  34.2994332  42.3520422  21.1032772
   4.8311758  46.5568066  10.9500396   5.2351594  46.1471939  10.1850271
   3.9528763  46.1782169  10.9886277  64.8843787  34.6390963  23.1305838
  65.7330297  34.1999340  23.0743718  65.0138209  35.4698420  22.6730490
  23.3622851  45.8760314  69.2610527  22.7646681  45.1805075  69.5355196
  24.2339384  45.4891100  69.3431777  74.9498199  58.6747694  47.0368671
  75.3970895  58.8241148  47.8698587  74.6235166  59.5378208  46.7821121
  47.9047898   3.6825793  41.5774202  47.7612380   2.9115336  41.0286808
  48.8523273   3.7087672  41.7105389  62.3344992  61.9103861  22.2165060
  61.7335222  62.2752047  21.5669155  62.7115868  61.1415577  21.7887878
  25.1352779  68.9472367   0.9764523  24.7916676  68.3885528   0.2792878
  26.0669492  68.7317635   1.0187811  55.8445190  24.6228433  43.0099392
  56.1334203  24.7283053  43.9163876  54.9123762  24.4162273  43.0781460
  69.6987734  29.7701192  52.5495625  69.5145653  28.8419819  52.4051332
  69.7937618  29.8505902  53.4986353  80.3086982  45.6009197  24.4758940
  80.8313648  45.0788069  23.8672495  80.3770493  45.1361942  25.3099155
  79.1127926  81.0974943  57.0420074  79.3294436  81.9830534  56.7503214
  78.6282164  81.2257499  57.8574610  74.8675559  51.0149860  26.2578344
  75.0079189  51.4452124  25.4143667  74.2502020  51.5842295  26.7172575
  18.9509916  61.5559816  19.5186591  19.1564012  60.6264114  19.6183312
  18.0269635  61.6241932  19.7589731   5.4276568  44.9269485   8.8196850
   4.8204151  44.2049408   8.6578488   6.2589383  44.4992495   9.0252948
  30.3020930  30.2603889   4.1105860  30.4325533  30.1190162   5.0482565
  30.6841445  31.1218524   3.9428136  49.7704331   5.9677260  11.7212701
  49.4511263   6.8290751  11.9902468  50.3527371   6.1478942  10.9832370
  66.9115291  46.1675930  33.0302858  66.1346982  46.3204908  32.4923396
  67.2994958  47.0353746  33.1428599  55.5079983   9.2310041  25.8258605
  55.4987834  10.1174021  26.1870313  55.7366369   9.3503332  24.9040604
  82.1206312  59.1023207  53.8159323  81.5337459  58.5952759  53.2549477
  81.8194128  60.0061131  53.7228441  70.3176127  21.7434430   9.5789939
  71.1377869  21.8665504  10.0568950  70.1950632  20.7944465   9.5540541
  27.8274798  28.9119792  12.3910546  28.2787132  28.0728936  12.2985601
  27.1100140  28.7323928  12.9986954  14.8702991   1.0035932   3.3477172
  14.9870384   1.3856354   2.4778622  14.7185576   1.7550080   3.9209378
  41.9698763   0.7125539  42.9659081  41.8694973   1.0198868  42.0649624
  41.7213726   1.4639139  43.5043669  81.6305543   3.2322961  55.9048700
  81.7253990   2.4133113  56.3911819  80.7964740   3.1419823  55.4440165
  24.5763469  37.6851273  31.3516164  24.7064543  37.1893787  32.1600342
  25.3390265  37.4713397  30.8141756   9.0310532  10.9515357  25.0327396
   8.3918715  10.2624822  24.8514032   9.3127841  10.7861376  25.9324646
  24.0190721  27.8800344   9.6777153  23.8516498  27.6438046  10.5900729
  23.8054729  28.8117981   9.6284908  25.9948755   4.8798507  36.6898632
  26.5028883   5.0374358  37.4856782  25.0893501   4.8135703  36.9929504
  35.0085139  66.2918282  32.4814677  35.6340027  66.7506266  31.9206691
  35.3503966  65.3998041  32.5418162   7.1745026  58.1592751  22.1469617
   7.7801484  57.4673986  22.4129200   6.4105755  57.6919699  21.8089151
   7.5131464  51.9484043  32.7372718   8.3286214  51.4621305  32.6157379
   6.8596369  51.4453888  32.2513366  34.6576349  15.7219451  47.8148890
  34.2446522  16.2018531  47.0970011  35.5875371  15.9373133  47.7432728
  72.2717021  68.4757137  64.1967630  71.9609581  69.3378115  63.9202499
  72.5880836  68.0656385  63.3917952  21.2514353  11.1952722  62.8104734
  21.8458104  11.9188595  62.6120520  21.7219114  10.6693161  63.4571981
   3.4260988  47.9215002  23.4592986   2.6832202  47.4512529  23.8377523
   4.1682461  47.6840305  24.0152264  13.1287026  68.5361576   6.1611676
  13.3679831  68.7510061   7.0627308  13.2294333  67.5858402   6.1066067
  78.8144239  22.5967235   2.6329751  78.1609710  22.4166126   3.3088393
  78.8688143  21.7842407   2.1298403  82.3465280  31.7777061  40.8317232
  82.2572420  31.5871882  41.7655134  81.4468769  31.8784380  40.5207348
  78.7988959  53.3512068  36.6717434  78.8916723  53.5305977  37.6073956
  79.3515436  54.0067625  36.2462282  14.0069532  24.1127086  61.4201736
  14.0861630  24.2303133  62.3668146  14.8761356  23.8249183  61.1410141
  44.4620657  74.2918205  33.1291485  44.2257977  75.2185059  33.1698608
  45.4068041  74.2785501  33.2825351  66.5038648  58.3233195  53.0828851
  66.5171709  57.4988287  52.5968080  66.2331667  58.0757778  53.9670103
  68.0712758  18.9276433  37.4635839  68.7839602  18.3008707  37.3392081
  67.7906213  19.1504323  36.5759850  12.2520566  29.5878100  18.5749805
  12.3377514  29.0036654  19.3284154  11.4547884  29.2944431  18.1339228
  46.6480706  10.2082491  55.1434231  46.4149473   9.2836392  55.2269888
  45.9920977  10.6688797  55.6666327  84.7716138  34.9362636  25.6287956
  85.5017320  34.8997831  26.2467194  85.1601405  35.2650118  24.8181152
  23.2442522  40.0964689  31.6739321  23.9287138  39.6816230  31.1489081
  23.4767461  39.8876643  32.5786853  69.1440390  21.4323235  36.0982776
  69.4580911  21.2331367  35.2162743  69.9408005  21.5632296  36.6123462
  16.8045147  48.1358073  53.3983450  16.0136040  48.2470439  52.8707915
  16.6558464  47.3249648  53.8848298   8.5429651  30.7209301  46.6699362
   7.7356893  31.1939073  46.8719959   8.6873150  30.1577330  47.4303341
  54.0585373  30.3912020  42.9645920  53.7251423  30.3016543  42.0718098
  54.8558996  30.9124994  42.8713369   9.3749923  54.7316456  59.4593859
   8.7111866  54.0822554  59.6915245  10.1450098  54.4798088  59.9691725
  23.6134005  24.6999764   5.6477731  23.6776781  25.4722142   5.0858593
  23.9653707  23.9865041   5.1155090  20.3704667   2.3469967  30.5607176
  19.8167312   1.5870032  30.3817773  21.1270046   2.2328712  29.9855161
  31.5441060  28.9030623  52.4726868  30.7783031  28.8321781  53.0425596
  31.9101620  29.7653174  52.6695490  26.9566369  25.3557420  14.2776513
  26.4659095  26.1637783  14.4276536  26.4881897  24.9196577  13.5658801
  86.1067617  19.1943598  43.0376482  86.0162000  20.1171041  42.7997971
  85.8152817  19.1520572  43.9484072  14.2799497  69.7269011  25.0014162
  15.0578439  70.2018976  25.2938080  13.9769542  69.2607975  25.7806301
   9.7511375  26.4164591  12.6475489   9.2356896  26.0200572  11.9451165
  10.0728619  25.6729794  13.1574142  15.6657672  36.1451721  40.3936052
  15.9651256  35.2860665  40.6911898  14.9986982  35.9514618  39.7350240
  77.7961729  20.6802964  39.9446368  77.1885608  21.0800409  39.3223476
  77.3957227  19.8389030  40.1635647  71.9399331  43.5791254  21.8905091
  72.5121079  44.0812159  22.4708128  71.7786906  42.7616787  22.3616958
  32.1567678   9.0757817  50.5690956  31.6453099   8.5578650  49.9474812
  32.4554157   8.4414160  51.2207270  60.4290627  25.5388403  24.1184020
  60.1786278  24.6307158  23.9486241  61.3275812  25.4827142  24.4435883
  71.8799172  21.8197131  36.3390183  71.9801639  20.9505653  35.9507394
  72.2380374  21.7302561  37.2221828  11.6034484  32.0703793  40.8824301
  12.2360802  31.3521314  40.8710241  10.7516170  31.6404915  40.8061981
  81.2471692  29.2700791  12.2079611  80.6183432  29.2869449  12.9294348
  80.8044855  28.7789273  11.5158391  31.5691400  55.0516844   9.7868466
  31.4981055  54.1110325   9.6244884  30.7271290  55.4079199   9.5033950
  57.8514113  43.1824093  67.3369794  57.5920620  43.4168931  68.2280385
  58.6400952  43.6994969  67.1731701   4.2225060  22.2455311  33.0851841
   3.8966519  22.1222878  33.9767337   4.5170718  23.1559730  33.0615497
  79.6271549  40.1284838  27.5872946  79.5559893  41.0046768  27.9660511
  79.2295472  40.2092981  26.7203403  24.6574116  48.7818718  13.2497561
  24.8970008  47.8742027  13.4367371  24.3792844  48.7723732  12.3339021
  37.9351401  22.2454429  14.4836116  37.6573467  23.0646801  14.0738392
  38.8878012  22.3178816  14.5420897  10.7546937  47.2585821  36.1634278
  10.5807602  48.0313063  36.7008996  11.6955042  47.2938538  35.9906197
  83.4900953  46.2463188  38.9020300  84.1205092  46.9426298  38.7177324
  84.0296323  45.4782867  39.0897989   2.8500825  49.2085743  44.9802399
   3.7472230  49.2179489  44.6466494   2.9394528  48.9624214  45.9009218
  18.5500193   9.0404701  51.0640287  19.0520775   8.9000255  51.8668032
  19.0605593   8.6031127  50.3826332   7.1227467  28.3562899  53.0316544
   6.5514612  27.6299977  53.2813883   7.7698380  27.9618907  52.4468899
  23.1767797  19.6465051  46.4849615  23.7684417  20.1164412  47.0726109
  22.3794532  20.1760197  46.4741516   4.7856101  65.5761242  37.5710797
   4.8535720  64.6825075  37.9073215   4.0155509  65.5602694  37.0027566
  25.3832412  28.5881734  23.3502746  25.6339073  29.1688228  24.0687776
  26.1846685  28.4814000  22.8378844  15.2696335  21.5406036  35.3460598
  15.9064746  20.9221339  34.9880672  15.3786492  21.4744282  36.2947249
   7.7468240   2.4587560  49.7669506   8.5414642   2.4590537  50.3005934
   7.0477021   2.6906335  50.3782558  45.2893305  38.1073642   8.3210492
  45.0407124  38.7115192   7.6214671  44.4718742  37.6725030   8.5637265
  22.6848412  46.5047932  37.3350310  23.6355162  46.4551592  37.2351122
  22.3636603  45.6730461  36.9867849  55.2607123   7.2044413  35.8857727
  55.2187411   7.1789687  34.9298310  55.8452932   7.9369777  36.0804152
  15.0851142  37.4856424  14.7201455  15.2602255  38.3755755  14.4142187
  15.1885283  36.9397354  13.9407074  32.0166421  69.0306950  26.9660616
  32.5926971  69.5105934  27.5611210  31.2734294  68.7703705  27.5102091
  62.2441626  37.0116425  15.2659047  61.6718149  37.2235465  16.0032952
  62.9252005  37.6838207  15.2904415  16.8179262  62.3951769  31.0287809
  17.5872386  61.8296480  30.9611702  16.8964756  62.8043985  31.8905210
  11.6351032  50.4512215   4.7377986  11.6647816  50.8733845   5.5963606
  11.9421816  51.1235285   4.1295743  76.2110669   8.0283092  61.2955391
  75.3529150   8.4018110  61.0947864  76.6703910   8.7232516  61.7670368
  68.4715048   5.8384936  20.3035641  69.0620414   5.8903640  19.5520246
  67.6479427   5.5142348  19.9391079  28.7626410  43.5730171  24.6799397
  28.0321407  43.2451248  24.1554499  29.0234876  44.3853140  24.2459321
  13.6018944  32.7697062  42.7312517  12.9975498  32.3700666  42.1057224
  13.1455350  33.5531545  43.0381346  23.9754438  61.1784506  33.0289030
  23.5643768  62.0208931  32.8351307  24.5884919  61.0394144  32.3070502
  24.0734315  60.2926493  16.6298664  23.7108159  59.5580196  17.1249080
  25.0129557  60.1139832  16.5898180  23.4582472  65.7553244  37.4670172
  22.8836775  65.3573513  36.8130159  23.5263085  65.0968933  38.1584454
  13.3182502  50.1662445  11.7309248  12.7230513  49.4771385  11.4357960
  12.9013085  50.5232096  12.5151253  48.2031202  71.1802244   9.3252814
  48.4756565  71.9347858   9.8473853  48.8241768  71.1557722   8.5973251
  61.8612766  66.4751053  34.2383885  61.2765837  66.2960196  33.5019827
  62.3620605  67.2437429  33.9651775  20.0695539  41.6215372  47.2843790
  20.2905869  41.3679695  48.1805277  19.5036769  40.9169769  46.9687700
  84.4512027  28.5489440  30.4284620  84.3617891  28.6370111  31.3774014
  84.4446256  27.6043272  30.2739120  59.5998446   2.2987979  55.1856375
  60.3372804   1.7344802  55.4179335  59.4963018   2.1810572  54.2413664
  21.3227940  55.6874132  42.1357393  20.9488344  56.4390564  41.6759300
  20.6128907  55.3709793  42.6944304  37.2530770  34.7104335   0.1625949
  36.4897013  34.2000008  -0.1074928  37.1234870  34.8576498   1.0994866
   5.6063503   3.4496348  46.8832493   6.4647048   3.2367461  46.5170097
   4.9819606   3.0448287  46.2811756  31.4370799  18.5171902  35.9990358
  31.2522268  19.3759978  36.3791823  30.6565928  18.3096826  35.4852152
   6.1731678  45.3313541  23.2907104   6.4102077  45.9525061  22.6020765
   5.7993674  44.5852041  22.8219247  20.9264326  43.9923716  28.8619471
  20.9459090  43.0517817  29.0384245  20.0797224  44.2822790  29.2014599
   1.0838598  64.6175241  18.4186494   1.5758312  64.9028540  19.1885734
   0.1668293  64.7559834  18.6555362  79.9265758  41.2616961  50.4572535
  79.4364921  41.5408271  49.6838617  79.7745077  40.3180926  50.5094910
  31.7160916  27.2544432  39.8993206  31.1790085  26.7427087  39.2944241
  32.5932407  26.8804312  39.8159242  16.9956470  24.4430590  50.4350042
  16.8178129  23.5325241  50.1993513  16.3136292  24.6638942  51.0692883
  31.9105101  20.8065915  14.4566023  31.8766332  21.4832044  15.1328278
  32.3043561  20.0512218  14.8931050  77.8223286  61.2989044  31.1082721
  77.6148848  61.0269356  30.2142715  78.0855338  60.4911900  31.5493584
  80.3428702  53.1671762  15.3922081  80.2015476  52.2205544  15.4051316
  80.9136699  53.3138514  14.6379507  78.8765321  50.6490803  15.9742403
  78.9022676  50.5305386  15.0247586  79.0098957  49.7701263  16.3290501
  12.5865126  49.0647793  46.1071825  11.9087279  49.1098070  45.4327822
  12.3348665  48.3177376  46.6501665   3.3223444  78.6079311   3.2941097
   3.7276927  78.1413794   2.5631830   2.8265151  79.3150854   2.8814176
  82.3160936  52.5618744  57.9668474  82.1875913  52.0585537  58.7708282
  81.4337949  52.8259468  57.7059889  80.1714264  41.4976120  30.9378147
  80.3483043  42.1115875  31.6505408  80.5046026  40.6586456  31.2561893
  38.5326646   2.5127929  38.9013267  39.2235700   2.8891318  38.3561182
  38.2004086   1.7742675  38.3910108   6.4916360  57.4063683  53.8845348
   5.8914244  57.2859335  54.6203852   6.3764989  56.6204262  53.3504295
  40.8756828  71.5552616  29.8440862  40.2642155  70.8334589  29.9901795
  40.3935432  72.1692085  29.2901540  28.4184456  44.4666433   9.8010194
  28.8635612  45.2189779   9.4110256  27.4868727  44.6715593   9.7209406
   8.2032448  28.5424972  57.3961401   7.2824466  28.7887907  57.3083782
   8.1818509  27.6134968  57.6257706  66.7463861  66.4602280  23.2244635
  67.0862089  65.7587767  22.6688409  66.5955542  66.0423899  24.0723395
  45.0953817  54.4258928  18.0518949  45.8082199  54.0484905  17.5364721
  45.4919958  54.6238470  18.9002728  37.4755073  74.6506071  61.1670494
  37.5627899  75.3776693  61.7834806  38.2184911  74.0798521  61.3631201
  76.3368450  69.2370844  12.4697065  76.4739524  68.8295937  13.3249164
  75.3956280  69.4075203  12.4337363  16.8431449  41.4905548  42.9998446
  16.5096247  41.6375256  42.1147490  17.7523160  41.2201214  42.8713703
  13.5717106  57.4555063  41.5827274  13.8951945  56.8183374  40.9458590
  14.0405905  58.2631731  41.3728237  47.5149536  67.7274561   5.9809875
  47.2890186  67.5251818   6.8888807  46.6763210  67.7264643   5.5195487
  39.5472717  76.5644455  37.0427990  39.7202206  75.8843040  37.6937437
  38.9002728  77.1345806  37.4582124   9.0565097  48.7272930  19.1712141
   9.9339825  48.6273146  18.8020563   9.1543108  49.4035101  19.8415852
  45.8636475  67.7593088  38.9626956  46.2757874  67.2260904  39.6424389
  45.6594944  68.5868216  39.3983364  73.7954138  38.3132482  28.8547301
  74.0129672  38.0005860  27.9765821  72.8557180  38.4920025  28.8193560
  24.5076060  59.9033308  37.0304942  23.9787149  59.2344522  37.4653625
  24.5720768  59.6052217  36.1231852  16.4565802  25.2094913   5.2720648
  16.4688075  24.4630647   5.8711720  15.6930161  25.7201433   5.5412000
  16.3687611  80.1369381  26.9082212  15.8034182  80.8434868  26.5961218
  16.9970942  80.0018787  26.1988640  68.9309303   0.9190791  15.3285158
  68.9387218   1.0686152  16.2739325  68.2322852   0.2789538  15.1930201
  45.2453947  44.0074635  21.4254808  45.5935526  43.7017107  22.2630572
  45.1933622  43.2188272  20.8855009  37.6035118  72.3857164  43.9517593
  36.8941498  72.4536276  43.3126783  37.8332472  73.2931232  44.1519165
  22.1692701  75.7026248  67.4872433  22.2297146  76.6481262  67.6236319
  21.8356856  75.6102066  66.5948241  17.1037924  61.5570593  66.8951845
  17.3049521  60.6607056  66.6262722  17.9191017  61.8809319  67.2780848
  25.6025982  61.2120914  30.8148408  26.5032053  61.3977337  31.0806894
  25.3738403  61.9308424  30.2255225  50.9296227  71.7058849  15.9961808
  51.3858271  72.2487116  16.6391754  50.9997702  70.8158159  16.3412714
  16.1107719  20.2914190   3.5206339  16.3914895  20.7603717   2.7348146
  16.0151076  19.3825865   3.2358447   0.4124113  43.1451130  64.6605873
  -0.2910344  42.7462673  65.1727581   1.1808209  42.6062298  64.8486948
   5.9180698  54.4289989   4.8065323   5.6850777  53.5530586   5.1142354
   5.6346474  54.4449920   3.8923974  17.4707186  65.6941843  52.2918892
  16.7508018  65.6379032  51.6635704  17.4778259  66.6111183  52.5664949
  19.7966635  41.4668512  14.8021460  20.7510042  41.5371418  14.8251021
  19.5323181  41.4939594  15.7217216  40.8150101  22.7634454  14.5599401
  41.1516428  23.2809019  13.8284016  41.1454201  23.2085967  15.3402603
   4.6131366  31.2524152  52.8254938   5.2290434  31.0969877  53.5415459
   4.0480196  30.4798412  52.8237057  86.1287762  81.4734364  36.9776845
  85.5311711  81.6872883  36.2611890  86.0455724  80.5258274  37.0842218
   4.6124395   9.7678159  68.5581731   4.6920045   8.8255857  68.7068235
   3.6725648   9.9150823  68.4524209  78.8746898  53.4251118  48.2475328
  78.2888166  53.3712292  47.4924946  79.0968822  52.5149632  48.4437132
   6.8186182  50.3140831  57.4608326   7.3416042  50.0965261  56.6892195
   5.9897709  50.6351566  57.1056461  19.0571284  69.5484352  54.9659491
  18.2238376  69.1647863  54.6926928  18.8261688  70.4213047  55.2837467
   6.9633563  14.3374942  60.8417242   6.2559827  13.7927697  60.4965752
   7.5472244  14.4730304  60.0954276  20.1434135  64.5663548   9.6819514
  19.4966102  65.0091457  10.2313256  20.0262427  64.9536896   8.8144982
  75.0323663  21.9636703  19.2784572  75.5968617  21.2278461  19.0415204
  74.1427456  21.6314173  19.1583955  75.0869266  16.9866603  35.6599545
  74.4106332  16.3328307  35.8370662  74.8036138  17.4109595  34.8500562
  11.0494506  42.6339149  36.6611624  11.5798914  43.1864691  36.0871029
  10.7884610  41.8964624  36.1095452  29.1802216  74.8234034  51.0402012
  29.3080926  74.2742443  50.2666998  29.2341948  74.2151737  51.7773390
  70.7073508  46.0297585  63.0786562  71.5888642  46.2655497  62.7895737
  70.8339463  45.2541304  63.6251068  16.6483688  65.7615089  66.5614462
  15.8848774  65.1896477  66.4821529  17.1510684  65.6020164  65.7626438
  67.1334994  74.5883454  16.1521816  67.4795902  74.7161014  15.2689314
  66.2203557  74.3349577  16.0172915  41.9214370  77.6183515  67.7280169
  41.0519817  77.2649794  67.5398456  42.2111394  77.1404963  68.5051649
  20.8397722  53.8558388  32.2275686  21.4738750  53.4177876  32.7952480
  20.5922818  53.1897831  31.5862012   0.7089855  57.5946712  37.4353862
   1.1213769  57.8905821  38.2469320   0.9640110  58.2488155  36.7847776
  24.0604925  31.3195562  15.8862913  23.8728237  32.2051883  16.1972082
  23.6246634  31.2669516  15.0356936  41.2735605  62.0445871  20.8102632
  40.5099106  62.3553228  21.2965846  41.4365292  61.1668444  21.1555791
   6.2656742  51.7702627  64.4373274   5.5355614  51.7555046  65.0561571
   6.9851917  52.1707630  64.9253130  85.0387890  58.6450005  25.7601976
  84.7462047  59.3809414  26.2978029  85.0444233  58.9883947  24.8667336
  26.6670513  21.2144232  22.1762896  26.7321563  20.2995896  21.9022989
  26.2726855  21.6612887  21.4272761  12.0525873  20.5290198   1.7481059
  12.5656724  19.8904967   1.2528659  12.6843739  20.9358764   2.3410195
  18.3177555   2.8789169  36.3775015  17.6063979   2.6791772  36.9860291
  18.3939302   3.8327435  36.4028811  14.6763217  34.0102506  22.1070623
  14.0816009  34.5143962  22.6623774  15.4699969  33.9123297  22.6331067
  17.7115762  75.0024557  61.1274195  17.3639393  74.5150614  60.3805399
  18.5152960  74.5389128  61.3627815   0.4298552  45.0616668  62.5545853
   0.5230387  44.5687030  63.3697777   0.7971676  44.4863914  61.8834858
   6.3487345  64.3100357   0.5567522   7.1877593  64.2544603   1.0141139
   6.3024569  63.5040760   0.0424418   5.2732736  70.7612467  42.0377111
   5.3126395  70.5966902  41.0955858   6.0049903  71.3543844  42.2080326
  79.5894438   9.9827359  66.9636264  80.1207382  10.7705472  66.8482532
  79.8643619   9.6302818  67.8100463  17.6319420  30.1583099  17.4272907
  17.4967968  30.2968788  18.3647168  16.8656325  29.6583438  17.1461546
  49.8875720  78.1797297  24.8090243  49.7016263  79.1183929  24.7852111
  50.3328651  78.0449216  25.6455469   1.4400809  53.0356169  27.1750045
   0.8301571  52.6791716  26.5291166   0.9519522  53.7392807  27.6025772
  10.7996607  59.7816753  46.5903997  11.4997911  59.7930956  45.9377766
  11.2306881  60.0292301  47.4084234  58.7203215  57.5188541  58.8402176
  58.2410525  58.3460379  58.8881731  58.3323143  56.9770432  59.5273304
  78.2304083  13.1309545  67.8415585  78.6827026  12.5736225  67.2082806
  78.6542026  13.9848280  67.7547836  60.2345767  69.0609532  69.8190360
  60.1150217  69.3848639  70.7117965  60.1367011  69.8371463  69.2675129
  31.3701606  56.4784050  22.6046395  31.2027812  55.5672884  22.3636389
  32.3181200  56.5788269  22.5179076  20.1041842  51.5947342  54.3643427
  19.1847742  51.7938137  54.1874647  20.5462217  52.4424267  54.3168783
   9.4533968  26.4244151  33.2757902   9.2849374  25.5063844  33.0634856
   9.1867888  26.5114212  34.1909862   3.3280987  80.0340843  31.3733101
   4.1689378  79.6570110  31.6322255   2.7160740  79.2987728  31.4045501
  23.1924844  58.4659338  25.8664107  24.0189433  58.5013723  26.3480163
  22.9717660  59.3826580  25.7016873  41.4790773  71.4530897  55.5200148
  41.9217539  71.7319107  56.3215923  40.5966187  71.8162298  55.5950308
  71.8534742  51.0662508   0.5864382  72.0665405  51.9969368   0.5181707
  71.9926332  50.8557844   1.5097860  29.4910004  21.8237536  64.7340536
  29.9662491  21.7500823  65.5616665  28.6354433  21.4338725  64.9136305
  26.5325856  59.3030930  11.1892581  26.2341285  59.8049831  11.9477165
  27.4839687  59.2641115  11.2871540  40.8066511  63.1950521  23.8739085
  40.3031063  63.1467152  24.6865201  40.8833742  64.1322613  23.6950707
  39.6123338  50.1153994  13.0583549  39.2174053  50.8397150  13.5437715
  40.2645063  49.7527218  13.6578286   2.9071608   7.6123774  33.2518244
   2.9810733   7.2318691  34.1270280   3.6780995   8.1736153  33.1687737
   6.7923337  58.3249617  35.1791096   6.4041889  58.9085770  34.5272136
   6.4693838  58.6542368  36.0178661  59.4285534  37.9777479  11.4554036
  58.9741944  38.6938763  11.0116112  58.7455795  37.3285270  11.6236115
  35.6467342  73.3347702  52.6099539  35.9745073  74.2184353  52.7770853
  34.7661829  73.4682846  52.2591925  24.8107725  29.3210774  69.2716398
  25.4014408  28.6762624  69.6609424  24.1084393  29.4212287  69.9142358
  54.2895500   1.0527842  19.5321965  54.1989104   1.8666022  19.0364873
  53.6975710   1.1587470  20.2768874  53.4472227  57.9135752  44.8753595
  53.8916969  58.4853363  45.5012751  52.7912474  58.4749508  44.4620991
  22.1968794  22.3004889   1.2145536  22.2413683  23.1900072   0.8638230
  21.7826533  21.7893386   0.5193044  24.8560166  76.6736412  20.1919079
  24.0365171  76.1790371  20.1873612  25.4902601  76.0825682  20.5976152
  86.1309170  45.9264278   8.3330363  86.1021807  45.4417896   9.1579801
  87.0223767  46.2722969   8.2893693  32.0384235  12.9519027  23.6966085
  32.6100613  12.7555888  24.4388509  32.6282469  13.2904666  23.0230260
  38.2161593  51.5547848  21.8668318  37.8518414  50.7353783  22.2016144
  38.6360335  51.3108683  21.0419416  82.3815684  35.8521938  12.9205430
  82.2335489  36.0257816  11.9909251  82.1408318  36.6688442  13.3579862
  28.2076788  55.1322556  45.2006006  27.7798128  54.6871948  44.4691038
  28.7485838  54.4562817  45.6089067  13.0791926   9.2653692   0.6896479
  12.3044658   9.7824949   0.9101254  13.0711818   8.5425264   1.3170758
  50.2590942  60.7827568  41.2685680  49.6311522  60.7462692  40.5470514
  49.7695541  61.1730194  41.9926357   4.8861202  42.2686980  64.9849945
   4.6786769  43.1369804  65.3303855   4.1252120  41.7333434  65.2100413
  19.2259359  30.3099871  31.7106605  19.4049048  29.3815660  31.8597794
  19.2340660  30.4055214  30.7582760   8.0375743  65.1814938   9.7322989
   8.4338343  66.0267830   9.9437201   7.8302854  64.7946787  10.5829680
  10.5329466  11.0027313  10.2570152  10.8261859  11.8029773  10.6927311
  10.0994527  10.4997194  10.9464312  57.2643366  23.6671751  67.9476141
  57.3378267  23.7360733  68.8994985  57.0127978  22.7568083  67.7920782
   0.1363361  44.1096735  27.9535532   0.4582489  44.3526077  28.8216448
   0.8092070  43.5258865  27.6033115  19.7391423  14.1465781  53.5901194
  20.3978928  14.7540353  53.9266830  19.0780695  14.1032718  54.2810135
  12.8770455  51.5058063  67.9598992  13.6477002  51.3698028  67.4086978
  12.9560622  52.4102615  68.2631288  55.9537730  41.4708160  59.2818373
  56.1337108  41.5769027  60.2159672  56.6839865  41.9100688  58.8458627
  76.5324186  38.1416845  66.7978621  77.2510729  38.7618828  66.6749048
  75.8799229  38.6280155  67.3018122   2.4360810  37.8929901  29.2337561
   3.1713694  38.0816698  29.8168373   1.7028978  37.7148700  29.8227787
  20.7077654  14.6680186  69.4181851  20.7893380  15.1337789  70.2504387
  21.3524350  15.0847028  68.8463376  15.4016566  60.3816128  69.5384789
  15.7064509  61.2085295  69.9120331  15.4882395  60.4997635  68.5925531
   3.0937314  56.1044741  59.7682714   3.9986813  56.2727928  60.0308847
   2.6859656  55.7222795  60.5453730  27.0973349  25.0294685  18.4046757
  27.2514033  25.1554608  19.3409562  27.7310109  24.3604803  18.1455612
  27.9764175  52.9004574  16.2988985  28.7975788  53.3822203  16.3980424
  27.6530123  52.7917719  17.1932292  57.0607948  68.7772417  45.6997347
  56.4539003  69.5168924  45.6709051  57.2133493  68.5566425  44.7808790
   9.8953098  18.4120893  12.2349823  10.7623088  18.0066466  12.2476745
   9.4190383  17.9813075  12.9447889  33.9379048  52.7488089  18.2156456
  34.4222856  53.4866285  17.8452051  33.4835935  53.1168509  18.9735246
  14.7660923  75.1209402  21.2900233  14.3506515  75.5755091  22.0228338
  14.7290993  75.7476425  20.5674529  10.6598687  38.6753011  20.2303696
  11.3702238  39.1112566  19.7596598  11.0896003  38.2511616  20.9731150
  67.6152251  45.9816694  48.9932013  67.8010629  46.7320204  48.4286928
  67.0336376  46.3289642  49.6694946  50.0904655  59.7213411  35.3771210
  49.2123604  59.4513369  35.6459498  50.4247379  60.2233696  36.1203980
  72.9404662  51.9750214  32.8137612  72.6459931  51.6027212  33.6449718
  73.2992349  51.2301397  32.3314095  62.8892175  13.4290545  26.8699741
  63.0212156  12.8130191  27.5906062  62.2027246  14.0187781  27.1817136
  13.1394184  73.3437443  35.1122165  13.4767771  73.8185596  35.8718038
  13.4014976  72.4353552  35.2618241  74.3389891  60.6744480  51.0972786
  74.2411004  61.5999794  50.8735847  73.6827050  60.5216408  51.7771101
   2.0151642  67.1615362  43.0182314   1.4541210  67.7223587  42.4825621
   2.0599766  67.6061201  43.8647366  13.2047258   7.2800417  20.0708193
  12.9529796   6.3951511  19.8065753  13.3365188   7.7478714  19.2461962
  83.1796295  10.8205007  69.9639713  83.6801321  10.0071786  69.8988976
  83.7503773  11.4845489  69.5772948   1.1602121  55.6347942  63.8822794
   2.0097598  55.6921959  63.4450102   1.3745669  55.4975939  64.8050261
  20.4275393  26.1248040  63.3185720  20.9370494  26.9307137  63.4030676
  20.7639241  25.5551314  64.0103436   2.4805983  24.6140264  66.6042327
   2.0010694  24.6023963  67.4325734   3.1820424  25.2504991  66.7424660
   3.2824102  48.9932203  39.9957371   3.7354562  49.7639465  40.3377342
   3.9847672  48.3847046  39.7663140  13.2770395  44.6192217  26.5109086
  13.6887681  43.9532518  27.0615387  13.1477273  45.3664541  27.0949960
   8.0718607  65.7747698  40.4437876   7.4851638  66.1119413  41.1207914
   8.1608963  66.4974022  39.8224115  22.0943952  25.2382755  38.2807112
  22.7772355  25.9024167  38.3749199  21.8769145  25.2488995  37.3486042
  18.0481064  63.0082989  53.9420366  17.5741339  63.7576199  53.5813427
  18.9625299  63.2905197  53.9623404  19.7066307  32.8450489   0.8282128
  20.3230381  33.4165859   1.2860535  19.1013563  33.4453917   0.3929410
  23.6195564  53.2285976  40.2688646  23.3410692  52.4568939  39.7757626
  24.5293736  53.0468941  40.5043364  25.4585767  46.9599581  27.9514694
  24.6816635  46.4095831  28.0501056  26.1344266  46.3644457  27.6277018
  26.1654067  44.0597153  35.6901073  25.6503415  44.7404766  36.1231232
  25.7388520  43.9399147  34.8416185   2.2697212  21.7234683  52.7927732
   3.1504789  21.5796828  53.1389284   1.7396057  21.0342503  53.1930113
  10.5632055  64.9976397  42.8736877  10.9398842  64.4418716  43.5559368
  10.9491241  64.6729898  42.0601130   7.2112735  39.2424129  64.7908436
   7.6060971  38.6387799  64.1615771   7.1425970  40.0712608  64.3170016
  39.4436169  28.4240460   2.3465542  39.1912293  29.3228841   2.1353042
  39.9532008  28.1342316   1.5898757   4.8817462  26.7973304  12.2897947
   5.1004750  25.8655310  12.3014212   5.1217395  27.1105886  13.1618643
  58.2230073   8.1664584  55.6759363  57.8932213   8.5485814  56.4892333
  57.8959421   7.2669051  55.6840771  20.9457231   8.0327094  10.0312662
  21.2633657   8.7565267   9.4914305  20.3337693   8.4411800  10.6435537
   7.2088784  13.4747708  27.9699469   7.4178851  12.5883961  28.2647157
   6.3550782  13.3909142  27.5454164  24.5515013  43.6684132  65.8713627
  24.6100974  44.6105337  65.7125902  23.6160779  43.4736156  65.8142090
  83.5560218   2.3319571  21.6398335  83.4324352   1.8840449  20.8029723
  82.7366106   2.1863978  22.1127033  29.2187262  33.2863498   7.5113928
  28.6752176  33.4199381   6.7348725  28.7934279  32.5687480   7.9808605
  66.9581284  21.0606737  20.3333087  66.0204484  21.0366602  20.1424880
  67.3012801  21.7478103  19.7620673   4.2644092  52.9756689  43.2452440
   3.3106101  53.0550337  43.2310963   4.5315072  53.4384584  44.0394163
  48.8655559   7.6257842  36.0047960  49.5950715   7.6984542  35.3893614
  48.7084226   8.5236209  36.2970734  74.2045615  28.5679197  48.1619310
  75.0282489  29.0498757  48.2360172  74.4609366  27.7034616  47.8406572
  16.3409233  77.7609348  44.2519808  15.4308558  77.9925537  44.4373512
  16.4540684  76.8975544  44.6494770  82.7754612  78.1643772  55.3390932
  82.6231487  79.1091013  55.3162193  83.5390399  78.0585480  55.9065247
  20.0413203  47.9095888  19.9384701  19.9713552  48.6923027  20.4850006
  19.1376114  47.7014685  19.7013485  68.7408147  60.4347992  38.6565995
  67.8999780  60.8319569  38.4296870  69.3348907  60.7182169  37.9616332
  72.1358548  61.3971519  27.3210788  72.1037422  62.0533180  26.6249108
  71.3968025  60.8171225  27.1377873  15.1827967  64.6869612  15.7648146
  16.1312008  64.6703243  15.8932078  14.9199963  65.5669928  16.0344577
  50.6095878  20.8287471  47.0653296  51.0467974  21.3287394  47.7545929
  50.3160636  21.4903586  46.4389563  19.2176712  47.3375034  24.3941092
  19.6589363  46.5786886  24.0123844  18.3123195  47.0517349  24.5162034
  12.8118229  71.1323786  43.6363697  12.4996102  71.3723564  44.5088196
  12.1968734  71.5554667  43.0371523  14.8225939  46.2124586  12.5340950
  15.3480637  45.4504633  12.2902215  14.4466686  46.5182781  11.7086339
  24.8869967  32.8857923  32.0146656  24.8683167  32.5351787  31.1241865
  24.6836329  33.8153124  31.9104028  13.0741274  66.1035204  52.0263815
  12.9692495  65.2669096  51.5732622  13.6415279  66.6175747  51.4518929
  21.2922311  42.4994707  49.7730255  22.1561885  42.7614164  49.4549179
  21.3691545  42.5286627  50.7266808  79.4058852  38.8553643  39.5292640
  80.0194411  39.0318966  38.8160896  79.9577711  38.7854195  40.3082132
   6.1128598  46.3960695  35.4492855   5.2220970  46.0567904  35.5368185
   6.0989147  47.2297192  35.9194684  31.4790463  38.3240843  24.8521972
  31.5524554  38.3701253  23.8989282  31.1656380  37.4364448  25.0256896
  19.0051591  28.0030274  37.1643949  19.5537472  28.0979967  37.9430246
  18.2014596  27.5945544  37.4860263  10.9854472  31.6343927  16.3403618
  10.6462598  31.2321305  15.5407560  11.7877018  31.1484098  16.5312541
  39.7481823  62.7423382  26.5238428  38.8591886  62.4574518  26.7354131
  40.3032780  62.0063972  26.7817116  50.4866902   2.8525393  53.6802244
  49.6008364   2.5503676  53.4797573  50.8272592   3.1681388  52.8431797
   8.9179460  30.4454463  30.7894230   8.5781876  29.7094577  31.2984538
   8.9407949  30.1232188  29.8883796  41.0869217  79.5065880  25.2968049
  41.4121437  78.9927864  24.5575666  41.0344696  78.8805389  26.0189867
  31.9813490  50.8804560  38.4272718  32.4365044  50.1909590  37.9438901
  31.1957693  50.4541826  38.7698913   4.0531603  11.2171214  51.9828701
   4.8649685  11.6449588  52.2551870   3.4756891  11.2935488  52.7424192
  36.0959792  68.2923365  40.5511570  35.7701325  68.4827757  41.4308119
  36.0322189  69.1266441  40.0862932  53.0659405  10.5011027  23.8338852
  52.3298422  11.0849898  23.6509728  52.8004591  10.0191348  24.6171212
  16.4081502  66.2525654  27.4530005  16.5433204  65.3138161  27.3237467
  16.2202406  66.3410759  28.3873940  63.0827248  24.7962402  58.8569861
  62.4516747  24.1131995  59.0838306  62.7659214  25.1483272  58.0251782
  45.6096125  80.1949692  19.0868843  46.5268850  80.3592777  19.3056250
  45.5792665  79.2643118  18.8651073  61.3483373   4.3437522  31.8622494
  61.7899410   4.1354697  31.0389423  60.4157678   4.2734187  31.6582966
   2.1891057  63.2703400  22.0722556   2.9762623  63.3898735  22.6036024
   2.1061420  64.0870428  21.5799665  54.3104188   2.7242034  33.3438301
  54.4468347   2.3241847  34.2026687  53.9617530   3.5943454  33.5375571
  41.4391677  17.0893233  34.0444469  42.0554749  16.7216819  33.4110141
  41.8571452  16.9496005  34.8941565  25.1004243  49.1667557  26.4575052
  25.2221084  48.4024429  27.0207524  25.9471273  49.6129513  26.4730263
  79.7073166   2.2792189  12.1756792  79.0173666   2.7010291  12.6878071
  79.6509210   1.3539164  12.4141610  41.2139273  53.7850285  15.7604647
  40.8911371  52.9294825  16.0434461  40.5519390  54.4043827  16.0677147
  47.3730516  48.0652142  16.7983019  46.8883801  48.0882740  17.6234043
  48.2900286  48.1586933  17.0564699  67.6310603  10.8100264  42.6700068
  67.6389066  11.0462039  41.7424345  67.6484076  11.6487925  43.1308794
  32.4217266  18.3795493  43.7475157  32.3471969  19.3337195  43.7629890
  31.6249889  18.0841964  43.3068228  43.7226248  59.0610456  21.3830161
  44.1472816  58.9334011  20.5347228  44.3682432  59.5376921  21.9047570
  30.0112996   0.2070945  31.8770742  30.7881866  -0.3517587  31.8583155
  29.8350747   0.4032367  30.9569097  56.2681905   2.2342246  40.2523756
  55.5519334   2.7755206  40.5843544  56.9463102   2.2953646  40.9251642
  51.9881535  77.0640659  29.0076494  52.8679752  77.2129917  29.3540096
  51.4678288  76.8190575  29.7728062  46.1750174  68.3730555  61.3605118
  47.0198917  67.9275608  61.2976027  45.7048607  68.1076527  60.5701065
  29.1251445  45.5912590  28.3043408  29.1323161  46.4952660  27.9897761
  28.3950162  45.1818895  27.8400540  65.6541443  71.4960146  42.2123718
  64.7566414  71.2056065  42.3748016  66.0892248  70.7306814  41.8366098
   0.1408318  76.2486744  38.2342196   0.4198287  75.3343391  38.2830286
   0.3674126  76.6142035  39.0893722  38.7223411  65.0032949  32.4493265
  38.9255238  64.2151403  32.9530811  38.1367350  64.6998310  31.7556357
  52.0450306  80.6476307  70.0175571  52.2995663  81.2582684  69.3257761
  51.5689278  81.1864471  70.6494045  37.4571047   4.0972083  45.7309151
  36.8337975   4.0247767  45.0080919  37.6436309   3.1914561  45.9780073
  48.2522774  61.7147064  34.1657448  47.5479126  62.1803665  34.6165895
  47.8307676  61.3276911  33.3984256  43.7396765  68.3643484  62.5564623
  43.8598347  67.6290417  63.1573915  44.6261024  68.6848783  62.3899078
  40.0742340  78.1373262  23.0167627  39.7582483  79.0080070  23.2582140
  40.5242920  78.2687712  22.1822548  17.8671074  65.5921221  21.8508458
  17.5993574  66.0304928  22.6585412  17.9540932  66.2995243  21.2119007
  24.4273114  57.3904800  44.7520828  23.8743567  58.1573343  44.9017715
  24.1869783  57.0892572  43.8758755  15.9027958  54.2893934  46.3903999
  15.2662933  53.6501837  46.0702324  16.2019658  53.9314938  47.2262478
  31.1252473  20.5687850  18.2478857  31.3855732  20.9608786  17.4143827
  31.0595509  21.3093417  18.8507903  86.2017376  40.1940273  54.0259688
  86.5318328  40.9398864  53.5250085  85.9958846  39.5334743  53.3645063
  85.1154787  21.5094970  69.1201621  85.8822114  21.6402267  68.5622548
  84.5324999  22.2361110  68.9001624  41.9450665  58.7013721  29.2276907
  42.8665876  58.9589643  29.2536712  41.8858767  58.0977964  28.4871340
  17.1708798  72.8072453  17.8525007  16.7936897  73.2850742  17.1138287
  17.6069069  73.4800386  18.3754349  64.9309770   3.5099261  34.6274114
  64.3254654   3.6091559  33.8927412  64.8289982   4.3166106  35.1324773
  66.7424218  13.2597869  19.1876876  67.5162546  12.6966803  19.1694212
  66.3655607  13.1208461  20.0565386  23.9212871  69.2489481  21.5248394
  23.0621195  69.5015526  21.1868238  24.1442347  69.9376631  22.1510983
  38.6559532  23.4748309  28.7056398  39.1178111  24.0864127  28.1321597
  39.2774490  23.2911818  29.4100881  65.6199207  34.8471469   2.0238156
  66.0178276  34.4684286   2.8077025  66.1941512  34.5745296   1.3081545
  54.8128263   0.3475802   4.2671865  54.7749559   0.5713122   3.3372718
  55.2101795  -0.5230005   4.2880875  62.5345138  38.3753513  66.8579360
  63.1471318  37.6407788  66.8214818  62.5829482  38.7710307  65.9876924
  41.3554041  46.0191481  10.6271935  40.6502453  46.4043753  11.1473656
  41.2466351  45.0746768  10.7384610  14.1609764  61.0772133  53.2590723
  14.9977016  61.0235977  52.7972841  13.5048258  61.1094332  52.5628948
  38.6417341  59.1592884  43.4099483  39.5122743  59.3527031  43.7577724
  38.5642624  58.2073832  43.4740400   8.3436165  21.3292093   1.7800517
   8.7253580  21.0402889   2.6089282   9.0883408  21.6530723   1.2733645
   7.3079050  77.3789024  50.0512457   7.0546228  76.8121624  49.3226290
   6.4786196  77.6355600  50.4545403  35.5015755  78.5247564   2.3024693
  34.6959114  78.9740086   2.0469072  36.1229753  78.7317419   1.6044363
  27.1191383  21.8354361  13.5001206  27.1005950  22.7885192  13.4133351
  27.2391934  21.6825717  14.4373786  26.2694263  64.9709606   9.6341091
  26.4616251  64.0425587   9.5023352  27.1270585  65.3781033   9.7563165
  59.9562136  39.6339457  44.9960136  59.0843884  39.9971621  45.1516867
  60.2836577  40.1145690  44.2357445  33.7128196  81.1202313   8.2702250
  34.2079649  80.4351832   7.8210349  33.8487301  80.9428336   9.2009730
  77.8935138   2.5090068  23.2704186  78.2684127   3.1712096  22.6897550
  77.3261444   1.9867556  22.7033424  36.6996694  48.2671070   3.4182471
  37.2266340  48.1160927   4.2029345  35.7967472  48.2833815   3.7355766
  48.4484247  13.0072158  58.0488729  48.8397340  12.4831145  58.7477493
  47.5142459  12.8027575  58.0905628  49.6643686  62.9012918  37.8530812
  50.0201511  63.6340237  37.3503327  50.3363848  62.2221518  37.7948427
  22.9453921  68.6309052   3.7856030  23.8172340  68.6374903   3.3905312
  22.8032708  67.7183247   4.0370604  23.7206500  23.7879699  23.3218551
  24.2401164  23.2552855  22.7196598  24.3598789  24.3569510  23.7506700
   7.6366895  63.8655853  46.6339064   8.1792551  63.2984972  47.1818686
   7.9764986  64.7465754  46.7907953  61.7310646   8.4626125  62.9245608
  62.4997160   9.0304397  62.8699874  61.0619509   9.0047811  63.3423840
  24.0695620  51.4713144   9.2656487  24.4958162  52.0519686   8.6352670
  23.1489563  51.7328358   9.2477268  38.5013227   0.2454608  25.9503818
  38.1479750  -0.6283338  25.7834864  37.8417836   0.8421366  25.5965090
  59.7523928  70.3098154   9.0882528  59.4808912  69.5085526   9.5360142
  60.5205536  70.6078815   9.5754051  38.5812388   3.6796706  14.0569675
  37.9987297   2.9395621  14.2277110  39.4186405   3.4187835  14.4402778
  11.4084828  63.4853029  16.7676032  11.0498428  64.3446207  16.5458441
  11.9365072  63.2425976  16.0070014  30.4107940  28.1596797  61.5818453
  29.7405447  28.4010260  60.9425068  31.2279978  28.4895938  61.2082624
  11.1237073  41.8088150  68.9533615  10.1947129  41.9205046  69.1551733
  11.4322186  41.1668158  69.5928049   8.1279176  20.3205531  10.0350976
   7.5892871  19.5313304  10.0920343   8.4997409  20.4204982  10.9114480
  55.9635592  74.0248108  49.7008324  56.1639214  74.3698311  48.8307476
  55.6866217  74.7904491  50.2041578  37.8538950  27.9898380  66.3330897
  37.4600323  28.8495897  66.1850014  38.4049233  27.8431867  65.5642634
  52.3354626  80.6025314  35.8822608  52.5195694  81.0541058  35.0586009
  51.3886213  80.6863785  35.9949327  26.9205236  41.4083958  28.8282657
  26.6088462  42.0584583  29.4579530  27.7232289  41.7874432  28.4701872
  70.4656076  72.2603130  52.5079823  70.3695440  72.8615761  53.2465506
  69.9411631  71.4972067  52.7505970  25.9918984  11.1594318  60.4768258
  25.4158553  11.9238780  60.4708558  26.4744910  11.2296174  61.3004821
  55.6131146  18.3069537  61.6114896  56.3186030  18.6065696  62.1848553
  55.7113184  17.3550866  61.5882086  44.3910853   5.4123156  34.8740411
  45.2251116   5.4028361  34.4044209  43.7286238   5.3369468  34.1872406
  83.1615515  64.2057133  58.7928915  84.0987609  64.0146112  58.7561321
  82.8845016  64.2228985  57.8768253  26.3575101  48.8157463  35.1804829
  27.1376681  49.1593409  35.6158304  26.6992569  48.2593918  34.4805455
  13.8102281  77.2306442  45.0972080  13.0744040  77.1577168  44.4893646
  13.4508157  77.6937485  45.8539057  82.7676112  27.0254443  58.4901851
  82.9537326  27.9321502  58.2463067  82.0958954  26.7434762  57.8692799
  38.6682610  16.5974181  33.0068445  38.7073527  15.7598441  32.5451374
  39.4733922  16.6237109  33.5238576  78.1736032  14.6289962  34.2528868
  77.3326866  14.8637908  33.8605118  78.4847585  13.8909953  33.7287116
  14.8332381  64.5246601  11.3376653  15.6531024  64.9937153  11.4927161
  15.0245988  63.9451742  10.6002295  40.5168533  53.9089203   2.7439201
  41.4416981  53.6687899   2.8007513  40.0504303  53.0734587   2.7701095
  60.5031745   5.0211947  40.2093649  59.9373190   4.9001735  39.4468737
  59.9379341   5.4304068  40.8645630  44.6658993   6.8668524  67.7324706
  44.4012022   7.5399366  68.3594768  45.0902367   7.3522154  67.0249432
  76.3772964  51.3413239  48.7572432  76.7447472  50.4611588  48.6764956
  76.4121532  51.5303278  49.6949482  69.9657575  21.0188620  23.0364585
  70.2478019  21.8522685  23.4134579  69.8154298  21.2131446  22.1113181
  67.7105729  19.2710917  17.9933286  66.8790809  18.7975066  18.0172110
  67.9499356  19.3813365  18.9135373  27.3944688  75.4657841  63.1252861
  28.0335689  76.1443329  63.3428907  27.9038572  74.7930527  62.6734161
  60.5926744  20.4447596  32.1816158  59.6951882  20.7566493  32.0655322
  60.8413736  20.7500594  33.0540657  73.7073785  18.4855817  68.5676982
  73.9528042  18.7537406  69.4531862  73.8026244  17.5331376  68.5708264
  66.1866538  27.9140799  34.7315240  65.9822981  27.7433341  35.6509352
  66.6085831  28.7732547  34.7355080  77.7336780  18.3845656  34.6115041
  77.0926372  17.7389853  34.9090481  78.5142700  17.8699916  34.4062710
  47.6811651  11.4836161  48.8320494  48.2721881  12.1979182  48.5939550
  47.8657929  11.3180583  49.7565699  71.9166128   9.0852397  19.6938109
  71.0899583   8.6129325  19.7928023  71.7629377   9.6869509  18.9654160
  53.7545204  51.6972017   8.3003920  52.8213978  51.5559721   8.4602976
  53.8340139  51.7154455   7.3466730  43.0712318  63.2730150  13.6444235
  42.1973658  62.8877878  13.7091458  43.1018877  63.6509371  12.7655244
  10.6437433  60.8341742   4.9569932   9.8889637  60.9310484   5.5376434
  11.3982248  61.0417414   5.5082685  13.2826042  61.4460850  41.6460276
  13.7867641  62.1987915  41.9550276  13.8016927  61.0898018  40.9250259
  41.5496580   7.9921191  29.6600437  41.5090064   7.3957770  28.9124107
  42.3763303   8.4613459  29.5474696  42.3067228  12.8340380  36.1047173
  42.2185592  12.0172732  36.5959954  42.4665586  13.4998172  36.7736173
  48.8618755  77.3711777  19.8787189  48.5872173  77.0836735  20.7494283
  48.3766603  76.8074465  19.2762184  75.9006977  76.3589001  22.5899315
  75.9915257  76.4142418  23.5412049  75.4772520  77.1806288  22.3415518
  61.2317983  19.6614688  21.3009977  61.8078915  19.2687838  20.6451368
  60.6719534  18.9409392  21.5902019  62.5768391   3.2569545  51.8396139
  62.7324216   4.0230601  51.2872553  63.0102412   2.5380461  51.3796425
  71.4284665  25.7452653  68.2594468  72.2567755  25.6018375  67.8016656
  70.7596249  25.4445003  67.6442858  44.3423605  54.5763683  49.7110415
  43.7524414  55.2442360  50.0605822  44.2252159  54.6261454  48.7623405
   9.5122993  72.1743631  43.2789993  10.1965904  72.4818039  43.8735199
   9.3135178  71.2879276  43.5805702   9.5391639  65.4337142  60.1937299
  10.0347932  66.1877273  60.5131751   9.7487577  64.7311614  60.8091407
  54.3727746  69.1925102  59.8733585  54.1387668  68.6268239  59.1375130
  55.3208342  69.0929418  59.9599700  27.0429802  80.3621387  46.2616348
  27.1584654  80.6528664  45.3569937  27.8532529  79.8965883  46.4688826
  61.1715078  31.9921899   6.3531423  60.5643892  32.6712966   6.6471738
  61.7052841  32.4213219   5.6844437  81.4787380  18.3201640  55.9999466
  81.0209886  18.8555758  55.3518486  82.3244945  18.1260054  55.5959320
  23.8260651  78.8239145  49.8256540  23.8671350  79.7137451  49.4753027
  23.1193137  78.4053755  49.3341637   4.8865884  16.4255183  25.4539585
   4.3995708  15.6391757  25.7003641   5.7999509  16.2107222  25.6433177
  67.0315687  10.5114405  28.6824989  67.8831188  10.1128524  28.8619947
  66.5423028   9.8322623  28.2182026  20.1126027  69.1674423  36.2684464
  20.3922439  68.3820391  36.7387438  19.8872888  69.7919893  36.9579434
  12.6646465   2.9863494  25.4809213  12.7004188   3.2565921  26.3984847
  12.1986240   3.6967318  25.0400043  17.0234287  43.6354733  58.4825039
  17.1979976  42.8468466  57.9688692  17.8475618  43.8134670  58.9356661
  58.8498298   3.9618628  31.3548493  58.5286276   3.8031810  32.2424746
  58.3085481   4.6810477  31.0292578  31.8695664  63.9631176  30.1112509
  32.5746012  63.7008953  29.5193076  31.0803056  63.5804605  29.7280145
  38.1251979  49.9466848  29.3500113  38.0828547  50.7103682  29.9255323
  37.4053812  49.3870211  29.6413422  48.6222887  58.9621401  18.4571028
  49.0355301  59.4368219  17.7358949  49.3436623  58.5002565  18.8843215
  22.8441072  50.7029724  39.2057395  22.8392529  50.3708553  38.3080173
  21.9784451  50.4802847  39.5481873  43.8527862   9.1097205  11.2439847
  42.9867796   9.0622943  10.8389974  43.7477926   8.6674826  12.0863843
  25.5978298  53.6170483  26.8484259  24.9248624  53.2627153  27.4296236
  25.1397276  53.7825394  26.0244179  30.7315731  68.5437298  42.9686117
  30.3887820  67.7702093  42.5209665  30.6809378  69.2409563  42.3147488
  24.8378658  79.6022558  38.6638045  24.0086889  80.0802422  38.6789799
  25.5079722  80.2831841  38.7230968  18.2076160   3.5536616  42.9523277
  17.7519242   4.3953841  42.9434347  18.3272640   3.3558791  43.8811970
  18.4949052  77.0192862  26.3041210  17.6364326  76.7216110  26.0030437
  18.9207959  76.2279224  26.6336489   2.7546972  19.7635596  46.1947441
   2.1350091  19.8020308  46.9232655   2.3451036  19.1726439  45.5628538
  29.5472956  71.8534184  46.3692236  29.8308778  71.0552788  45.9233665
  29.6164417  72.5373363  45.7031107  42.8003502  42.7521896  23.9048338
  42.4843597  43.1426430  23.0900145  43.4230375  42.0818567  23.6235046
  25.7288241  56.7504501  49.2874765  25.7887697  56.4845848  48.3698988
  26.1729670  57.5977135  49.3208551  26.3342690  64.3858719  49.3429708
  26.6203046  65.1870346  49.7817850  25.6193829  64.6675825  48.7721777
  45.4909229  48.6658144  59.7901106  46.1075783  49.3116283  60.1349211
  44.6278095  49.0311909  59.9844599   5.8756799  34.8891616  40.3257990
   5.6551373  34.7545528  39.4041300   6.6546679  35.4450893  40.3069496
  32.4734426  62.2313595  47.4998426  31.9607139  61.8842125  46.7698908
  33.2110548  62.6774168  47.0836735  26.1593366  34.7020459  28.2342291
  26.5391588  33.9345598  28.6619353  26.3387299  35.4247332  28.8357043
  14.9015009  59.7155237  20.7545280  14.2275524  60.3290033  20.4618311
  15.0327826  59.1301680  20.0086355  19.3140900  23.4931660  18.1848836
  19.4013858  22.5434041  18.2658947  19.1361785  23.7942028  19.0759254
  53.8454723  73.7313986  30.5707693  52.9687548  74.0229225  30.8209991
  54.3953657  74.5076704  30.6768346  17.3031672  10.1095794  64.7437798
  17.6785763   9.4654439  64.1434585  17.0943316  10.8610032  64.1888159
   4.3142971  67.3294973  41.2038946   3.9826429  67.5883341  40.3441048
   3.5744798  66.8906641  41.6238070  24.2840338  56.1470938  35.1274467
  24.5358276  57.0345402  34.8719788  24.0324402  55.7238436  34.3065953
   9.0485090   8.7082427  30.4624534   8.5581726   7.9935115  30.0562882
   9.0044731   8.5258143  31.4010763  54.8365680  19.7401374  37.2850990
  55.5414836  20.3720610  37.4264836  54.2456953  19.8705142  38.0267859
  58.3033435  19.8779052  37.4456143  58.4734456  20.3343528  38.2696009
  57.8721444  19.0643161  37.7070880  69.2795030  29.4738810  45.3953171
  70.0603000  29.4684451  45.9489965  69.3553392  30.2783721  44.8822069
  19.2752457  48.9125252  27.7515769  18.9581048  48.1611776  28.2527065
  18.5808277  49.5660830  27.8345108   1.6180438  62.1065331  28.0402493
   0.9211490  62.2577810  28.6787581   1.3090445  62.5355434  27.2423148
  49.6881008  81.0528564  35.8200216  49.6651840  81.8300438  36.3783145
  49.2072678  81.3090515  35.0330043  34.5580125  76.9570208  25.3830457
  33.9097357  77.6403904  25.5532742  35.4017878  77.4012804  25.4661465
  85.7865864  30.6618283  70.4935882  86.5133268  30.3303407  69.9661449
  86.2067563  31.1664746  71.1900245  45.0186769   0.3831809  38.2958102
  44.9837677   0.5381243  37.3518801  44.9076883  -0.5631311  38.3874583
  37.4749804  61.9109058  31.6886759  37.7162027  61.7877531  32.6067591
  38.3100891  62.0234776  31.2346387  73.3716480  20.9124987  22.3157454
  73.3746711  20.0863307  21.8323565  72.4783365  21.2427466  22.2200155
  78.9352934  12.0458548  32.9729128  78.3179084  11.3650172  33.2403660
  79.7927848  11.7049544  33.2273388  18.5690570  69.1633129  12.8770614
  18.6671853  70.0501633  13.2236195  17.6799762  68.9072847  13.1224501
  50.5103342   8.6682170  42.1453667  49.6682564   8.5896247  42.5936508
  50.5927912   7.8555529  41.6463614  22.1483779  71.9391966  55.6496286
  23.0599999  71.9164467  55.3586674  22.2020626  72.0818949  56.5946102
  83.3540605  74.6980333  39.0491390  83.4539078  73.7646198  39.2362285
  82.4079387  74.8431921  39.0528798   3.5310373  72.5689983  22.7268529
   2.8679898  71.9505692  23.0336881   3.6446044  73.1794071  23.4553695
   8.7951225  17.1361678   1.8964843   8.0351728  16.5547507   1.8706858
   9.5173877  16.6010230   1.5675756  24.1484404  78.5405016  18.2454085
  25.0349545  78.9007521  18.2221532  24.1703057  77.8959656  18.9527488
  21.0541844  68.4629488  40.2916241  20.8061481  67.7845764  40.9197330
  22.0112300  68.4464264  40.2867079  -0.3035919  80.7839225  68.9165664
   0.3845342  80.9633468  68.2758453   0.1544317  80.3782485  69.6526902
   8.4475386  70.0001574  50.7824612   8.2244444  69.2379284  50.2481747
   7.6192272  70.2612972  51.1848783  60.3132758  47.5008796  69.3507303
  60.1530074  47.4460433  70.2928229  59.8558170  48.2954715  69.0758044
   0.7644652  68.0541229  13.1431115   0.3422046  68.8135195  12.7415597
   0.1813090  67.3220015  12.9427207  22.9683971  48.9362478  32.9826474
  22.9237986  49.4454050  32.1733284  22.1854353  49.1922712  33.4701419
  23.5941529  51.9752789  13.4387267  24.4151926  51.7445564  13.0041051
  23.5730743  51.4224577  14.2198670  43.0128908  59.3435764  38.8507247
  42.5443745  59.9179888  38.2451057  42.9223967  59.7694206  39.7031903
  66.7386214   2.9302733  41.5953398  65.9453289   2.4597304  41.3394022
  67.3304955   2.8247874  40.8504963  44.5554066  63.8432693  43.2164621
  44.2201662  64.6290493  42.7847195  44.1492891  63.8544559  44.0831661
  17.4867535  57.7781487  21.5201259  17.9771113  58.5049057  21.9043183
  16.6899705  58.1820631  21.1762905  44.8580933  76.1556005   0.2121511
  44.1204166  76.7630720   0.1569836  44.5561361  75.3700972  -0.2439678
  35.0096563  12.4325984  11.1111236  34.1231535  12.5716632  10.7779503
  35.3806142  13.3123439  11.1794102  14.2497158  54.1659212  10.8429599
  13.9478326  55.0737858  10.8726215  15.1704180  54.2278528  10.5885911
  71.7991656  39.5734428  41.2591415  72.1158546  38.7797664  40.8278494
  72.1341628  40.2893565  40.7192498  55.1376502   9.6096747  67.7089596
  56.0811106   9.4483607  67.6994658  54.7498528   8.7790435  67.4334764
  32.1020961  52.9338789   0.8415212  32.7015257  53.1372070   1.5595558
  32.2561431  52.0075655   0.6559364  39.6610586  25.2594512  50.5212736
  39.4626633  24.3245547  50.4680824  39.1132704  25.6593554  49.8458147
  19.9575412  56.1421585  22.1931458  19.3887353  55.9762669  21.4413667
  20.5584908  56.8240452  21.8929458  35.1606059  60.9021711  25.9770012
  34.7252822  60.0683022  25.7998300  36.0349178  60.8005857  25.6008458
  31.4460540  54.4580507  32.3053503  31.1262918  55.2745390  32.6891875
  30.6900787  53.8712931  32.3264194  19.6509933  63.7116146  21.2055063
  19.3718314  63.0520964  20.5704188  18.9027679  64.3038940  21.2803268
  39.2598991  21.6247885  24.3322849  39.3253163  21.6517489  25.2868676
  39.0575496  20.7109492  24.1317987  19.9023783  71.7234707  52.7932692
  20.1375914  72.4177408  53.4088135  19.5184100  71.0382795  53.3403683
  56.4980857  13.8778346  11.5848482  56.2452213  13.9746135  12.5029588
  56.2533561  14.7099631  11.1800170  15.7964333  32.8111766  55.6874161
  15.4930457  32.8921436  54.7831862  16.5256842  32.1929000  55.6409150
  24.8365903  56.9592476  24.1415453  25.6267977  57.4902105  24.2409444
  24.1505456  57.4674559  24.5743275  46.5072540  17.9546111  50.7552814
  47.3126701  18.0664675  50.2502823  45.8075730  18.1870787  50.1448393
  73.5081665   5.2227538  26.8844914  73.5904495   4.3434947  27.2537708
  72.6913158   5.1977484  26.3861251  27.5176406  69.3359137  40.5037975
  27.4663186  70.2293730  40.8434010  27.2852683  69.4175482  39.5788240
   3.8465366  47.8429031  35.9491563   3.5910383  48.7643480  35.9056997
   3.0173731  47.3648834  35.9639144  33.2015967  70.8360481  28.5101318
  33.3760548  70.4785395  29.3807554  32.6526499  71.6033316  28.6718726
  53.1718683  56.1694241   3.4107831  53.6883259  56.7157173   4.0032938
  53.0381870  55.3533316   3.8928092  56.5192954   1.4772837  31.6798091
  55.9368984   0.7923167  31.3513684  55.9308092   2.1328299  32.0542026
  26.8302751  61.1884117  38.1818652  26.0570550  60.9360075  37.6772308
  27.1329808  61.9967270  37.7680612   8.2217377  43.1355429  36.8656588
   7.9515809  44.0486526  36.7682767   9.1693759  43.1505346  36.7315340
  17.5927401  79.9382830  45.7320881  17.2575235  79.1698790  45.2701283
  17.3021221  80.6813431  45.2032804  66.7066900   6.8807261   3.9098123
  67.5030033   7.4111693   3.9372000  66.2744085   7.0542949   4.7460166
  78.3906786  38.0273764  29.0004420  78.8326971  38.7981265  28.6443639
  79.0724937  37.5633662  29.4862938  27.6545477  54.6736765  28.4280658
  26.9353080  54.4016504  27.8580427  27.2230148  55.0466967  29.1967463
   9.9017745  44.0013647  33.0866241   9.7159320  44.6095371  33.8020420
   9.0925133  43.5011578  32.9811716  78.3989577  28.2236505  23.4424305
  78.5004537  27.9527187  24.3548584  77.4587802  28.1563854  23.2757735
   2.5921482  49.8629706  13.0636168   2.9116910  50.7113688  13.3707702
   1.9628805  49.5882933  13.7305546   6.2504428   6.4277594  33.1798506
   6.2611335   6.2964957  34.1279459   7.1082967   6.8025630  32.9802537
   1.9737142   2.4595683  15.7944322   2.0770162   3.0510562  16.5398848
   2.3092693   2.9549735  15.0472999  57.3574495  62.7232218  52.7093029
  58.2650852  63.0211782  52.6488590  57.3163462  62.2472477  53.5387564
  36.0032153  77.8965330  58.2132530  36.1374164  77.0009518  57.9031706
  35.8074450  78.3973694  57.4213743   8.5882600  34.1923974  47.8101139
   7.7622994  34.3987392  48.2476550   8.3810194  34.2315887  46.8764406
  46.9763041  61.0427189  45.5574512  47.2708082  60.8484077  44.6676493
  46.0221958  60.9800625  45.5130005  51.8076277  65.0130844  43.1610632
  51.1627293  64.4467974  43.5849190  51.4320469  65.2020121  42.3011351
  33.6542678  76.7797232  32.7466464  33.8632035  77.4142075  32.0610738
  33.3240557  77.3104382  33.4715819  18.2015270   2.3070090  45.8706474
  18.5771936   3.0963462  46.2605858  17.2615713   2.4834960  45.8310223
  81.3237762  80.8464432  44.9373913  80.5572701  81.3690853  44.7016907
  81.5018463  80.3180599  44.1593552  46.1676550  64.7794199  46.1539221
  46.5571928  64.4133234  45.3599024  45.2856731  64.4084692  46.1809969
  47.3564720  50.9930944  18.6511374  46.8205595  51.1048651  19.4363332
  48.0306911  50.3643990  18.9088202  13.8829100  61.8661737  26.0793114
  13.5883820  61.1352825  26.6227126  13.9134490  61.5079784  25.1921821
  24.0593863  46.4343786  33.3767819  23.3564401  46.0751343  33.9181161
  23.8879776  47.3758650  33.3554816  55.5431890  62.4281597  42.2788239
  56.0144424  62.8290129  43.0092144  54.9043369  63.0899239  42.0139360
  58.0603790  71.6161060   5.3061986  58.4758615  70.7755899   5.1134944
  57.2599268  71.6135263   4.7813204   1.1420115  35.5817245  41.0274558
   1.1762412  35.3988813  41.9664054   1.7084344  36.3445352  40.9111863
  58.0923144  12.9254859  35.4453874  58.0655805  13.4790843  34.6649671
  57.3410980  13.2093756  35.9662604  86.7951113  36.6350101  64.9778127
  86.7961890  35.7149242  64.7138613  86.0311634  36.7196296  65.5483001
  39.9464464  66.7238140  10.0783932  39.1174579  67.1962929  10.1543880
  40.5918407  67.3066139  10.4784417  26.4642429  65.1395655  24.2298770
  27.2373676  64.7361898  23.8351631  26.0415959  65.6044769  23.5077572
   9.9158877  65.3222513  29.8135209   9.3393505  65.3873348  29.0522051
  10.2217460  64.4152689  29.8054957  48.0871630  81.6718483  18.3432627
  48.3848095  80.7644939  18.2773662  48.8922119  82.1822834  18.4303880
  78.2623283   0.4372256   7.4617702  78.2360689   1.0870974   8.1640589
  77.4286453  -0.0274904   7.5341845  57.0764486   9.6673148  32.8359890
  56.3530938   9.0473216  32.7432632  57.1133129   9.8537772  33.7741280
  30.9552316   8.1140368  47.5183153  30.0964019   8.1781714  47.9360819
  31.0985942   7.1740191  47.4085665  38.1844687  81.3132095  53.6860371
  37.6767063  81.2042427  52.8819656  38.5764337  82.1827793  53.6057997
  29.4976657  22.9254000  35.8189893  28.7623638  23.0340140  35.2158594
  30.2408546  23.3220809  35.3644967  54.5350108  51.5267295   1.2457413
  55.3157744  51.4493198   1.7940421  54.6616111  50.8758373   0.5554289
  83.6795847  14.5775931   8.4427208  83.3607761  15.0309985   7.6623297
  83.1933109  13.7532180   8.4561932   8.1693317  81.7023754  37.9222560
   8.6795379  80.8946323  37.8633475   7.5106956  81.6204834  37.2325277
  10.6987899   5.2015155  29.4705391  10.2701515   5.6830256  28.7629724
  10.2322095   5.4720729  30.2613211  59.0143967  79.7505474  14.4660187
  58.5291433  79.1294003  13.9229381  59.8557329  79.3228531  14.6255946
  21.0913634  67.4471903  58.1698942  21.3512421  67.8701162  57.3514652
  20.4082775  66.8277931  57.9130411  30.0175333  72.1048641  26.6201735
  30.5380702  72.8772020  26.8410134  30.6284046  71.5271187  26.1627030
  82.6784698  31.3894217  19.8919177  83.0576316  30.6052535  20.2888465
  83.4229175  31.8397372  19.4928598  45.3550053  75.3100729   7.5298947
  45.2686024  74.4894743   7.0447314  44.4540644  75.6013727   7.6701891
  77.5797741  18.1819670  44.0273523  77.2338955  17.6066439  43.3450079
  78.2032577  18.7469428  43.5709381  45.6897259  80.0951767  31.5167284
  44.7330379  80.1110458  31.4897394  45.9000635  79.8698092  32.4229312
  63.4377885  62.9568217  62.4752449  63.9646691  63.6130927  62.0192408
  63.3583987  62.2366069  61.8497663  73.3485119  18.3248656  26.5973568
  73.2557813  17.6228087  25.9533525  72.8648702  19.0603011  26.2212491
  67.3372809  11.3789790  54.7928143  67.7597467  10.7751792  54.1819286
  67.8588955  12.1796553  54.7374439  62.8733865  33.1648867  12.0364964
  62.1223871  33.6773913  12.3357809  62.6398746  32.8938334  11.1486709
  53.6097145  81.1366081  42.4379635  54.3318844  81.7369270  42.2527218
  53.2354069  81.4580822  43.2581949  40.9787130  55.4447651  25.5429292
  40.8753777  55.5711365  24.5997500  40.0851250  55.3410864  25.8700109
  33.1648731  48.4112406  34.4257021  34.0325809  48.2811785  34.8083210
  32.5781798  47.9003000  34.9833417  73.6444751  14.7363704  15.8483458
  73.1832592  14.6163600  16.6784739  74.2355196  13.9855521  15.7920074
  46.4061300  21.3397830  49.1385794  46.6460435  21.7024939  48.2858706
  46.9228772  20.5373614  49.2115116  24.5232415  39.8734736  17.4396133
  24.0186167  39.8187542  16.6280770  23.8624501  39.8889923  18.1319594
  62.6067988   6.9071334  39.5295095  61.7438285   6.4939063  39.5570397
  63.0645410   6.5569155  40.2937460  64.7421781  16.2124579  64.2911100
  65.6718485  15.9854357  64.3112659  64.3852393  15.6964534  63.5682249
  32.1090412  51.0280657  30.7333040  32.3434472  51.0187721  31.6613126
  31.2105560  51.3577175  30.7165074  75.0834769  42.7072929  65.9165689
  75.0741941  41.8000434  65.6115388  75.9628505  43.0216239  65.7064962
  48.9778471  67.9585409  13.0723202  48.4491491  68.6240816  13.5125113
  49.7710180  68.4220076  12.8034222  34.1855717  62.5482368   3.0753362
  33.3518887  63.0071545   2.9723909  34.4332552  62.2988939   2.1849918
  35.1580977  78.6010885  43.9761686  35.6459761  78.1700659  44.6778965
  34.4113660  78.0244827  43.8144588  80.6088249  20.0654071  20.7081485
  80.8239071  20.5000918  21.5333891  81.3042299  19.4183676  20.5899143
  54.2465019  80.9106445   2.1068484  54.4193983  81.8512821   2.1460073
  53.9394522  80.7605743   1.2127390  51.4558164  13.9355128  32.8663754
  51.5133564  14.0148680  31.9142079  52.3574726  13.7824195  33.1488824
  44.8891687  73.2317638   6.0067564  43.9817238  72.9425192   6.1022067
  45.3093386  72.5383091   5.4980224  30.1772316  46.5701411  70.7101472
  30.0699671  45.8150600  70.1317254  30.8479222  47.1043895  70.2847123
  65.2284185  24.6515219   6.0329920  65.7293693  24.4870799   6.8318897
  65.6274644  25.4362910   5.6573337  49.3119446  11.9677966  13.4724212
  49.2397372  12.7790301  12.9695141  49.7085539  11.3436930  12.8646123
  52.4528233  27.6628154  56.4242792  51.7224352  27.0703357  56.6024303
  52.0748536  28.3511489  55.8769417  62.0867697  55.8071349  61.5428095
  62.2186688  56.6863464  61.8975174  61.7344258  55.3032611  62.2764312
  55.9346485  48.7588549  53.1168842  55.0849915  48.7958288  52.6776218
  56.0800791  49.6507168  53.4325838   2.7130645   2.7159064   1.6335151
   3.3134883   3.4467261   1.7805593   3.0122941   2.3211615   0.8144495
  82.3663799   6.6323607  29.6360755  82.8664915   5.8175032  29.5897889
  81.4767257   6.3552516  29.8550558  41.7928600  68.0501604  21.2561631
  41.6880274  67.6541662  20.3910446  42.2601700  68.8688087  21.0898185
  59.3883125   0.2935546   1.7732657  59.2053501  -0.0723798   2.6386237
  58.5776655   0.1623671   1.2814611  43.5142326  68.0567455  37.5180340
  43.7531042  67.8904724  36.6061544  44.2607975  67.7354097  38.0236125
  38.0988884  76.8012762  62.6082945  38.6967015  77.4370670  62.2150803
  38.5354400  76.5295219  63.4156370  44.3899254   2.4307769  13.8006341
  43.8657502   2.6034301  13.0185461  43.7782160   2.0232337  14.4137859
   8.2289481  79.4784117  25.9569597   8.0393314  78.9891291  25.1564074
   7.4443555  80.0058460  26.1068153  16.1031103  68.6991453   6.0767806
  16.1088610  69.4162226   5.4427433  15.5611682  69.0208054   6.7972422
  55.1814739  23.4750502  25.7546520  55.0781480  23.5318797  26.7045593
  54.3960969  23.8941138  25.4027987  18.7900211  74.8927832  15.0792873
  18.6952545  74.8543072  16.0310078  19.6861221  74.5987034  14.9157357
  60.1467792  15.9074443  11.8800914  60.9562031  15.8786624  12.3902249
  59.8237483  16.8013041  11.9936693  34.6545053  69.7558546   6.7408174
  35.2392530  69.6019983   5.9987724  35.0504971  69.2680740   7.4629623
  66.8886518  74.9006414   6.5192026  66.1889601  75.5522442   6.5647876
  67.5406790  75.2897263   5.9363627  58.7902347  39.6849387   7.6946515
  59.7407405  39.7820800   7.6368862  58.6329095  39.3993991   8.5946232
  10.6530946   6.2917369  26.4907503  11.5467256   5.9742778  26.3608766
  10.7508844   7.0578711  27.0561647   1.2618621  58.0052112  59.8330837
   2.0131644  57.5039218  59.5160895   1.2487229  57.8460525  60.7768672
  68.9501516   2.1075862  39.6650434  69.6680538   1.5577166  39.3512154
  69.3337051   2.9811709  39.7423553  57.1273422  61.6513634  35.2490473
  57.1466303  60.8022356  35.6904531  56.2635469  61.6882086  34.8382783
  14.7882598  10.7134288  56.0805655  15.6293910  10.7833236  56.5320587
  14.7224134  11.5207045  55.5704737  27.5029087  78.3193064  33.5885739
  28.0308056  77.7962685  34.1918874  26.6371059  77.9118443  33.6128998
  70.9258230  10.1500864   7.8658051  70.5870946   9.3473167   7.4695010
  71.8686887  10.0019378   7.9385132  16.9011076  37.7128957  37.8542834
  16.0685213  37.4824928  38.2665329  16.6686495  37.9345916  36.9525938
  12.5705671  74.9169779  14.5522881  13.2564318  75.1924562  13.9440680
  12.4479187  75.6690645  15.1315606  22.7962208  62.3855925  30.1823735
  22.0397305  61.9131660  29.8348570  23.2977438  61.7207050  30.6542158
  62.1714775   3.9987796   1.0143055  62.1846239   3.9606040   0.0579574
  63.0297629   3.6678832   1.2790374  71.3415758  22.1131842  32.4538159
  70.7059137  21.6000598  32.9526806  71.5738765  21.5525477  31.7135811
  61.6472864  54.5467424   9.4178575  61.0656309  55.1890993   9.0113074
  61.1578035  53.7248802   9.3835270   2.5028699   0.4197638  43.9123154
   3.1327337  -0.2372224  43.6158848   1.7759603   0.3510993  43.2933521
  34.9712825  75.9903145  11.9829619  34.2389321  76.3144159  12.5072300
  34.9197698  76.4872646  11.1664963  82.2229916   0.6964420  57.4379163
  83.0734831   0.8916114  57.0444637  82.1340353   1.3352464  58.1451958
  27.3271896  78.4003973  58.0000639  26.3823654  78.5505676  58.0314827
  27.6875450  79.0052700  58.6485291  14.7254896  71.6621351  37.1673107
  15.4921174  72.1512556  37.4661040  14.9275088  70.7498550  37.3750734
  16.6319664  54.3813537  68.9581788  17.1887787  54.1284774  69.6945510
  16.5061530  53.5713981  68.4638276  17.4910796  73.9683771  21.3629389
  17.4403667  73.0429840  21.6023421  16.5791261  74.2571068  21.3281822
  72.2831241  33.1355136  24.1409421  71.4306490  32.7137797  24.0329528
  72.0764867  34.0180247  24.4486761  69.7112505  35.1533454  64.4337606
  70.4783098  35.0889437  65.0027084  69.8280183  34.4510882  63.7938881
  31.8876934  60.8141327  35.8784032  32.5373983  60.1517391  35.6431413
  31.0447288  60.3801823  35.7467675  83.0585233   0.8442538  25.0054145
  83.9124815   0.6484168  24.6198869  82.5943653   0.0071566  24.9971843
  60.1064793   0.4760115  47.6664782  60.2517764   0.9265654  48.4984112
  59.2512051   0.0580256  47.7666426  62.8865385  65.2903986  39.0418577
  63.1153727  64.5656157  38.4599972  61.9326687  65.2502298  39.1107631
  61.8252865  25.6162589  53.2366896  62.6972787  25.8207362  53.5744047
  61.6990677  24.6904128  53.4443140  56.5708629  11.8613570  27.2573471
  57.0598737  12.4064677  26.6409469  55.8753816  12.4327986  27.5828981
  79.3744850  72.5703812  12.3528290  79.2417288  72.2887135  11.4476919
  78.5110855  72.8671551  12.6403987   5.7524627  67.8656340  46.6419935
   6.6917580  68.0498075  46.6479731   5.4486597  68.1976700  45.7971907
  65.8293501  14.0128653   7.7709353  65.9679929  13.5104983   8.5738313
  66.7107264  14.2447036   7.4782592  31.9775241   6.7129557  19.7706962
  31.2502330   7.0311587  19.2358887  31.5698474   6.4446109  20.5941176
  64.2540065  13.8768523  11.7449105  63.5206286  14.0804045  11.1644304
  64.9472753  14.4792502  11.4752173  83.7722675   4.7069304  16.7837274
  83.9961712   5.5790370  16.4588726  84.3788520   4.1201060  16.3321435
  31.4896679  77.0070839   5.8596396  32.1652603  76.6126442   6.4112020
  31.2468696  76.3139868   5.2457213  84.1179172   4.9779551  55.2941418
  83.6660902   4.2402213  55.7038069  85.0438921   4.8269885  55.4839230
  17.3603559  81.2756062  33.8066721  16.7649746  80.7121372  33.3124542
  17.8194702  81.7838573  33.1379962  28.0393799  52.8368495  68.5463008
  27.1530589  53.0847285  68.2831981  28.0156096  52.8426097  69.5031881
  23.8515910  62.7604888  69.4085928  24.1481551  61.9050430  69.7192191
  24.0778645  63.3639262  70.1163334  23.8702941  77.9159212  52.3864555
  24.6828818  78.1478977  52.8360319  23.8392043  78.5020065  51.6302967
  37.3869324  63.8277769  24.5380044  38.3159828  63.7851000  24.7644424
  37.0035839  64.3966341  25.2055979   5.9994930  25.8506243  22.9918671
   5.8300823  26.5128749  22.3218203   5.2742237  25.9438651  23.6095452
  69.0571252  11.3235038  22.5086188  69.3036787  10.7458632  23.2309532
  69.6929828  11.1303275  21.8197083  16.3094324   7.9527800  19.2744851
  15.7611173   8.3300441  19.9624205  15.9319013   7.0878260  19.1146600
  74.4775907   4.3190615  32.0274854  74.6248619   4.6813815  31.1538363
  74.0200893   5.0138800  32.5009394  44.7653913  74.3450832  15.1843870
  44.8653936  73.3996773  15.0728726  44.1884422  74.4371223  15.9426010
  85.2359192  23.6768191  27.0030165  86.0742370  23.9843123  27.3478389
  85.2386943  23.9518206  26.0861754  66.9936768  17.1224063   8.0323941
  67.6231758  16.4013617   8.0253536  67.3069708  17.7071421   8.7224424
  26.8639466  17.5194018  35.8501768  27.6457704  17.7052634  36.3702154
  27.1806392  16.9790499  35.1263261  39.4922137  70.2186680  58.0874872
  39.2231607  71.0599661  57.7186155  39.7056866  69.6802807  57.3253822
  64.2707864   0.7357543  47.4083662  64.7624318   1.3727801  46.8899870
  63.4488241   0.6219714  46.9312286  65.2743403  18.0141585  18.4948635
  64.3567602  17.8031867  18.6674023  65.6699006  17.1783011  18.2476878
  76.2939874  29.4806617  69.0460348  75.5328123  29.5640128  68.4716702
  75.9537117  29.6610873  69.9223280  77.9200451   9.0039199  48.8670254
  78.1794635   8.1525462  49.2193079  78.7469284   9.4576590  48.7038898
  52.2158241  71.1584997  39.4114637  52.0864630  71.6465282  38.5982442
  52.5380516  71.8107414  40.0335455  12.8471041  72.3176336  39.0601134
  13.3527434  72.1972275  38.2563329  13.3527470  71.8602514  39.7319460
  84.7172920  41.4985030  47.7947760  84.2413417  40.8035414  48.2494545
  85.1476614  41.9909423  48.4937191   9.7994894  50.7540839  10.7063925
   9.3765777  49.9403708  10.9807193   9.7792333  51.3091700  11.4859426
  45.2279472  80.4253101   4.2030865  45.5734253  80.0266933   3.4043467
  45.9759855  80.4534054   4.7996432  86.6548196  15.4161399  40.7187891
  86.5108911  14.4812625  40.5720901  86.6459457  15.8003085  39.8421097
  18.7106287  60.1335335  22.4887180  18.1764781  60.9234524  22.5720358
  19.4356322  60.2692032  23.0987978  21.4623356  65.1386881  17.4985898
  22.3722935  65.0453663  17.2166324  21.1746311  64.2438221  17.6793563
   6.8526834   8.7580912  70.3958988   6.9473070   9.6113723  69.9725866
   6.2975305   8.9284652  71.1568260  79.8760366  78.3266258  30.5405784
  79.3779278  77.6456976  30.0884104  80.5764294  78.5564470  29.9299550
  35.2656100   4.2048781  22.9590535  34.8287264   4.0854304  23.8023186
  35.3469578   5.1538413  22.8637457  69.4156162  20.6583064  16.3477695
  70.1961414  20.2036231  16.6644311  68.6919252  20.2528231  16.8253517
   7.4240917  22.1436541  27.7796388   8.0310577  22.7415412  28.2159352
   6.9501394  22.6954119  27.1574140  39.9170289   1.9226951   8.9515061
  40.3891645   1.0907430   8.9857812  40.0202499   2.2195930   8.0473895
  85.9803621  11.2482493  29.4023466  86.5091125  12.0054572  29.1507626
  86.3835374  10.5114119  28.9432693  53.5047245  53.6925364  59.4852114
  52.6578474  53.3817911  59.8053169  53.6355066  54.5306873  59.9286366
  80.6274406  31.1385958   9.5882267  80.3394643  31.2556498  10.4935431
  80.0193874  30.4948371   9.2248046   1.9655221  30.0014918  29.5276117
   2.5214284  29.8342459  28.7665391   2.4063009  30.7111590  29.9948525
   5.5075343  35.4591249  45.6632619   5.3546008  35.8190702  44.7896009
   4.8592146  35.8930133  46.2179261  83.8595144  15.4187243  37.3865438
  83.6727564  16.2738269  36.9990611  83.0621187  14.9099486  37.2397590
  45.7644558  50.9848547   0.4101777  46.2174845  51.8143463   0.2587393
  45.8806229  50.8157110   1.3451260  36.0581058  14.5684951  22.5847769
  36.6942161  14.5637553  21.8695378  36.5852970  14.4505923  23.3749652
  54.2075491  70.0475597  64.9599266  54.8163509  70.7758379  64.8366499
  53.8856983  69.8528242  64.0797424   4.5834297  41.2615626  52.3858023
   3.9970678  41.6019290  53.0614948   4.0329021  41.1869853  51.6063213
  74.8197214  25.0474208  23.3626533  74.9364225  24.1548960  23.0370474
  74.2837326  25.4773276  22.6962280   4.9636604  70.1387072  21.7527676
   5.8711483  70.4176188  21.6306186   4.5249893  70.9054565  22.1214008
  43.6376194  39.3377440  68.6625195  43.2338504  40.0172179  69.2024374
  44.5614711  39.3505614  68.9126492  35.9854190  12.7033179  57.2399044
  36.6070948  12.8812258  57.9456663  35.3531096  12.0965808  57.6249886
  45.9401894  74.1649103  29.0980244  46.3096809  74.8244524  28.5109019
  46.4955711  73.3953142  28.9735031  66.7970133  71.9684076  32.4178195
  67.0839453  72.8803110  32.3695564  66.5124655  71.8545246  33.3246255
  30.0689173  70.2974033  37.8359175  31.0223937  70.2809763  37.7532005
  29.7487020  70.1405239  36.9476151  58.0520725  77.8022099  27.6981258
  58.2006264  77.4299955  28.5673904  58.3051014  77.1052885  27.0927238
  32.4059407   4.4489329  56.1754274  31.7769972   3.7298720  56.2355232
  33.2511870   4.0448611  56.3716698  33.8228835  47.9838031   7.9296392
  33.9913646  47.9646151   8.8717002  34.5299534  47.4626868   7.5492132
  74.5543567  37.6872199  58.2723999  73.9547722  36.9473975  58.1754732
  74.2120067  38.3527415  57.6756477  61.0894434  15.2190535  52.0575523
  61.0902540  14.8604434  52.9450369  62.0099727  15.4068415  51.8742657
  78.3528988  31.3532202  43.2117271  78.4505598  32.2668212  42.9433537
  77.5511686  31.0606616  42.7782917  35.3356776  14.9754114   5.1955266
  35.7331834  14.1176624   5.0455517  35.0162301  15.2452011   4.3344826
  74.5495550   2.4415438  49.7126770  74.7937481   1.5247481  49.8394966
  75.2047912   2.7818721  49.1035223   9.2721933  13.6873286  24.3209743
   9.5318216  12.7689879  24.3950629   9.9046606  14.1594737  24.8625374
  44.5228767  25.5682516  11.1228490  45.0815201  24.7970676  11.2199485
  45.1268196  26.2738919  10.8914280  29.8922928  29.8286222  41.2646418
  30.6223353  30.4099630  41.0517769  29.4947632  30.2185510  42.0432024
  44.8413134  64.5908308  10.5402601  44.8979282  65.3923416  10.0200582
  44.1650248  64.7755527  11.1919820  61.4983980  28.2015746  25.7612920
  62.2135584  27.6019709  25.5485749  60.8786837  27.6682227  26.2590027
  65.7934038  15.0022738  46.9219065  65.3106920  14.8601573  46.1076450
  66.7129461  14.9013846  46.6759491  40.3501272  79.9164724   7.1665150
  40.9526348  79.3501234   6.6843677  39.7302532  80.2246284   6.5054315
  72.8955221  80.2935410  19.6897674  72.2220612  80.1780701  20.3601074
  72.6433086  81.0957718  19.2325604  78.7285225  17.4447863  29.7053981
  79.0937988  18.0166667  29.0303040  79.2800562  17.5973933  30.4726982
  76.5605775  19.4553893  20.3341794  77.1554510  19.2892592  19.6029091
  76.1193506  18.6183684  20.4789186  21.9008660  64.5030594  35.7687187
  21.9626093  64.9391222  34.9188542  22.1997499  63.6092138  35.6015658
  19.9335521   6.1158126   4.5525450  20.5105585   5.5254309   5.0370431
  19.3353361   6.4626448   5.2144217   8.3503354  61.4811087  59.4388676
   8.9672047  61.6146278  58.7192297   7.6801109  60.9022951  59.0755415
   6.5066570  24.4688361  46.7744970   6.3595146  25.4062407  46.9004536
   6.0567277  24.2637675  45.9548998  65.0117890   9.7312587  37.0590591
  64.2931978   9.3384688  36.5634990  64.8456828  10.6729548  37.0161462
  12.8382486  14.8059886  20.4095411  12.7868074  13.8669245  20.5876780
  13.7752098  15.0013297  20.4228616  76.6345119  67.6409817  14.8176324
  77.4980688  67.7047825  15.2255929  76.0335541  67.9970694  15.4720640
  53.1425714  74.7581196   9.4820201  53.4616280  74.3412399  10.2824259
  53.0708885  75.6856728   9.7072673  73.9614193  14.7575801   8.0393964
  73.7258855  15.0469821   8.9208722  74.4437925  15.4952281   7.6660138
  75.0479023  24.6506827  30.6147909  75.5233328  25.4750006  30.5114007
  75.5041210  24.0371936  30.0388312  81.9198362  19.4788687  35.4246616
  82.5230209  18.7627070  35.6234550  82.1359340  19.7318785  34.5271540
  71.7503595  80.8460236  36.6561079  72.3703480  80.1314068  36.8015981
  70.8904600  80.4490089  36.7946362  51.8756056  75.0518703  23.2189226
  51.0680389  74.5432377  23.1457090  51.7023277  75.6763315  23.9233780
  28.0636066  19.1049998  24.1573381  27.4468654  19.2816966  24.8677158
  28.9266723  19.2063182  24.5587087  86.1181347  16.3133471  16.0744035
  85.2161781  15.9967559  16.1241126  86.2449733  16.5311473  15.1509833
  50.8710814  79.6290731  28.4117413  49.9836349  79.3394566  28.2000971
  51.3275194  78.8298607  28.6747336  78.0510209  70.0809002  16.7706549
  77.9476283  70.7095766  17.4850118  77.1558253  69.8740435  16.5022027
  37.2308230  31.9091669  66.9926947  36.9192863  31.0117594  66.8750816
  36.5099287  32.4558512  66.6801616  81.2839643  31.6185229  34.6601510
  81.6819326  32.4155276  34.3099594  80.7138483  31.3067286  33.9573073
  21.2272534  45.2559871  17.8145690  20.3283105  44.9811763  17.6339716
  21.3290534  46.0754127  17.3304171  45.0053215  61.3316202  41.6900301
  44.9632740  62.0515442  42.3194551  44.2218590  61.4389563  41.1506844
  51.9704533  59.4042969  29.3520641  51.8848944  60.3576517  29.3571591
  52.8794193  59.2440367  29.6056914   7.2659200  20.8678096  44.7125912
   6.6447538  20.5546325  45.3700876   7.1595233  20.2653544  43.9764214
  85.4131919  22.2970937  50.2297693  85.3147775  22.8108190  49.4281226
  84.9609572  22.8097270  50.8997875  46.9453637   1.5747683  22.6914668
  46.5658716   2.4150317  22.4342108  46.1962334   0.9819453  22.7514124
  26.8869823  20.1744693  26.5267491  27.6877254  20.5829375  26.8557072
  26.3502067  20.9077113  26.2259793  85.6665174  13.5740035  48.5055208
  85.7380859  12.9312461  47.7998495  86.4762584  13.4717982  49.0056276
  69.7889185  72.1572781   9.6761054  70.0176191  72.4528742   8.7948835
  69.0015078  72.6540089   9.8985380  48.8270418   3.0628054  24.3260217
  48.3848313   2.3235743  23.9086318  49.2182509   3.5488074  23.6000776
  59.2108822  76.1136866  30.0173283  60.0838375  75.7229853  30.0564742
  58.6458826  75.4068136  29.7053337  66.6479055   9.7534983  56.7835617
  66.7772905  10.3584712  56.0531521  65.6995408   9.6318381  56.8286848
  21.3198981  55.7930488  17.0939440  21.8731055  56.2440605  16.4561553
  20.4252086  55.9964962  16.8212409  76.0337059  54.6190779  42.2595596
  75.1036159  54.3943923  42.2335768  76.0635511  55.4639762  42.7084398
  23.3954376   0.4747622  35.5568600  23.8242095  -0.3806455  35.5826306
  22.4615234   0.2729266  35.4994202   5.5539401  29.2737697  63.8681131
   5.6164773  28.5466359  64.4874649   6.3748821  29.2413161  63.3769565
  86.3349048  55.8862441  18.0903184  86.3087503  55.9756224  17.1376598
  85.4173748  55.7961409  18.3477068  37.8001356  78.0334234   6.5211129
  37.3069739  77.2296524   6.3568681  37.6654959  78.2110453   7.4520022
  68.1720749  11.8028586  26.3076091  67.8671877  12.7016394  26.1832714
  67.7695147  11.5250438  27.1304107   2.2357323  67.6961374  26.1675024
   2.1644546  67.1403551  25.3914499   1.4921715  67.4412489  26.7137551
  62.8940789  13.9895385  24.2849159  63.7478153  13.6759036  23.9865994
  62.8638784  13.7558787  25.2126694   3.0709793  50.6563711   6.0300648
   2.3091270  51.1881351   5.7997578   2.7675106  49.7527409   5.9429467
  48.4917618   1.6272414   3.0675978  48.5260607   1.8133032   2.1292824
  47.5602318   1.6626799   3.2849116  17.5353187  43.1002658  28.6940455
  17.5321430  43.7740271  28.0141449  16.6395753  43.0962794  29.0314770
  76.2410585  27.7637999  39.2631030  75.5629961  27.5766223  38.6139274
  77.0331756  27.9113143  38.7463617   6.2159723  16.9918578  28.5127831
   5.2876276  16.8803828  28.3078837   6.3680452  17.9333155  28.4304810
   8.9565891  31.7643111  50.2311325   8.9481204  30.8310454  50.0185919
   9.8454946  32.0499366  50.0201845  12.4252200  11.6009152  47.8627777
  12.9089355  11.8143952  48.6606979  11.9570088  10.7935476  48.0752993
  48.5761386  62.1346230  22.6320076  48.5366917  61.2025935  22.4175382
  48.8038725  62.5610704  21.8058658  31.8910003  29.2190194  28.6375117
  31.1630440  28.6787510  28.9447904  32.5190330  29.2079544  29.3597889
  85.6029785  26.7769861  34.4809413  85.4690843  27.7202344  34.3882775
  85.5652775  26.4406204  33.5855818  37.8052664  13.5895491  35.3429103
  38.0655861  14.0328097  36.1503649  36.8633890  13.7466323  35.2764058
  26.8889856   9.8203135   9.7593653  27.0942545   8.8936132   9.8831505
  26.3623667   9.8443383   8.9604115  62.1359590  78.6637525  31.7632103
  61.8129421  79.1336388  30.9943819  61.4135418  78.7045453  32.3898530
   3.0001548  10.4614460  35.4685831   2.1999416   9.9601400  35.6253719
   3.5599369  10.2597213  36.2183714  63.1858194  62.4202091  35.6198335
  62.6316738  62.2194142  36.3740444  62.6578802  63.0140013  35.0860500
   2.9743989  57.1364624  20.6874847   2.4652632  57.0322640  19.8836470
   2.4178894  57.6685149  21.2562084  16.2703562  40.3927231  38.8202047
  16.8245184  39.6299648  38.6548662  15.9475517  40.6462097  37.9554677
   2.2595127  78.5633657  22.1497679   1.7129453  78.0899746  21.5225554
   1.7697461  79.3639896  22.3378134  35.6132817  23.6345768  15.8220971
  36.5371966  23.4129047  15.9381783  35.1831079  23.2843685  16.6021836
   2.3820114  18.4419012  11.7081237   2.7375415  17.5746047  11.5141451
   1.6160935  18.5194945  11.1392808  19.0406561  14.3362927  46.6847372
  19.2595017  15.1923919  46.3167238  18.5561752  13.8929808  45.9883261
   3.5793766  14.9422944  19.5720541   2.7668932  14.5546019  19.8973191
   4.2278692  14.7405028  20.2465701  67.4435050  78.0788363  35.0098467
  67.3307872  77.1979512  35.3670144  67.6830703  77.9371066  34.0940142
  25.3826046  20.9817719  17.7970552  25.3816581  20.1452732  18.2623506
  24.6325016  20.9273291  17.2049284  64.3069194  34.5182371  19.9684417
  64.1753052  34.0505028  20.7931447  64.7518800  35.3274131  20.2203894
  15.7936454  33.5891271  41.4967728  16.3132083  32.8107572  41.6978312
  14.9348748  33.4092689  41.8793869  23.4560585  14.2612243   7.1946990
  24.1185641  13.6412477   6.8898237  23.9465833  14.9020660   7.7094233
  69.0656946   8.8500643  23.6475492  68.5779117   8.1030190  23.3008170
  69.9751471   8.5524124  23.6706352  14.0239537  24.5996165   2.6237205
  14.8024797  24.9830246   2.2198310  13.4447193  25.3449631   2.7823889
  80.4592268  13.7157619  42.4503946  80.7078252  13.5346282  43.3568287
  80.5889986  14.6588302  42.3503304   0.4364670  33.2030606  37.7130651
   1.0448104  33.0142689  36.9985652  -0.2871652  32.5908780  37.5795698
  70.2913314  78.7616057  30.9206295  69.6910662  79.2031089  30.3198051
  70.5531997  79.4421805  31.5406895  78.0072052  80.5896692  20.7711673
  78.7203247  80.1572324  20.3013921  78.2564336  81.5137192  20.7869172
  15.7315123  25.9155202  18.6968529  15.8034551  25.7122517  19.6294510
  16.0229015  25.1181102  18.2547414  67.4410715  43.9889579  62.3904925
  68.1601109  44.5211380  62.0499026  67.5858917  43.1211647  62.0134049
  16.0516691   3.8487053  22.2269797  16.1141276   3.1478459  22.8759217
  16.3495052   4.6314818  22.6904297  35.5642587  79.9713088  18.7989593
  35.3769690  79.4418281  19.5740747  35.0863868  79.5380394  18.0917478
  76.0005039  73.8164360  16.7656493  75.3271193  74.4934715  16.8320441
  76.7594213  74.2687584  16.3973010  62.7947802  80.7207829  22.5693989
  62.3626313  81.5136898  22.8868532  62.1402055  80.2972106  22.0141053
  18.1319714  18.6986446  48.4027386  18.6645091  19.2185378  47.8007889
  17.4306917  18.3435667  47.8565168  74.3901760  70.4837019  57.6020813
  73.6625940  70.9265609  57.1653509  74.6011633  71.0469634  58.3466959
  41.3898971  64.3984394  60.7327383  42.3410847  64.4524270  60.6402247
  41.0722568  65.2541118  60.4443579   4.1940242   6.9580632  28.0906510
   3.5313240   6.8887222  28.7778568   3.9964032   6.2364221  27.4936485
  17.2888231   0.4099248  13.3916771  18.0306768   0.8215854  12.9484820
  17.4745619  -0.5280929  13.3485961  85.8381000  20.3447747  11.9308698
  86.6447638  20.7889414  12.1921015  86.1273737  19.6535885  11.3352060
   5.7188052  28.2584715  20.9836936   5.4222798  28.6475968  20.1609612
   5.2212727  28.7189412  21.6594577  85.4538131   6.6189998  66.8865347
  85.6726805   5.9763598  66.2117481  84.5707650   6.3796002  67.1678638
  29.0088558  25.4526997  26.7722511  29.0832400  25.0672483  25.8992529
  28.2858443  26.0756016  26.6982341   2.1397511  63.4196692  46.5185004
   2.8722207  63.9689928  46.2392860   2.4715773  62.9482656  47.2826367
  25.1940846  13.3186555  48.6296797  26.0984659  13.6200726  48.7161350
  25.2699018  12.3804390  48.4558058   2.8943965  39.0644813   9.4380260
   2.3289719  38.7253404  10.1319361   2.4843170  38.7644196   8.6268353
  73.8996949  47.2917729  66.5484916  73.0085959  47.1198802  66.8528410
  73.8627114  48.1773566  66.1870979  27.2112060  24.5115137   5.0120705
  27.8362727  23.8172007   4.8036104  26.3555598  24.0847564   4.9675962
  40.3570223  41.9164705   8.5242021  40.4236889  42.7336121   8.0301732
  39.4386315  41.6600704   8.4402335  64.7586558  24.5373178  13.4034443
  65.0108526  24.1039753  14.2188227  65.3099297  24.1300082  12.7352929
  79.2199342  40.0579786  17.2302580  80.1080869  39.9187136  16.9015908
  78.8990007  40.8147860  16.7398715  50.5684962  60.3606527  50.6259709
  51.1212578  60.9383493  50.0997072  49.9552097  60.9502678  51.0646837
  50.1137972  39.1894770  18.9463544  49.3051720  38.6779857  18.9734471
  50.3198385  39.2626047  18.0144572  41.1311740   9.3784831  35.7151370
  41.6655332   8.5853885  35.7562595  41.4108819   9.8951886  36.4707880
  36.2540627  12.4052560  17.6116562  36.0715008  12.3670673  18.5505080
  36.1516428  13.3296132  17.3851466  12.6655388  21.9972587  11.4125788
  12.8539836  21.4309216  10.6642604  11.9191658  21.5823364  11.8450117
  57.5449800  14.5506322  19.4873476  57.8574991  15.0119305  20.2656603
  57.9675150  13.6928749  19.5315111  85.4863025   7.9891968  24.3599105
  84.5800619   8.2887250  24.4323158  85.9745964   8.5570574  24.9560094
  16.1640108  44.1246939  11.3216937  17.0705616  44.0276957  11.0301673
  16.1316931  43.6648941  12.1606052  14.3662512  42.2117710  27.8386426
  14.8970282  41.4508343  27.6031041  13.4713197  41.9590330  27.6118135
  65.5522655  29.3262291  18.1532109  66.2421320  29.9693036  18.3168268
  65.7372235  28.9948893  17.2744417  39.2977524  48.9685059  10.6101406
  39.2244315  48.0381680  10.8230364  39.3563390  49.4048166  11.4600992
  49.9679985  78.5378485  43.2073336  50.7279649  79.0887790  43.3948331
  49.7465720  78.7367683  42.2975879  16.6436386   1.1814693   5.3548491
  15.9427834   0.8714850   4.7813123  16.9827998   1.9626747   4.9179053
  79.6026312  49.5072794  24.4775438  80.1660137  49.6030807  23.7096524
  78.8375662  50.0483751  24.2822981  23.7982693  57.9537707  67.5241163
  23.2422670  57.1763974  67.5768786  24.6869912  57.6075559  67.4432381
  16.2193286  29.9120903  21.0106492  15.6887090  29.4307947  21.6454959
  15.6273389  30.0714564  20.2755427  45.4430106  71.4374857  61.4044415
  46.0612013  71.6690712  62.0975798  45.6525865  70.5283385  61.1905252
  20.5421027  79.0468816  35.2733731  20.2721079  79.9120986  34.9655867
  19.7541388  78.6779724  35.6724310  45.2344527  47.5998919  68.3669928
  45.5187073  47.2175436  69.1971978  44.2852189  47.6857578  68.4553980
  59.3979599  16.6565107  55.4704290  59.3062204  17.6091121  55.4512542
  59.0197900  16.3963340  56.3103848  84.7860993  25.0720382  19.0200901
  84.1936354  24.3483114  18.8165259  84.8214344  25.0908923  19.9764526
   5.7384666   5.5584977  63.7546086   6.5656575   5.7990859  63.3373540
   5.4081305   6.3783715  64.1219216  76.0500823  22.8595591  38.9640880
  75.4396258  23.4935236  38.5877037  76.4921759  23.3394313  39.6644497
  79.6760271  61.2324381   4.9486631  79.0019963  61.5023136   4.3249005
  80.4366724  61.7694044   4.7265863  19.9371958  61.8296671   9.0062088
  20.8113742  61.4628363   8.8740015  20.0718141  62.7773428   9.0009528
  34.8373914   5.6681859  15.5850804  35.3742909   6.2850463  16.0825276
  35.0093603   4.8189053  15.9917510  13.5988677  29.6437788  40.7171869
  13.1013644  29.1345263  40.0773573  13.9393413  28.9917660  41.3297176
  30.4071331  46.2275171  44.7505426  30.1398325  46.2120724  45.6695366
  31.3408065  46.0174179  44.7691107  30.6727722  62.4020796  63.7741046
  29.7635919  62.3677402  64.0715002  30.6794026  63.0837851  63.1021934
  49.1940274  53.6858623  55.4901355  48.9738145  53.6845069  54.5586114
  50.1383223  53.8408678  55.5127900  20.3022408  44.9037123  23.7761283
  21.0354805  44.5185041  23.2963324  20.4983974  44.7264051  24.6960831
  23.8369966  33.3546710  11.7636383  24.2211723  34.0808010  12.2549379
  24.5894504  32.8776050  11.4137018  38.4863427  68.8973265  46.7974477
  38.1893649  69.1001110  45.9103661  39.3387403  68.4794097  46.6749912
  79.1619062  18.6403394  13.8690615  79.2611885  19.0046263  12.9894757
  78.2181263  18.5190248  13.9729369  61.1084285  79.0408068  57.7744036
  61.6776624  78.8570910  58.5217028  60.4698100  78.3277994  57.7787834
  53.3430805  40.9682050  67.1186440  54.1268434  40.5761224  66.7336502
  53.4346666  41.9052874  66.9462477  28.6800647   7.7883500  49.2019987
  28.2572389   8.3934861  49.8113108  28.0466628   7.0794463  49.0902424
  42.0876740  12.9795563  47.1400309  42.8881357  13.4391415  47.3935556
  42.3528336  12.4226832  46.4080334  21.0523939  52.4867582   6.0186750
  21.0557652  53.4206438   5.8087438  21.5586638  52.0812082   5.3147912
  22.7535701  30.5479789  25.1629806  22.8590679  31.4883494  25.3072214
  22.2755027  30.2397275  25.9328270  20.2590227  62.6654387  17.5941026
  20.3706455  61.8656874  17.0801318  19.7534370  62.3900843  18.3588207
  85.9051544  38.3223985  51.6018873  86.0440165  37.5528167  52.1538740
  86.3009936  38.0893825  50.7620984  24.4065309  15.1938725  34.0762639
  24.1627502  14.2958558  33.8518310  24.1459131  15.7104850  33.3137536
  74.4306292  56.7375248  52.2439390  75.0479331  56.1550634  52.6865523
  73.8087096  56.9904595  52.9261952  41.5684694   1.8778632  68.5939773
  42.0558471   1.7648814  67.7779322  41.0624308   1.0704158  68.6844809
   3.1618428  32.1007442  40.1507235   2.2191209  32.1949935  40.2871943
   3.5582420  32.6176286  40.8520985  19.3213606  13.6264503  14.9698043
  19.2940152  12.6735377  15.0560665  19.5485318  13.9397717  15.8452785
  22.0068526   9.5560551   8.0700845  21.9038343  10.4872012   7.8736532
  22.3720026   9.1811651   7.2686130  20.1656961  54.3485975  20.0363040
  20.1648474  54.7884989  20.8864331  20.9902501  54.6149635  19.6296191
  61.3039126  47.7988958  42.5886708  60.4762330  47.8427290  42.1098667
  61.2791099  46.9513165  43.0327731  43.2901313  80.1044231  68.0004578
  43.1052878  79.1988330  67.7515145  42.5123837  80.3835159  68.4836214
  78.2325155   5.8113311  66.8155264  78.9623434   5.9746288  67.4129533
  78.1040961   6.6439317  66.3610839  21.0649228  32.0630956  38.9128590
  21.1036205  32.8294134  38.3405876  21.9811296  31.8496132  39.0895581
  12.3380768  23.2790041   7.9096228  12.9282892  22.6541495   8.3308572
  12.3106778  23.0025268   6.9936305   1.5342912  38.6827302  20.1903939
   2.2383559  39.2742920  20.4560614   1.9830608  37.9522514  19.7646725
   2.9777086  46.4356422   0.4475482   3.3914942  46.1698246  -0.3736425
   2.4309967  47.1842384   0.2089293  20.7201433  29.1325355  39.1595268
  21.5027809  28.9960003  38.6256075  20.6014800  30.0822687  39.1721082
  28.8585162  27.9031992  33.8862538  28.8233972  28.2273173  32.9862833
  29.7897673  27.7560830  34.0516734  19.5419824  36.1150002  25.9768414
  19.7881949  35.9021306  25.0766754  19.8854280  35.3887177  26.4972186
  84.0786583  76.7273996  37.5141382  83.5891038  76.1740614  38.1227326
  84.9967724  76.5174473  37.6850748  38.3767390  30.2496004  20.6574631
  38.6590600  29.9258709  19.8020542  38.0465412  31.1309338  20.4829574
  18.1268978   3.0194989  40.1989126  18.2664001   3.1316826  41.1392260
  18.7098455   3.6605412  39.7921348  25.4324961   0.9827648  24.3702149
  25.7613540   1.5121272  23.6436749  24.5141506   0.8222692  24.1531515
  39.0566444  31.0828924   1.2537390  39.1554117  32.0329928   1.3152762
  38.1518102  30.9540749   0.9692857  54.3272319  53.3971410  39.9641304
  54.5705690  54.2515235  40.3205710  53.4048738  53.2938283  40.1982551
  40.5308342  18.0424428   4.7179875  39.9379849  17.6293993   5.3458095
  41.3958025  17.7011156   4.9450433  18.0423415  35.2342248   5.5088288
  17.6170015  34.9218488   6.3074148  18.2599366  34.4370008   5.0257981
  27.7991724  42.7046776   2.2235569  28.7226748  42.5025558   2.3736289
  27.8114510  43.5028124   1.6952920  45.3044415   5.4351526  29.7617579
  44.6222067   5.4714859  30.4321814  44.8476315   5.6330645  28.9442086
   6.4021969  51.4948702  28.3406472   6.3097858  50.5663633  28.1271958
   5.7432216  51.9314623  27.8008580  64.3959401   4.1939783  38.1012297
  64.0382836   3.5604236  37.4791980  63.6652611   4.3938208  38.6863804
  32.7612829  70.2402115  37.1743631  32.8810906  69.3046570  37.0112205
  33.2553506  70.4086208  37.9767156  21.5290189  57.8486300  12.6238966
  21.0962987  57.3577929  13.3225095  22.3090696  58.2176208  13.0381429
  57.8545475   3.2866731  57.0708609  58.5238218   2.9816565  56.4582682
  57.9568768   4.2383096  57.0830727  12.1515524   4.7706240  19.0041256
  12.5854373   3.9686310  19.2953014  11.9310367   4.6044350  18.0876184
   7.7036500  22.5963354  53.6124372   8.5396743  22.5404811  54.0752268
   7.8317434  22.0714450  52.8223038  31.8972401   5.7344764  12.5435293
  32.4773733   5.0549929  12.2000408  32.3472697   6.0625689  13.3220291
  85.1144145  25.8379078  31.5510964  85.5795786  25.1971912  31.0131955
  84.1888432  25.6274390  31.4275932  29.2441225  28.0794406  16.7061424
  29.4715095  28.4576392  17.5555491  28.2947183  27.9629898  16.7422414
  20.5908275  15.6071639   9.6633744  19.7471976  15.6321371  10.1149249
  21.1548018  15.0894594  10.2379584  22.0507868  70.5614788  12.1346700
  21.2746724  70.4233963  12.6776361  22.6780470  69.9073322  12.4426794
  51.0141546  70.4982514  34.8720932  51.8528974  70.7410760  35.2642393
  51.2496794  70.0681157  34.0500569  15.3828549  43.7099838   0.5609366
  14.5459223  43.5946655   1.0109105  15.3235352  43.1392002  -0.2051722
  62.9838679  61.4844084  28.6678839  63.2796000  62.3695993  28.4552646
  63.6771296  61.1270905  29.2228103  24.8445868  17.4179101   1.6718417
  24.5447326  16.9134176   0.9156627  24.6276498  16.8703258   2.4263754
  24.1199827   9.9142629  45.4084921  25.0400758  10.1746869  45.3655815
  23.7363243  10.4973447  46.0635138  80.7041387  66.4104414  32.3069978
  80.9752772  67.2923803  32.5617552  81.4997695  66.0056925  31.9614840
  39.2446852  31.7839670  27.4301720  38.4220672  31.4836764  27.8166413
  39.8603106  31.0690570  27.5918484  51.6910440  67.6392395  21.5584993
  51.9099939  67.6558668  22.4901724  52.5302041  67.5064261  21.1175871
   8.6015153  40.5430365  38.8351011   8.8329691  39.6966481  38.4526229
   8.1338191  41.0014725  38.1370115  37.1497750  18.1749773  18.6487508
  37.8167939  17.6107979  18.2575762  37.4398232  19.0644753  18.4465206
  22.0021918  67.2939544  70.6378900  22.2971930  66.8983918  71.4580947
  22.2795525  66.6766863  69.9609236  49.4696584  62.7054935  54.4342320
  49.7306170  63.4268027  53.8616567  49.4917407  63.0790263  55.3152638
  37.7269813  71.3766723  51.6618269  37.5277980  70.4404264  51.6605645
  36.9881000  71.7781215  52.1191280  22.8160405  36.9163036  22.4446297
  23.1926584  37.2730613  21.6401935  23.4052873  36.2026477  22.6889968
  65.6697265   3.4066432  26.9429636  66.1684410   3.0090564  27.6567125
  65.4063598   2.6678794  26.3942480  35.9886885  32.3582506  19.2658973
  35.0943661  32.3241997  18.9263988  35.8847570  32.5688052  20.1938510
  16.5084267  31.1814260  37.8249335  16.6168988  30.5537939  38.5394573
  15.5664444  31.3485765  37.7939010  23.9270949  35.9438682  18.7000585
  24.6040177  36.4461684  18.2465148  23.9262867  36.2932086  19.5912337
  78.8751648  57.6239109  30.5533457  78.3002411  57.1461725  31.1512280
  78.4154258  57.6065874  29.7139597  79.3413810  46.5509129  43.6839676
  80.1478718  46.3614464  43.2044840  78.8728241  45.7164717  43.7037277
   8.0315775  46.0318422  25.9506083   7.8664541  46.9023323  26.3128471
   8.7203711  46.1697102  25.3003860   5.9694099  18.9155912  30.9149837
   5.2468979  19.3380880  31.3794255   6.0970110  19.4515967  30.1322651
  77.1415327  25.0059605  33.9539909  77.6328753  25.1644874  33.1479621
  77.7878593  24.6465993  34.5617366  51.1433220  45.7272434  16.6475439
  50.4137230  45.7563114  17.2664738  51.8258190  45.2359152  17.1047378
  80.5425483  77.4507500  17.7942395  80.9800273  77.9992289  17.1430755
  80.6681162  76.5563173  17.4772942   6.5337890  51.0295486  43.2841825
   7.0528054  51.3068724  42.5292349   5.7894999  51.6312933  43.2972145
  45.0929348   1.2692302  35.4295802  44.5958690   1.7006533  34.7345805
  45.6657819   0.6560176  34.9690914  34.1437890  79.3247991  63.3566915
  34.5740923  79.1364603  62.5226652  33.2836234  78.9117294  63.2810657
  62.0417976  18.4620345  27.1994185  62.0238018  17.6417530  27.6924133
  61.8676615  19.1386080  27.8537536  25.5606532  57.1210432  19.8777556
  25.4573846  56.4393139  20.5416918  26.4639783  57.0262957  19.5756674
  14.1279817  45.1174831  23.2117152  14.4726515  44.2245483  23.2218766
  13.3159292  45.0665188  23.7159014  29.1427207  32.2759652  19.4248009
  29.2450738  32.9852080  20.0594115  28.2269621  32.0101666  19.5082927
  45.1545477  45.6591320  24.7225618  45.8901119  45.0480556  24.6806145
  44.4752073  45.1837444  25.2008224  31.4370918  19.2986703  26.5991330
  31.0769868  20.1844263  26.5544844  32.0138478  19.3128216  27.3629284
  37.2034478  28.2114029  42.1362925  36.9781756  28.3091593  41.2111282
  38.1300879  28.4466863  42.1833277  14.2506874  17.4236333  17.2857320
  14.9686491  17.2027087  17.8789914  14.4613695  18.3030009  16.9717932
  84.8552061  23.3765078  39.8752308  84.2359806  23.8106799  40.4619932
  85.3236970  24.0937281  39.4482160  44.1374731  47.1193886  14.0618956
  44.2142630  48.0395222  13.8095427  44.4067478  46.6339016  13.2821345
  23.6602330  57.6560497  17.8370965  24.4775724  57.5616837  18.3262610
  23.1265330  56.9122601  18.1166887  56.2334251  77.7605391   7.7447265
  55.6135225  77.7542114   8.4740520  57.0816851  77.9340458   8.1528747
  10.4912599  57.7741749  17.7419090  10.3039893  58.3243115  18.5025072
   9.7015222  57.2453053  17.6285708   6.5403408   5.5143559  37.3406982
   7.1889615   6.0811734  36.9232750   7.0406675   5.0094706  37.9817867
   5.9424841  18.4878063  10.0247741   5.3181970  19.1402292   9.7072178
   5.8640677  17.7607501   9.4071406  40.9348583  21.8777466  34.9327588
  40.7785463  22.4932957  34.2165875  41.6501808  21.3236356  34.6204972
  22.4425292  16.1043644  24.8375964  22.1649122  16.0673046  25.7529044
  21.7124629  16.5242386  24.3826914  28.1886911  46.2562180  36.6517186
  29.0595126  46.6256714  36.7980289  28.2694936  45.7702351  35.8310366
  56.1072874  22.5462770   8.9927518  57.0270491  22.7392673   9.1744745
  55.6478834  23.3626962   9.1893190   6.8880232  73.2404388  13.1338859
   5.9668477  73.1584127  13.3807421   7.2851261  73.7344647  13.8511586
  18.8851297  27.7357960  24.0793347  19.4898951  28.3259439  23.6296511
  18.3622980  28.3097291  24.6392298  24.8188996  21.5547562  43.3752346
  24.1309404  22.0984387  43.7591028  25.3742099  22.1720243  42.8989553
  25.5521562  80.1305275  70.0551368  25.8383056  79.3480592  70.5264038
  24.8579203  80.4987865  70.6016300  16.3376415  32.6172328  29.5467472
  16.0382390  32.5210810  30.4508185  15.7282960  32.0854068  29.0347981
   0.8296449  30.7476544  18.5974884   0.5465899  29.9837494  18.0949318
   0.6998042  30.4946017  19.5114565  58.4708444  18.4779666  68.8444800
  58.4751651  18.7308191  69.7676695  57.9113159  17.7020429  68.8112809
  28.1522465  31.1953664  31.1858535  28.5546088  30.3270698  31.1659837
  27.5177789  31.1490273  31.9010711  68.8437496  43.1313705  49.0602732
  69.0677117  43.9946604  48.7127066  68.8328252  42.5596046  48.2926798
  35.6890345  54.0303946  36.8941736  34.8265719  53.6180878  36.8452406
  35.5165696  54.9061728  37.2398591  28.6411023  28.0093002  39.4055843
  29.2359376  28.5035706  39.9695873  28.8644433  28.2895064  38.5179830
  48.3071089  56.0804558  24.9048948  49.2617130  56.0733175  24.9749637
  48.1037092  55.3434324  24.3289995  71.4999301   1.5281699  41.8242197
  70.6586987   1.8436359  42.1544414  71.3378686   0.6142925  41.5901428
  14.8587473  76.9255562   0.6992844  15.2648505  77.7269197   0.3689406
  13.9514931  76.9751049   0.3981669   1.3109401  25.1352167  20.3277612
   2.1996507  24.7806811  20.3547716   0.7524732  24.3710780  20.1848102
  48.3159971  60.6077337  38.7584257  47.4346590  60.9563684  38.8923120
  48.7215328  61.2135267  38.1381178  38.3269763  22.5423932  50.4273939
  39.2403936  22.2694898  50.5135584  38.0292988  22.1300936  49.6164513
  13.2568812  15.2467060  36.2924457  13.2341123  15.1691246  35.3386664
  14.1529548  15.5197775  36.4892125  29.5741153  72.6900005  16.7709243
  29.7977209  72.2875977  15.9316957  28.6633658  72.4374485  16.9225383
  73.3690518   0.6137489  55.4903644  73.2883102  -0.1943518  55.9970086
  74.1378349   0.4740070  54.9374836  29.9344230  18.2404196  15.7547820
  29.3324924  18.4406650  16.4715874  29.5383620  18.6528456  14.9871409
  30.7431381  77.3370080  48.5859423  30.6418956  76.9524746  47.7152448
  31.6774508  77.5337224  48.6537342  55.4991498  72.6991063  65.1576393
  55.8614697  73.5439663  64.8908608  55.4548778  72.7482610  66.1125504
  67.8384175  75.8295017  64.4559389  67.1565022  76.1828309  63.8846403
  68.6461368  75.9228354  63.9508515  25.1744509  24.4431043  12.1380758
  24.2211890  24.4814324  12.0602536  25.4958034  24.9735522  11.4089739
  29.3339252  14.8439705  35.4586887  29.6067929  14.5411921  34.5926070
  30.1510835  14.9364686  35.9485173  60.0166176  17.7833533  22.6377273
  60.0867937  17.2576952  23.4345889  59.0798972  17.7965498  22.4412203
  29.9668169   7.5412041  27.9474401  30.4915190   8.2175440  27.5190878
  29.5860696   7.9795742  28.7084222  49.3631862  35.6154609  49.9287558
  49.9203203  36.3012147  49.5605564  48.5572622  35.6596279  49.4142008
  15.5755115  74.2599583  15.7705688  15.7155848  74.5139503  14.8583734
  14.8815942  73.6017561  15.7320726  43.1245089  11.3743126  26.2218285
  43.9784527  11.1532533  26.5935087  43.2529926  12.2340763  25.8211637
   2.1983650  59.4931030   8.9067858   2.1099697  58.7215948   8.3471471
   1.4403880  59.4540310   9.4900322  63.0025101   3.1346534  54.6891981
  62.7958447   3.3682655  53.7842410  62.5217569   2.3212312  54.8423462
   7.5254983  48.7468290  29.6915579   8.0198246  48.2968712  30.3766918
   7.6236016  49.6766090  29.8967886  77.0208258  24.2695306  61.7753153
  77.2740442  25.0548814  62.2604262  77.8510982  23.8571046  61.5370177
   6.3090020  35.5484200  31.2921429   6.4598024  35.4830217  30.3491616
   5.8347517  34.7473812  31.5149808  55.2331009  76.0712104  51.2226289
  55.3671160  77.0059662  51.0660987  54.5147457  76.0346966  51.8541854
   0.2576291  13.9564037   5.6210518  -0.1732388  13.3863986   6.2579811
   0.8347044  13.3724558   5.1288927  40.4946136  13.0696344  31.4167070
  40.4651022  13.4505057  32.2943735  41.0964775  13.6336064  30.9309864
  73.9962942  80.6962034  48.8066864  74.0012425  80.4624426  49.7348881
  73.9357800  79.8577718  48.3488607  37.3272300  14.3667746   0.2109622
  37.3567414  14.4509578   1.1639964  37.8624320  13.5960269   0.0219134
  25.3820491  14.9716759  12.6585305  26.2884712  14.6884167  12.7785051
  25.4319859  15.9270155  12.6258981  46.3575838  59.2823124  19.7226453
  47.2128652  59.1749954  19.3064594  45.7401846  58.8884163  19.1062903
  22.0852804  26.4938164   3.1465673  21.5005851  26.2827349   2.4186884
  21.5266204  26.4512086   3.9226577  27.0322728  35.8241129  21.2433696
  27.6798201  35.1855040  21.5418506  26.2065196  35.3401542  21.2312841
  56.8265119  51.1732619  47.0595699  56.7925873  51.1717933  48.0161696
  57.6559939  50.7446509  46.8486672  27.3261998  80.6048756  67.8686865
  26.7051608  80.4094582  67.1670072  26.8279881  80.4680567  68.6744767
  15.0507458  80.2718090  41.5303802  14.3736704  79.7131952  41.9121504
  15.3213461  80.8446316  42.2479343  37.4300869  64.2100508  16.2743127
  37.6651867  63.7141747  17.0585740  37.2129305  63.5416443  15.6244588
  31.0263276  72.0188141   4.5117596  30.9828401  71.5093899   5.3209722
  31.7254782  71.6050768   4.0055567  19.2345202  81.5490055  38.1223440
  18.4263611  81.7545128  38.5923171  19.7688103  81.0758209  38.7602043
  11.4868772  24.8333955  66.6663408  12.3795533  24.6720505  66.9718361
  11.1734676  23.9758873  66.3787937  41.4625502  17.2245908  21.1693549
  41.4177752  16.4431655  21.7203546  40.9336567  17.8745353  21.6320395
  29.2726421  56.9118834  18.4954536  29.3922925  57.6097918  19.1395307
  30.1609802  56.6200447  18.2907057  42.2011852  26.6927934  10.1651359
  43.0289412  26.2385035  10.3222013  42.4022055  27.6162410  10.3170228
  17.6764190  61.7461634  42.9108715  17.9076242  62.6739883  42.8670931
  17.0186567  61.6956997  43.6044359  70.0978822   7.3161815  69.9903104
  69.9867791   8.0939840  69.4435815  69.3142146   6.7923949  69.8237367
  13.0496252  52.9915619   3.2986757  13.8762379  53.4190655   3.5226941
  13.3058655  52.1244812   2.9844478  20.5257821  23.6761451   5.2915335
  20.4004741  22.7526569   5.0731319  21.4536309  23.8387084   5.1215285
  40.4597902  37.8629708  14.3095112  41.2093067  37.7586269  14.8956597
  39.8797369  38.4706712  14.7682834  23.2419229  77.1257687  11.8352985
  22.5422978  76.5516567  12.1469867  23.8597488  77.1684504  12.5651622
  63.4892845  32.8640912  57.7195495  63.2329136  33.5377143  58.3494204
  62.9210842  32.1202634  57.9197984  11.3626134  29.3421721   3.0520791
  11.2955737  30.1655722   2.5686029  10.6257153  29.3622589   3.6626604
  22.2405672  60.2625418  22.3055673  22.9410791  60.6490135  21.7800641
  22.2305131  59.3401289  22.0500588  79.7192484  69.6709783  40.0955296
  78.8291198  69.9827201  40.2589989  79.6202427  68.7304933  39.9474835
  64.8673487  10.7733858   5.1676214  64.6995163  11.7145610   5.1201504
  64.7137785  10.5486977   6.0853159  34.1885519  56.9066095  18.8626230
  34.0667009  57.2776031  19.7365510  34.5511389  57.6258802  18.3455050
  63.3545008  69.8294025  61.8029427  63.3103051  70.7076459  62.1810531
  64.0384450  69.8899060  61.1360168  84.2116871  36.7993736   2.8827655
  84.2957176  37.0431948   1.9609621  83.2886938  36.9496179   3.0870759
  27.9210901  46.7040348  19.2750263  27.3231530  46.1924028  19.8199463
  28.2615542  47.3792601  19.8618686  17.5036860  27.4933457   8.3411789
  18.3710599  27.0885420   8.3358347  16.9069314  26.7781186   8.5615587
   3.0830701  13.1470845  65.4164516   3.0089267  14.1014026  65.4206424
   2.1909388  12.8382323  65.2585255  32.8813457  11.0626864   4.1706687
  32.6016760  10.3615558   4.7592545  32.9833770  11.8260968   4.7390223
  59.8361651   6.4392321  22.0219183  60.2229349   5.5678408  22.1074581
  60.2582208   6.9569628  22.7075243  30.6867552  37.1680784  10.1765275
  30.0916553  36.9062448   9.4740087  30.2730727  36.8408084  10.9752715
  24.3775773  31.4107108  21.0205054  23.7710905  31.5963340  20.3036022
  23.9358068  30.7391047  21.5401363  13.1461883  24.8804903  20.3642344
  13.9446926  25.0469637  20.8651423  12.9378724  23.9635658  20.5433512
  34.2283559  58.3323050  25.5690622  34.1413927  57.6565742  26.2414122
  33.4022903  58.2979488  25.0867057  61.8605612  30.8508563  20.0691772
  62.7459047  30.6507063  20.3730512  61.5621160  31.5532780  20.6468987
  26.5591574  22.1158648  24.6961236  26.6796827  21.6825199  23.8511872
  26.9142985  22.9953265  24.5670652  24.7532582  47.0404816   8.8812429
  25.0153208  46.1397505   8.6908644  24.0742946  47.2340822   8.2349002
  58.1609693  14.3623851  59.5191126  58.8372502  14.6672652  58.9141982
  57.4554451  14.0507053  58.9522593  12.1973956  19.1276634   5.7279187
  11.3131881  19.3180668   6.0412151  12.0705223  18.7986183   4.8380509
  36.6421366  60.1075888  40.9172535  36.9780874  60.2670813  41.7992592
  35.7148242  60.3392935  40.9686327  65.1987648  48.3311367   3.7667525
  65.0195599  49.0427685   3.1521761  64.3934011  47.8138924   3.7756959
  47.0999765  43.7361622  23.9784503  47.1955299  42.7967167  23.8217902
  47.4884129  43.8756943  24.8420930  43.8296548   0.1495879  20.8483839
  43.1469373  -0.2005059  20.2760506  43.9589206   1.0482066  20.5450773
  20.7897210  49.8093700  34.6524191  20.1975179  49.1316462  34.3265057
  20.2245688  50.5656576  34.8101044  13.2326420  32.5330804  70.2217418
  13.8933905  32.6489375  69.5389387  13.2696732  31.6007064  70.4351377
  80.7106267  18.7283683  51.0138369  80.5448512  19.3326879  51.7374039
  80.9002904  17.8919983  51.4389753  38.7083435  17.7357018  37.6854873
  38.4838986  18.3131754  36.9558430  39.2507696  18.2757461  38.2602572
  72.4007455  11.8308871  33.5442090  71.7964927  11.1095183  33.3688855
  71.8413679  12.5404780  33.8601208  83.1806594  31.9297479  61.4566695
  83.6343247  31.0913013  61.5428453  83.2072169  32.3078893  62.3356091
  21.5272379  54.3113089  49.0451384  21.5477109  53.8664627  49.8924446
  20.6495094  54.1380787  48.7048244  20.5358481  13.1411147  43.6280775
  21.0637450  12.4072635  43.3134079  20.9605813  13.4097314  44.4427443
  65.7335186  37.7169394  18.8732219  65.7900763  37.3147941  19.7400045
  66.0129452  38.6221027  19.0104449  57.8379250   1.8251441  59.6850877
  58.0418222   2.6239942  60.1713961  57.6681798   2.1251033  58.7920909
  16.9192195   7.6092213  13.4563684  16.1890996   8.1239170  13.1125021
  16.5571141   7.1606326  14.2204881   9.1381437  68.9373732  41.1839390
   9.8084205  69.3906450  40.6725597   8.6080146  68.4795284  40.5315781
  82.1038896  10.1996539  54.8937350  82.4052292  10.8071683  54.2181962
  82.8388435  10.1359485  55.5036657  16.7630776  72.4897898  50.5371189
  17.3680457  72.9755271  51.0977459  16.3320311  71.8724699  51.1281729
  86.4570261  35.9589028  23.5441732  86.1878008  36.2022090  22.6584220
  86.9010578  35.1177263  23.4369779  28.7014294  47.1151352  12.1477377
  28.2239509  47.3703671  11.3583684  28.9473653  47.9444647  12.5575638
  75.9858499  33.8870668  35.5444813  75.4068468  34.2242479  34.8608899
  75.4062758  33.7176538  36.2871957  79.8722158  32.9534197  40.0867748
  80.1685773  33.8523746  39.9443674  79.5830963  32.9382348  40.9991407
  85.2854389  67.4293089  40.7011271  85.0979344  67.2723675  41.6265678
  84.4274209  67.5829268  40.3056049  82.0601517  32.1511052  64.4068306
  82.1355397  31.3705371  63.8579565  81.1927086  32.0808004  64.8053663
  36.1532839  65.6638675  42.4306469  36.7921688  65.8586460  41.7449933
  35.5206641  65.0814848  42.0101052  46.6970634  25.4593658  13.8386703
  46.8417645  25.0293255  12.9958427  47.3332977  25.0530934  14.4272101
  41.5889359  45.8632326  27.2871232  41.8172264  46.0721254  28.1929255
  42.3538494  45.3979397  26.9485426  17.1541393  39.4826174  21.7375946
  16.4810419  39.4483089  21.0578918  16.8506742  40.1607180  22.3411798
  20.4175949  11.3761425  12.0396900  19.9157214  10.5610776  12.0347691
  21.1627889  11.1951125  12.6125288  12.3080262   4.8764728  58.8468676
  11.4639767   4.8612855  59.2980688  12.1698626   5.4588674  58.0999034
   7.3871821  49.6679926   6.3198566   8.2271826  49.8863745   6.7235154
   7.1576732  48.8158417   6.6905206  40.9114313  38.5942221  22.1937013
  40.2458477  39.2820239  22.2064424  41.2996292  38.6527300  21.3207150
  29.7258782  54.2980242  22.7629137  29.1389036  54.9850082  23.0787444
  29.3251514  53.9967918  21.9474936  24.9399066   6.2475693   8.8592321
  24.6194673   5.5863875   9.4727379  24.1678596   6.4973843   8.3515245
  32.4423099  36.7125654  19.6042156  32.2840834  37.1904922  18.7901008
  33.1828952  37.1653175  20.0076771   9.9493152  17.2104585  18.2441115
  10.0906837  17.5806344  17.3727810  10.7600105  16.7403400  18.4390330
  43.0700970  60.8784103   3.7382275  43.7317610  61.0862637   4.3979478
  42.2909594  60.6486034   4.2445517  36.6294392  25.3228210  61.7434847
  35.8070572  24.9876235  61.3863259  36.3842591  25.7157062  62.5811969
  70.4602861  71.5538597  23.8880944  70.4265213  72.2349548  23.2163835
  69.5596504  71.2361574  23.9525294  69.7246423  71.4158636  69.9311423
  69.0823235  71.6936593  70.5841994  69.2917981  70.7064848  69.4561080
  83.3024464  53.2584333  20.1940346  82.8891353  53.6951923  20.9387803
  82.6315851  52.6603842  19.8646176  37.5635242  48.9769316   6.3611966
  36.7051005  49.3980503   6.3165039  38.1693602  49.6303797   6.0116267
  21.9952631  75.5616474  28.9275360  21.4569998  75.4973984  29.7164440
  22.7313924  76.1169481  29.1844082  69.1625705  62.6070075  57.4025565
  69.7519841  62.8994828  58.0977421  68.7064090  63.4015232  57.1252649
  19.6851087  27.0115376  29.3298650  20.0332379  27.4820375  30.0872755
  19.0366852  27.6075530  28.9549708  47.1785798  57.8584187  66.3434886
  47.8804150  58.4999686  66.2336116  47.3556628  57.4526935  67.1921702
  31.6875672  63.1956148  37.3566270  31.4660978  63.8706541  36.7151451
  31.8068862  62.4009275  36.8365622  72.6425314  32.6657009   2.2075491
  72.2091675  31.8215036   2.0820254  72.1408176  33.0914640   2.9027039
  15.1461136  46.8238020   5.3968865  15.7387388  46.9686413   4.6592894
  14.4544756  46.2651110   5.0423002  46.0501161  76.3846093  56.5437322
  46.6485503  75.7822471  56.1018401  45.9428086  76.0155087  57.4203639
  65.9927565  17.2632907  56.1994129  65.1189631  17.4852632  56.5210407
  66.5714193  17.4304269  56.9433527   7.2565228  43.9825296  29.8788118
   7.9392874  44.2587662  29.2674541   7.7177662  43.4541273  30.5301762
  26.0551357   0.4749138  12.3310268  25.4373884   0.7955982  12.9881287
  25.7443380  -0.4053800  12.1195567  52.0588031  79.8111587  58.4154170
  52.9626098  80.1252752  58.4417968  51.5405025  80.5897026  58.2117825
  45.4402494  55.8561468  35.1212430  44.8820639  56.5941954  35.3660822
  44.8285055  55.1414204  34.9447036   4.5043147  30.4845500  24.8984361
   5.3944021  30.1511526  24.7852063   4.0939605  30.3676677  24.0415931
  36.0399842  62.4957514  14.4674742  36.2853217  62.1744251  13.5998392
  35.0961590  62.3453856  14.5205176  52.9957533  49.3749666  20.6380272
  53.0035448  48.7674904  19.8983395  53.9144182  49.6138334  20.7614756
  83.5125596  75.3054322  32.7775550  83.1249315  75.8969129  33.4226322
  83.0848009  74.4640304  32.9366064  70.4977097  65.4102831  53.3826964
  70.6306186  66.0597401  52.6922088  69.8716893  65.8200913  53.9796799
  19.4861960  45.6501532   8.7251592  19.7857404  46.0037470   9.5627022
  18.5891235  45.9720421   8.6363715  40.0093412  73.7837029  16.8975246
  39.1604424  74.1541195  16.6558719  40.1445389  73.0688238  16.2755120
  47.5945234  51.3990641  28.1072712  47.8340244  52.2107744  28.5544801
  48.4100246  50.8997297  28.0641985  15.8483744  43.1972980  21.0707927
  16.7689264  42.9497433  21.1576009  15.8610547  44.1531181  21.0210681
  19.2918026  24.1699672  20.8116364  20.0648618  24.4652057  21.2927246
  19.2865467  23.2197213  20.9266925  31.5706944  46.3147211  11.4638042
  30.6137633  46.3097668  11.4859772  31.8204594  45.4224539  11.7040420
  25.7503438  41.8695974  37.3783779  25.5969310  41.1283207  36.7925406
  26.0202575  42.5815058  36.7982340  67.1991668  59.3065405  24.5532656
  67.2247813  59.1103697  23.6167336  67.9101823  59.9334526  24.6861935
  45.2516701  49.1875105  47.0740157  45.7693829  49.9655979  47.2808628
  45.1184323  49.2332082  46.1272364  16.4262009  73.3163738  34.7353339
  17.2553337  72.9828405  35.0781536  16.1727750  74.0052414  35.3497219
  17.1567855  13.9806909   0.2121539  16.5914903  14.4014854   0.8599228
  17.3402629  13.1162138   0.5799145  33.2436681  26.5928078  31.1873007
  33.1082153  27.5323963  31.3100123  33.8207459  26.3379765  31.9072104
  80.2592850  56.4174461  12.1591151  79.7242975  57.1357107  11.8213093
  80.6454182  56.7641401  12.9634392  38.4053399  55.7010632  43.7145667
  37.5422283  55.7171398  44.1281014  38.2757529  55.2002805  42.9091745
  51.3946152  31.8506861  14.0155947  51.8802166  31.6944337  14.8255372
  50.5006027  31.5727663  14.2149282  23.3997726   9.8859024   5.3151137
  23.4293699   8.9710182   5.5950111  23.9698505   9.9199229   4.5469436
  14.8959064  32.6255774  34.5493388  15.8437002  32.6803684  34.4272089
  14.7776377  31.9307327  35.1969767   9.6606278  47.4326134   0.3616884
  10.1075959  47.8351355   1.1062870   9.9096984  46.5093279   0.4033962
  65.7894912  52.0948725  70.5348155  65.2631822  51.8142789  69.7861510
  66.3579192  51.3476925  70.7214751  38.3678794  51.0015583  19.1515827
  38.6321735  50.0864649  19.0567982  37.5625300  51.0725737  18.6391389
  16.3100326  40.7128763  24.4377875  15.9867251  40.8932590  25.3204918
  16.6241157  39.8095512  24.4777012   4.0088733  24.6410726  70.1604865
   3.3507069  23.9467262  70.1910484   4.6088227  24.3719457  69.4648837
  76.5989846  12.2100661  47.6674467  76.9482750  11.5967677  47.0208483
  75.8291668  11.7679904  48.0254703  64.3341770  65.2348881  32.5344711
  64.2809310  65.3110485  33.4871488  64.1775718  64.3069845  32.3592477
  55.0061884  78.2923632  67.2770860  54.6509972  77.5596242  66.7739307
  55.4777732  78.8195138  66.6321438  38.5709143  20.7738113   4.4560522
  39.0887308  20.4830170   5.2067429  38.2502055  19.9643755   4.0583217
  29.2178917  43.2393646  20.6080556  29.2311502  42.3464918  20.9527802
  28.3158374  43.3698416  20.3156471  12.6532555   3.9370257  16.1785412
  12.2970605   3.0728626  15.9721935  12.6841319   4.3907201  15.3362584
  16.6153344  21.2762283  67.9328658  16.3722285  20.9067367  68.7817531
  15.7798870  21.4506458  67.4994560  49.3907785  52.4977779  15.1459837
  50.1678658  52.3341227  15.6803834  49.6706486  52.3053312  14.2510712
  57.8541851  53.0865383  52.3561382  58.7940359  52.9090500  52.3185587
  57.7393579  53.8806820  51.8342400  29.9827003  31.2622356  36.1680484
  30.8811569  31.5918851  36.1496711  30.0637674  30.3336740  35.9502578
   9.3384314  56.2974834  20.6584334   8.5808998  56.2426186  21.2409854
   9.7511411  55.4360533  20.7204366   0.3726233  54.4511032  35.8087254
   0.7423200  55.0195646  35.1331449   0.1035698  55.0502825  36.5050197
  12.4535739  63.3294010   9.1676331  13.0193639  63.3153772   8.3956766
  11.7884302  62.6645851   8.9891940  38.6563063  43.5773420  24.2344069
  38.4463811  43.9785051  25.0777507  39.3126440  42.9123259  24.4422722
  31.2067008  49.2219734  19.5587599  30.8267689  49.8821211  18.9790261
  31.8030429  48.7256145  18.9981925  32.1957564  23.3762121  24.5071650
  32.3672152  22.5830197  23.9995456  31.6342831  23.9060450  23.9412498
  40.5460501   8.0461806  23.0038404  40.1127911   8.1842893  22.1615553
  41.3484716   7.5721550  22.7855539   9.9927050  55.0781012  44.3859673
  10.4510486  55.7297182  43.8553619  10.5660808  54.3117571  44.3722105
  46.1382389  62.5333691  24.1264653  47.0134735  62.2942829  23.8214564
  45.5565643  61.9008398  23.7048078  49.4466963  61.5402322  70.0791499
  49.8303213  60.7265561  70.4062506  48.6432841  61.6478615  70.5882432
  29.4681883  23.7040710  11.4011133  28.7486386  23.1697440  11.0649943
  30.0395584  23.8392472  10.6451404  78.7380090  56.8713122  62.4777775
  79.3994632  57.1629386  61.8503480  79.1339555  57.0305043  63.3345830
   3.6809981  29.5855165  14.8835599   4.5887271  29.3472910  15.0719965
   3.2941344  28.7880039  14.5222569  10.9028864  60.0333166  24.1703200
  10.4572618  59.4918919  24.8218656  11.8299258  59.8187447  24.2741895
  35.2063632  24.3668079   5.1172650  34.3166566  24.5046020   5.4423302
  35.4893279  23.5518169   5.5319363  41.6278553  45.7238197  13.8750923
  42.0909691  44.8949003  13.7540567  42.3227167  46.3784838  13.9444566
  40.9541893  19.9986172   2.5955334  40.1188421  19.8937619   2.1400805
  40.8100986  19.6016896   3.4545553  20.3741177  78.3263246  51.3312387
  20.1838311  79.2231129  51.0559368  21.2081869  78.1183858  50.9101391
  31.0356712  23.8553882   9.0516800  31.1931729  23.2621145   8.3172053
  31.5384483  24.6411037   8.8369745  84.9166209   9.4957135  66.1920022
  85.7501322   9.4578956  65.7228976  84.9187190   8.7160562  66.7473050
  35.4017782  33.9524794   8.5547543  35.9221292  34.4997883   9.1429037
  35.6464362  34.2445993   7.6766652  75.8199102  30.0177787  65.0976168
  75.4982680  30.1999448  65.9805634  75.8080763  29.0629981  65.0306379
  36.0243130  45.0652170  17.3465276  36.4306045  44.2571068  17.0332956
  35.3702354  44.7738457  17.9817581  17.3668623  54.2993259  22.2600675
  17.3492897  54.9305391  22.9794407  18.2677150  53.9760208  22.2470617
  62.4722241   8.4409553  50.7599258  62.1334336   9.3050498  50.9940052
  62.5438378   7.9776430  51.5944576  67.9865589  45.3413355  68.8580873
  67.7057114  45.8125975  68.0736964  67.5263228  44.5033257  68.8116748
  49.5305600  63.7896638  57.0415633  50.4082098  64.1715222  57.0537274
  49.0846696  64.1903310  57.7878063   3.5368983  78.4846335  68.6778318
   2.9943482  77.7999359  68.2866044   3.6345784  79.1379052  67.9850637
  15.5962646  45.4762983  28.9447784  15.2942657  45.8143902  29.7878218
  15.1891911  46.0510111  28.2965302  30.5647683  56.8319750  27.4336433
  29.9923468  56.4051723  26.7961431  31.1314774  56.1303091  27.7541685
  82.1920401  36.2850068  52.4367445  82.9540307  36.7142366  52.8257983
  82.2778756  35.3666280  52.6925641  39.3349528  44.3014669  35.9101653
  39.8928237  44.2899513  35.1324248  38.7942696  45.0843763  35.8055210
  37.0956779  63.7406492  48.1225252  37.4209166  64.5923662  47.8309155
  37.0032907  63.8314629  49.0709162  39.9375534  73.9378881  10.9154963
  39.7795963  74.1958237  11.8236554  40.5492401  73.2042742  10.9778035
  34.6055818  73.0858850  32.0100880  34.8295689  73.9433908  31.6484952
  33.7214470  73.1968880  32.3596835  75.0683973  31.9500995  48.2402372
  75.8282290  31.4317894  47.9752064  75.3676603  32.8578162  48.1880665
  27.0907927  46.2111139   5.8252108  26.9203711  47.0303059   5.3603321
  26.9084764  45.5274677   5.1805204  24.3044861   7.1390556  52.7061217
  24.3947419   7.5615476  53.5602801  23.3790263   6.9003175  52.6535922
  65.1762522   9.2675708  63.2885276  65.0424910  10.0119708  62.7018314
  65.5156488   8.5743736  62.7223860   8.3671153  36.5046144  16.3488960
   9.1909015  36.8905473  16.6466594   8.5714811  35.5794621  16.2126589
  85.3080827  33.4037566  21.7676139  85.1377937  32.9780412  20.9273744
  85.1081642  34.3270230  21.6131997  48.8923359  57.3279285  16.0493946
  48.5315657  58.1080484  16.4706910  48.9476919  56.6802168  16.7519891
  84.9991956  47.5768328  22.9078674  84.1583878  47.1539164  22.7334666
  85.1283489  48.1680012  22.1662021  30.1844406  67.3678398  38.4739804
  30.3795791  67.3514414  39.4109368  30.0192308  68.2904720  38.2798505
  40.7436132  40.0158024  27.3349023  40.6100655  39.1044617  27.5953984
  40.2687407  40.5247593  27.9919291   3.4543832  37.7291272  68.2312047
   2.9759868  36.9464181  67.9578304   4.2083152  37.3921750  68.7152316
  20.1195002  25.4445004  27.1915412  20.9429407  25.7348895  26.7993045
  20.0838137  25.8955503  28.0350542  46.5130238   5.0301974  10.7639134
  47.1168701   5.7725470  10.7411718  45.7762794   5.3039210  10.2175450
   7.4864149  57.1087122  38.0015159   7.8280973  57.9810953  37.8054619
   7.7753454  56.9340420  38.8971949  74.7109721  54.9434233  24.3930244
  75.5718587  55.0830317  24.7875047  74.5002590  55.7788563  23.9760351
  30.8143377  64.1093636  17.8634512  31.1548400  65.0004244  17.7841055
  29.9357152  64.2201710  18.2267392  76.7498557  38.2564378  38.7781143
  77.6004313  38.5429955  39.1107368  76.2498723  39.0655351  38.6703658
  14.7611803   9.0636676  21.6106200  14.1154998   8.4764235  21.2175894
  14.2591041   9.5892661  22.2334313  78.9494781  12.3893058  27.8529954
  79.8986064  12.3611963  27.7321744  78.8092695  12.0356786  28.7313581
  33.6333871  42.8583622  11.4920676  33.3700132  42.6701927  10.5912590
  32.8410077  43.1991816  11.9070506  65.7387438  44.7759878  55.3523653
  66.5023627  44.9314331  54.7965293  65.9045472  43.9231437  55.7541078
  65.3887606  64.1295099  12.1919286  65.5574512  63.5206413  12.9109931
  64.9960947  63.5883284  11.5069699  17.0174885  48.5067177  30.8291388
  17.8549397  48.9256668  31.0276103  17.2276163  47.8574276  30.1579475
  27.7483281   9.5240377  58.9772146  27.9396494   9.7685931  58.0717736
  27.2157582  10.2452014  59.3126660  36.2680769  53.1938553  23.1453085
  36.7468119  53.9082289  23.5656834  36.9507813  52.6191473  22.7991009
  43.4280737   5.4765342  61.3224655  43.9046200   5.8200715  62.0781874
  43.9260157   5.7843850  60.5651598  38.2049823  51.5875435   5.5724365
  38.4308839  52.1516275   6.3120383  37.3966289  51.9627905   5.2231658
  24.2142749  53.9784098  24.5389748  23.4052706  53.5421991  24.2716503
  23.9493728  54.8781490  24.7300935  25.7957053  31.9558501   6.9547588
  25.6812572  32.1570039   6.0259581  26.6522884  31.5315127   7.0041442
  22.4214093  64.9938612  41.0321241  23.0385987  64.7512083  41.7223602
  22.7721326  64.5829921  40.2419286  21.6745424  39.2666316  11.4730787
  21.6100407  38.4040451  11.0631800  21.5572906  39.0970016  12.4078035
  60.7479944  64.3726974  69.1355730  59.9962940  64.9485045  68.9954873
  61.5020671  64.9621349  69.1486157   8.4175760  32.2693753  33.3289671
   8.4407866  32.3018360  32.3726010   7.5015473  32.0892525  33.5403419
  22.4384665  36.6593480  65.5853987  22.2227049  35.7742143  65.2917719
  21.6656852  36.9451070  66.0726166  79.0466601   7.3659347  45.6301241
  78.8442999   6.8713592  44.8359733  78.4106308   7.0551656  46.2744193
  76.4563988  30.8757591  39.2116094  76.7956440  31.5045404  38.5746026
  76.4009796  30.0514054  38.7282896  15.2016306  49.9265957  44.0781450
  14.6315503  49.5781708  44.7635984  15.8081090  50.5041504  44.5416594
  25.0479722  72.4441290  18.9909863  24.3752027  72.6359606  18.3376753
  24.5824623  72.4640369  19.8271286  84.4423300  64.8034382  25.8662486
  84.6969406  63.9060831  26.0810804  84.6064350  64.8804712  24.9263716
  49.0239181  75.7485538  62.4597841  49.8688331  75.5577355  62.0524275
  48.8341489  76.6517477  62.2058909  49.6481759  20.5102323  63.8109677
  49.7247452  19.7470926  64.3836664  50.1928622  21.1780046  64.2276572
  14.7505760  17.4433708  10.8358598  14.9448931  16.9539499  10.0365222
  15.5169308  17.3064542  11.3928044  31.7113328  58.1469345  24.7053504
  30.9716630  58.7368965  24.8504901  31.3837504  57.5017977  24.0786767
  14.9509724  15.6255267  69.6311710  14.2895373  15.3003905  69.0204162
  15.4572638  16.2580846  69.1214945  81.3232653  57.1979046  14.5632422
  82.2338350  57.4593782  14.4263935  81.3799159  56.3148403  14.9282396
  62.7459103   6.3532708  61.2694006  62.5609914   7.2770475  61.4387321
  63.6427743   6.3459180  60.9350162  16.4923549  38.4119630  44.0966129
  16.9107008  38.7240744  43.2942390  16.4109409  37.4663973  43.9720821
  58.2208300  25.5590367  22.0602155  57.3097277  25.3352952  22.2501254
  58.7329006  24.9533319  22.5960708  56.4703894  60.8555269   5.5392826
  56.4478540  60.5052233   4.6487725  55.5539608  61.0352993   5.7492059
  42.6417255  39.6467686  20.2204442  42.3382950  40.4805517  19.8613226
  43.2239342  39.2938757  19.5475900  11.5068873  29.4825433  31.0694938
  10.6116136  29.8135589  30.9977775  11.7517813  29.6494792  31.9796520
  79.4900571  36.0822463  40.6921959  79.0791480  36.9293070  40.8650446
  80.3303294  36.3013792  40.2895069   3.9626798  31.7915273  22.3769665
   3.2743374  32.3322225  22.7643466   4.5307097  32.4149656  21.9243073
  57.8082943   0.4281181  24.4452238  57.1538448   0.0683248  23.8464952
  58.2321930   1.1258409  23.9455009  74.3023811  27.8899837  57.4514437
  75.0688706  27.8987288  56.8781662  73.6803458  27.3110366  57.0108509
  30.8130765  47.4524975  37.7973056  31.6103864  47.9738855  37.7041459
  31.1239100  46.5498161  37.8664708  31.2843993  60.3728037  58.6689239
  31.7949989  60.9521370  58.1033330  31.9355282  59.8034018  59.0788560
  17.7319670  42.8848267   1.6389847  18.2933533  43.5580587   2.0234811
  16.9488728  43.3579588   1.3576613  56.0684156  36.2414551   8.6153471
  56.0809517  35.5600262   9.2874569  56.3792706  35.8026028   7.8235072
  39.7405052  76.3468647  26.2886548  39.3657589  76.1981916  25.4205012
  40.6862450  76.3625669  26.1418104  35.8306456  56.0809135  15.0615537
  36.6677594  56.3469791  14.6811807  35.3074050  56.8823528  15.0733423
   6.2474495  68.0681276  57.1777964   6.8011850  67.6262236  56.5341139
   5.4625374  67.5230551  57.2329473  33.9041233  47.4830103  10.6488228
  33.1074810  46.9789362  10.8146584  34.4888282  47.2511244  11.3703370
  72.8764383   0.1816504  12.1505332  73.4755031   0.8433669  11.8048525
  72.5645916  -0.2869470  11.3763225  20.5974507  35.5152011  23.4273839
  21.2074232  36.2500525  23.4918857  19.9325049  35.8097887  22.8050542
  63.3429160  59.8237675  61.5723466  62.8963962  59.3063431  62.2425144
  62.6412573  60.3065293  61.1354845  23.1660914  54.4843149  37.1012545
  23.7275934  54.9705172  36.4974666  23.4753132  53.5804653  37.0406914
  12.1768200  78.5103369  11.8138242  11.7004550  77.9090786  11.2412894
  11.5665460  79.2323542  11.9637799  30.0284529  54.4530439   2.0737606
  30.7602239  53.8885260   1.8246405  30.4042006  55.3328896   2.1039926
  80.7767487  43.3446121  10.8386433  80.2345085  43.6654377  11.5592480
  80.2840233  42.6075268  10.4778814  61.0692358  58.6139250  19.7623837
  61.7235994  58.6596775  20.4594827  60.6839705  57.7423096  19.8523617
  73.7749265  60.7707262  10.2664661  74.1689597  60.1359081   9.6681535
  74.5192216  61.1663818  10.7200253  53.9161539  69.8088360  14.7169852
  53.6759138  69.7727013  15.6428421  54.7736406  70.2341318  14.7084630
  22.4704647  37.3080587  29.3282509  23.1778669  37.4077773  29.9653316
  22.8306746  37.6584578  28.5135722  58.5370674  71.3769608  59.9652319
  58.0706396  71.6239362  60.7637810  59.1870537  70.7371216  60.2556770
  45.4173851  53.0355740  29.4251919  45.1080799  53.2055950  30.3149414
  46.2114477  53.5636663  29.3426514  44.2138004  48.0340385  27.5001216
  44.6860170  48.8136911  27.7923298  44.1549540  47.4830914  28.2806516
  43.6398506  49.7778511  38.6953306  44.1658878  50.4168701  39.1761303
  42.7347612  50.0497389  38.8473868   3.8951651  62.2561245  57.6451855
   4.6453158  61.7554193  57.3245578   3.2823531  61.5927558  57.9624122
  32.3194480  36.3702393  28.8662744  31.9955039  35.4718351  28.8017607
  32.4844670  36.4988518  29.8003292  23.8847494  50.3209591  30.4970717
  24.6044874  49.6899223  30.4962993  24.2579699  51.1104298  30.1050615
  24.2437243  31.0711861  29.4913793  24.6884513  30.4903054  30.1086545
  23.3558202  30.7191968  29.4284439   9.5797602  81.3079005  58.8810068
   8.7090747  80.9921914  59.1228049   9.8736874  81.8070774  59.6430164
  42.9362202  72.0658827  38.2452083  42.9885054  72.1705627  37.2951865
  43.7017775  72.5327873  38.5801077  62.9427814  70.8301353  42.8837347
  62.9012537  70.6692266  43.8263988  62.4039793  71.6098881  42.7498913
  14.5667410  67.9107571  21.4470387  14.0534830  68.3248377  20.7532549
  15.4561603  68.2391930  21.3155246  37.3301816  53.5400295  41.5831041
  37.1862864  52.8390741  42.2188568  37.4597144  53.0855417  40.7507038
  40.0256634  24.1174531   5.3722489  39.0830088  23.9954972   5.2592891
  40.1611900  24.0730762   6.3187659  67.2788421   5.6047957  13.1638551
  67.9218618   5.2525180  12.5485027  66.5446798   5.8771365  12.6133406
  52.5930500  16.6288161   5.1942390  52.0872021  17.1549392   5.8135521
  53.3954191  17.1311891   5.0526369  43.3218106   1.1212848  66.4554515
  44.1257056   1.2066529  66.9679861  43.2172163   0.1782201  66.3292720
  40.1293993  46.1828899  -0.1133331  40.1214266  45.7990837   0.7635128
  40.8522749  45.7430124  -0.5607624  42.5834656  57.9666042   8.6368716
  42.5953627  57.0916939   8.2487756  42.3226357  57.8216600   9.5463717
  48.4562113  68.7456255  67.2995030  49.1935172  68.8781815  66.7036494
  48.8415518  68.3230334  68.0670696  72.0894152  19.2378400  48.9625841
  72.1981710  19.0739177  48.0258160  71.9445485  18.3711456  49.3421655
  53.8333988  50.4371214  43.4651375  54.5866919  50.6227064  42.9044771
  54.0684223  49.6298313  43.9226007  43.7773371  49.8054934  13.5862350
  43.4004211  49.8521566  12.7076054  44.4856405  50.4492760  13.5775065
  21.0900744  31.2485288  67.1277060  21.8597992  30.6805633  67.0935284
  21.4483460  32.1349786  67.1733864  84.0556673  29.8722959  53.0378342
  84.0353517  30.8125305  53.2160950  83.1374664  29.6322322  52.9132986
  40.7740927  55.4253531  45.2698517  40.0969791  55.6845570  44.6449089
  41.1369467  54.6167898  44.9081945  67.8824917  15.8683245  32.9558659
  67.5199215  16.6752284  33.3215046  67.6500861  15.9002917  32.0278573
  81.0045139   3.6210959  10.0097120  80.6461374   3.1790774  10.7793975
  80.4193966   4.3650096   9.8666281  46.9862032  65.8933020  13.1770575
  47.4446201  66.6920185  12.9160225  46.3778973  66.1782598  13.8589644
  58.7085056  68.8755798  39.1797924  57.7577734  68.9591646  39.2529964
  58.9237976  69.3061733  38.3524656  82.3231022  17.0435565   9.9028909
  82.9126588  16.5413802   9.3403244  82.8863804  17.3813288  10.5992067
  44.8460436  54.1535425  31.9294000  44.2258263  54.8357105  32.1866941
  44.5910597  53.3901930  32.4475813  57.2995710  25.3463173  10.3934741
  57.1801090  26.2654376  10.1543581  57.5270414  25.3682685  11.3229942
  19.7676861  45.2051878  40.7633305  20.5426788  44.7023773  40.5127239
  19.7333837  45.1328754  41.7171764  52.1409702  77.0230246  50.6488466
  52.2224188  77.4029016  51.5236568  52.9360199  77.2990942  50.1928711
  44.2403225  14.9733298  17.2183192  43.9470927  15.1974147  18.1015158
  43.4320859  14.8801749  16.7140329  60.5674601  59.3119860  14.3875122
  60.4397488  58.5306644  13.8494945  60.5615282  58.9865303  15.2876663
   6.3723620  11.5485500  69.4073401   5.8242186  10.8429836  69.0639096
   5.7621082  12.1217368  69.8713208  47.4857140  70.8948708  22.0331907
  47.6139879  70.0015926  21.7140698  46.7420816  70.8306456  22.6324582
  11.2072003  56.8397808  42.6482821  10.5346262  56.9199705  41.9719315
  12.0169938  57.1073723  42.2137022  49.0994565  12.5493186   8.8426340
  48.5935287  13.1950133   8.3493394  49.3387262  11.8866866   8.1946361
  73.3066144  70.5352192  36.5399175  72.4905219  70.8897405  36.1870175
  73.4979119  69.7780114  35.9865027  41.8221903  48.0719376  20.0633502
  41.6898584  47.9282904  21.0004115  42.2004271  47.2517586  19.7463715
  32.2273874  72.6895571  35.5841041  31.7407894  72.4448442  34.7969770
  32.6837587  71.8887234  35.8422160   0.6618087  57.3800736  45.3373199
   0.8377520  57.9346137  44.5772152   0.3502385  57.9864662  46.0092168
  70.0855059  12.2171853  69.2480659  70.6843061  12.1852468  69.9941553
  69.2877037  12.6137279  69.5980624   2.6022037  41.3404582  54.7031384
   2.1998390  40.4984878  54.9162488   1.8967136  41.8485282  54.3026584
  12.1055182   6.0454581  67.2405186  12.9044827   5.8937715  67.7453762
  12.0576342   5.3024505  66.6389533  43.9494562  48.0240393  24.7604728
  44.1250181  47.1120310  24.5288420  44.2963648  48.1168461  25.6477571
  36.9568086  59.7648191   5.2313209  37.4785662  59.9790335   6.0046977
  37.2312236  60.4031420   4.5729378  75.2255058  39.2655897   4.2652461
  75.9268713  38.8131285   3.7966335  75.3585434  40.1910257   4.0600589
  29.6693095  30.7550214  66.1256593  30.1567801  30.9759067  66.9192671
  29.3511732  29.8654865  66.2797748  35.2612265   6.4392827  55.0349980
  34.6026238   5.8915256  54.6078711  35.1262387   6.2903712  55.9708589
  51.0045815  35.8776808  10.8111405  50.0601912  36.0208654  10.7490551
  51.3829565  36.7561507  10.7742798  32.6710534  48.1602001  31.0825896
  32.6510906  49.0613890  30.7605743  32.0361257  47.6966143  30.5365229
  23.5020137  43.8628674  17.7462602  22.6084566  44.1967583  17.6668644
  23.4256959  43.1119871  18.3349752  66.3599555   0.9020369  13.5130286
  66.5956465   0.3983443  14.2921174  66.6416804   1.7951720  13.7109530
   0.4211076  33.8838647  60.9462749   0.9551628  34.4840215  61.4666908
  -0.4190079  34.3324922  60.8505099  25.5270839  27.7116370  13.7059724
  25.0754476  28.0837488  14.4634604  24.8244643  27.4760294  13.1001306
  50.9108782  74.7629929  11.4580142  50.6770325  75.0705051  10.5822384
  50.1055861  74.3727493  11.7977893  23.7007451  69.0431643  13.6688161
  23.0476332  68.4779453  14.0813792  24.5014477  68.5186958  13.6621535
  26.4022613  50.5469131  10.3791308  25.5115867  50.6937885  10.0607705
  26.4195228  50.9609365  11.2419856  51.5563202  52.1668196  17.1142042
  52.1081781  51.3885784  17.1918535  52.1686935  52.8762007  16.9192553
  72.8509393  79.1706663  64.7125422  73.4070744  79.8069578  65.1620757
  72.2209515  79.7036581  64.2275035  70.0057602  79.4717979  18.6106753
  69.6642351  78.7102652  18.1419945  69.3839693  80.1725483  18.4143233
  38.0126786  50.1069307  26.5795398  38.9162469  49.9503183  26.3051915
  38.0347419  50.0275421  27.5331855  67.8074803  80.8037620  70.3944445
  66.8770542  81.0246687  70.3527081  68.0547562  80.9789877  71.3023996
  45.9800863  36.2665367   1.6852866  46.4876652  37.0780492   1.6784361
  45.0775337  36.5472698   1.5342243  41.4569616  46.2465525  42.5458908
  40.7072687  46.6751432  42.9588079  42.2182703  46.6000414  43.0059910
  68.7371842   8.7703746  20.0386596  68.3967177   8.4490912  20.8735824
  68.6430256   8.0290931  19.4404328  47.3552084  75.8821964   9.4262332
  47.2321939  76.8300819   9.4773185  46.6288567  75.5753088   8.8835877
  39.3239810  76.4142852  67.5311666  38.6604264  76.8574481  67.0024567
  39.0677133  75.4921966  67.5135272  38.2394075  58.5750008  19.1831338
  38.2101130  57.9943514  18.4227300  39.1704750  58.7580538  19.3089831
  13.7480648  18.3877061  65.0716912  14.0323408  18.7500117  64.2325538
  13.5730704  17.4649022  64.8871868   5.2977222  54.9043226  63.3724356
   5.0678253  55.7998466  63.6202669   4.9459934  54.3625307  64.0788221
  26.5074547  26.9015191  61.1391907  26.7373713  27.7486156  60.7573628
  25.5627068  26.9527124  61.2843233  33.0523968  17.0273924  29.5681477
  33.5915875  17.6511717  29.0819335  33.2922363  16.1729598  29.2094612
  55.8780050  52.7138853  33.0403399  56.0547495  52.2302818  33.8472605
  55.4053783  52.0920181  32.4870443  16.6334009  52.8490353  17.9913604
  16.3253367  52.6390791  17.1097445  15.8897567  52.6473427  18.5592914
  32.5822878  61.1037064  30.5994487  33.4255219  60.7871437  30.9234500
  32.7649331  61.4027500  29.7086906  36.3990307  47.7634716  17.3508918
  36.5671992  46.8232393  17.2883415  37.2352862  48.1385040  17.6270437
  34.6765637  70.2277851  14.1615093  34.0251851  70.7736635  13.7211061
  34.7515821  70.6046152  15.0382078  11.2921627  39.5940612  62.0573818
  11.3764294  40.5466197  62.0994507  11.3257655  39.3100665  62.9708641
  61.2550259  61.2221050   3.1616464  60.5900574  60.6360245   3.5229760
  62.0871878  60.8457470   3.4481663  17.2683764  28.1025267  28.3121538
  16.8862021  28.4476185  29.1190529  16.6192687  27.4784374  27.9874969
  27.5216699  62.4551153  40.3844404  27.4049520  61.8128633  39.6843529
  28.4688067  62.5834942  40.4362345  27.0266533  58.3621693  24.4994736
  27.9549623  58.5921717  24.4597793  26.8936348  58.0571604  25.3969717
  70.0172083  23.0796473  29.9516463  70.2220813  23.7161963  29.2667627
  70.6581680  23.2545703  30.6407046  34.5008540  23.2447457   9.7548729
  34.1057444  23.6424208  10.5307424  34.2103982  23.7965298   9.0286499
  32.0961070  36.7731929  31.5261817  32.9066563  36.4220309  31.8948603
  32.2398639  37.7188039  31.4889669  51.5048647  44.9742794  13.2701612
  52.0939445  45.5284119  13.7821662  51.5167952  45.3580284  12.3933351
  26.1115837  67.6211643  14.0785491  26.6727543  68.0861759  13.4579992
  26.2286735  68.0897045  14.9049830  23.7636622  21.4087699  69.9070108
  23.6990555  21.7153428  69.0025382  23.9773234  22.1937965  70.4113089
  11.9882345  80.0501442  37.3909783  12.4029446  80.4808140  38.1384873
  12.7194452  79.7625971  36.8442774  13.6485469  26.0219455  31.5699244
  13.5089457  26.7550278  30.9704804  13.1774807  26.2699771  32.3654151
  16.7222889  38.0294870  58.0839138  16.4368590  37.1892999  57.7249616
  17.6518114  38.0816339  57.8614228  41.9719601  75.9864426  10.8216262
  42.7107430  76.0015392  11.4300692  41.9152546  75.0745153  10.5363023
   8.8789618  33.8346910  16.3156891   9.4373751  33.4324789  15.6503832
   8.7238491  33.1366968  16.9520664  24.9162292  24.4451809  16.3135588
  25.2848840  24.5885062  17.1852136  25.6660032  24.5125842  15.7223511
  32.7913006  30.3089164  61.8514913  32.1998413  30.9441493  62.2550916
  32.3610600  30.0688337  61.0308301  71.1823606  69.1085958  33.3392286
  71.1595440  69.3574810  34.2632246  70.3418922  69.4054985  32.9903817
  85.8349323  71.9761324  40.0509071  86.2010384  71.5498590  39.2759943
  85.4628372  71.2596321  40.5651045  82.6280975  59.2543983  35.8395839
  83.4751701  59.5213795  35.4826212  82.3411083  58.5421658  35.2681017
  56.2753057  58.7404537  33.4792066  56.6989231  59.2425537  32.7830172
  55.3443575  58.7620640  33.2576370  27.1448286  36.7933725  62.2028487
  26.8798598  35.9336684  61.8758439  26.5461787  36.9683669  62.9289513
  24.5733762  46.0520124  13.6987591  25.0352430  45.2307081  13.5303223
  24.6699142  46.1922693  14.6406937  33.7287354  69.7794962  41.2766743
  33.7355280  68.8871098  40.9305096  32.8683925  70.1232004  41.0360336
  44.8780298  53.7076855  37.9918504  44.8026562  53.0089664  38.6417270
  44.8339081  53.2564688  37.1488285  33.1429156  14.4583677  59.6823245
  33.6164626  14.8585771  58.9530688  32.7952441  13.6421321  59.3229955
  35.7445216  51.7113447  11.4341640  36.4639091  51.1382818  11.1689973
  34.9551821  51.1931276  11.2772393  51.5519094  56.0112143  44.7384262
  52.1633005  55.5789089  44.1421509  51.9869709  56.8303108  44.9751520
   3.4214041  23.9081311  25.9255052   4.0397248  23.3758497  25.4249191
   2.6133841  23.8822055  25.4129982  27.5087976  55.2757502  35.9958220
  26.8081617  54.9766731  35.4162574  27.2739100  56.1787748  36.2093616
  42.3123646  70.0182009  25.1680088  42.0742798  70.8632278  25.5494261
  42.7189779  69.5363712  25.8882403  50.3351490   8.0310862  20.6260753
  51.1649601   8.2969039  21.0222840  50.3284876   8.4627574  19.7717655
  28.1706770  27.4605296  56.4306860  28.2491740  27.4407552  57.3844569
  28.0967339  26.5404390  56.1773174  45.8785248  57.0159960  25.9612775
  45.4225731  56.1815739  25.8513474  46.4812994  57.0591688  25.2189636
  28.5515428  72.6961231  43.4320831  29.4081688  72.2901869  43.2992601
  28.0421829  72.0333862  43.8985300  49.7194672  77.2356701  49.3510437
  49.1528654  77.9831266  49.5421171  50.4541779  77.3309469  49.9571419
  64.8077297  67.1363401   3.4971285  65.1725578  66.3006830   3.2059139
  64.7653341  67.6689482   2.7029225  42.3029327  64.8776197  11.4773214
  42.0481920  65.5133629  10.8086121  41.6661024  64.1685295  11.3886261
  57.6315594  76.6523027  38.4222174  57.5512028  77.0200729  39.3022847
  57.4315071  75.7226944  38.5319233  64.2813937   2.5092547  10.2060378
  63.4192721   2.8065818   9.9152231  64.4817487   3.0596202  10.9631288
  28.2928967  36.5104866  26.6417742  27.4442530  36.8419075  26.3481808
  28.7009597  37.2550941  27.0836735  35.5434942  20.4835033  14.0846133
  36.1916947  21.1795592  14.1921902  35.2215886  20.5922079  13.1897438
  82.9524046  49.8500655  52.5591617  82.9418618  50.1199363  53.4774702
  82.2397381  49.2150329  52.4879461  11.6603239  38.6961864  64.6570396
  11.4648159  38.8077472  65.5873948  12.5964507  38.8824962  64.5849990
  40.1718760  55.5521345  34.7123337  39.3339348  55.1853895  34.4302249
  40.1377487  56.4679003  34.4358563  24.3634367  16.8552065  36.5689087
  25.1852536  17.2572744  36.2874985  24.2402911  16.1180913  35.9708047
  27.7316928  55.3025341  11.1760688  27.2047186  54.5626736  10.8741784
  28.3359241  55.4765224  10.4543579  73.1369774   4.9586146  19.9317110
  73.0559007   4.2352240  20.5532980  72.2741834   5.0200026  19.5217788
  40.1148415  47.5229979  35.2333999  39.2044425  47.8156233  35.1911974
  40.0941753  46.6268349  34.8976946  49.7306013  31.6769838  18.6307263
  49.4909048  30.7631016  18.4771109  49.3954515  32.1443677  17.8655744
  21.1615539  30.7659912   8.9625627  20.2686191  30.8221912   8.6223572
  21.2791133  31.5744042   9.4614416   3.7352651  22.5784247  46.3054037
   4.4754833  22.2201388  46.7952442   3.1875175  21.8183558  46.1091757
  29.3403554  68.9818668  25.3461385  28.4683752  68.6366367  25.1545787
  29.5217657  68.6917162  26.2400818  36.1434984  61.2321234   9.1868961
  35.9986997  60.4231501   8.6961532  35.3602171  61.7565823   9.0206295
  78.4849698  27.9718517  48.7399130  79.0116602  27.2089551  48.9782768
  77.6607138  27.6038240  48.4214955  45.0971127  70.1899862  23.9540839
  44.6919155  70.9678555  23.5707235  44.5254278  69.4683409  23.6920834
  78.1074149  41.0170863  37.0980411  78.5241872  40.2408431  36.7238908
  77.2363681  40.7186530  37.3596650   3.7832030  51.9520210  22.3801523
   3.5516437  51.7374347  23.2837921   4.4822319  51.3365005  22.1594053
  28.7747359  67.1358109  47.1249914  29.2393827  67.6044083  46.4316320
  27.8816533  67.4783182  47.0886374  84.8617107   9.3554137  56.0308712
  85.3424555   8.9947913  56.7759006  85.1559574   8.8366531  55.2821820
  16.6388214  31.9620705   9.8914528  16.8831825  31.1314583  10.2996266
  15.6821299  31.9712758   9.9212557   9.8245486  25.4439805  61.9125568
  10.6276163  25.9539436  61.8064832   9.7700771  24.9146960  61.1168688
  54.4620705  47.5672197  44.1129780  54.4551086  47.1071005  44.9523067
  55.3139639  47.3559093  43.7310553   7.0717915  30.7424663  54.1143375
   7.2126993  29.9468349  53.6011630   7.9475363  31.1111901  54.2298763
  23.2865198   8.7253020  63.1688034  23.9461716   8.2018493  62.7137404
  22.5145729   8.6810039  62.6045590  37.5901484  49.1802979  35.7994890
  37.3944449  49.7671318  35.0690389  37.0071316  48.4324789  35.6687641
  47.7342558  39.5293021  10.1803398  47.4585342  40.3866243  10.5047047
  47.6077223  38.9398885  10.9238529  86.2236683  16.8721431  22.8947592
  85.4702179  16.5666812  22.3895431  85.8764021  17.5786441  23.4392738
  58.2690239  60.5297899  16.8328655  58.5648441  61.0919142  17.5489259
  58.9697409  59.8860931  16.7285383  34.3675160  53.1272554  33.3334041
  33.6965632  53.6277914  32.8691649  33.9244580  52.8022575  34.1171813
  44.1384077  69.8973656   6.5300721  45.0228071  70.1662922   6.2815875
  44.1781187  68.9414406   6.5594935   3.1944126   4.0643733  14.1346812
   2.5068801   4.1543620  13.4748065   3.5055917   4.9578803  14.2797446
  16.2182987  61.6046333  14.3435669  16.5705419  62.4124479  13.9699447
  16.9088387  60.9561682  14.2061579  52.9545927  60.5102491  22.9947352
  53.3638716  59.6549654  22.8635168  53.5422611  61.1265707  22.5576663
  10.4827420  75.8429890  40.5483942  10.8501450  75.5657750  39.7091084
  10.6644456  76.7818194  40.5910020  28.4631515  49.9972010  36.2757301
  28.0532074  50.8034992  36.5888810  29.1273689  49.7946978  36.9345498
  62.8737156  27.4963420  15.2699578  62.6647798  27.5621169  16.2017572
  63.7768618  27.8066294  15.2045226  75.4393760   1.3296645  36.3665032
  75.2615682   1.4233630  35.4306436  75.2484075   2.1925681  36.7341542
  25.2608069   8.8728545  47.9563289  25.9025153   9.5172666  48.2549553
  24.4268807   9.3426297  47.9668551  57.7388277  75.1035767  52.7978187
  58.5525336  75.5829029  52.9539030  57.2444549  75.6603914  52.1963363
  42.6592302  53.7327099  13.4491658  42.2017717  53.8634443  14.2797518
  43.5835743  53.6757946  13.6911976  40.9963083  43.3570147  10.8361697
  41.1441946  42.5397587  10.3603005  40.1254606  43.2561874  11.2204742
  35.2585149  74.0967274  28.1295562  34.4817781  74.5620537  28.4400082
  35.8854699  74.7894335  27.9214239  15.4497918  13.0632423  70.5015667
  16.3392838  12.8196023  70.7578459  15.5360182  13.9494346  70.1501979
  62.0765344  25.6411975  50.3881645  61.6529242  25.5348246  51.2399101
  62.7739827  26.2776606  50.5453634  50.4137754  65.1341915  21.8444467
  50.7226372  66.0172176  21.6417098  49.4734383  65.2370644  21.9907856
  11.3452685  66.4465380  40.2787542  11.3849437  65.4911852  40.2344799
  10.4106402  66.6494989  40.2399254  10.5705297  56.5175200  37.5723743
  10.3616452  55.9344673  36.8425465  10.4565871  57.3983383  37.2154355
  26.7076445  45.0035238  26.6615272  27.0726538  44.3286085  26.0892606
  26.0740852  44.5377731  27.2073388  18.2643402  49.1992903   3.9346462
  17.8155732  48.4266472   3.5913253  17.8126132  49.9389362   3.5283238
  29.9603057  52.2309589  25.1888800  29.3854666  51.8345976  24.5341372
  29.7565794  53.1655073  25.1521540   3.1450065   1.2210868  69.2175934
   3.6536582   0.6231521  68.6698889   2.4980696   1.5995334  68.6222120
  10.1330566  57.9453468  48.7418413  10.1797616  58.4830570  47.9513216
  11.0206425  57.6044798  48.8524342  15.8127840  36.0659478  55.5938857
  14.8885258  36.2728236  55.4554205  15.8507117  35.1098512  55.5679684
  47.4203730  53.0806208  17.0752072  47.3483372  52.3656988  17.7076089
  48.1413937  52.8212166  16.5015602  70.8017349  72.4020433  46.2488556
  71.4026022  73.1471109  46.2566090  70.1967669  72.5896931  45.5311966
  79.7176725   8.9067338  40.0317340  80.2851111   9.0667318  40.7858186
  80.0011188   9.5465682  39.3786602  15.8705783  28.9057851   1.7822219
  15.6979525  29.6969056   2.2926751  16.5273130  28.4307504   2.2914121
  31.0167694  57.5160313  11.2656999  31.1292696  56.9262075  10.5202603
  31.5641522  57.1387625  11.9543743   3.3731683  12.8034232  68.9364254
   3.2856520  11.8821357  68.6918854   3.1180032  12.8317474  69.8585534
  44.1684151  56.6392422  11.3662326  43.8366890  56.3036108  12.1990240
  43.4921694  57.2467089  11.0663903   4.6460835  67.0150714  54.4163697
   4.4187943  66.1363321  54.1124158   4.4591443  66.9996481  55.3550117
  55.1514864  58.3893442  22.3793530  55.2033472  57.4378014  22.2893500
  55.0743294  58.5369158  23.3219576  52.5651264  53.2691574   0.7767278
  52.2922945  53.2917118  -0.1404885  53.2161951  52.5685740   0.8157870
  65.1261821  77.8231674  66.9920885  64.5586553  78.1758576  67.6774745
  65.8615007  77.4349409  67.4662396  55.5878401  71.4302254   4.0531886
  54.7989702  70.8927917   4.1244560  55.6895304  71.5829706   3.1137413
  28.7638950  56.5679693  40.2116108  28.9305449  57.2683096  39.5807505
  27.8564072  56.7025614  40.4847097  36.6578579  51.9586658   2.3860800
  37.2027016  51.2356424   2.0752493  37.1096635  52.7463579   2.0833571
  73.6769811   3.7847369   3.7647951  73.4196464   4.6286052   4.1361332
  74.1483728   4.0097659   2.9626864  23.1630468  50.3527355   2.6582959
  22.6074123  50.9245682   2.1286628  24.0513611  50.6763744   2.5086609
  39.2479567  28.3003276  48.0741787  38.8969628  27.4390929  47.8476524
  38.9454750  28.8748019  47.3708200  75.2223158  75.0679874  26.4799786
  74.4601393  75.3953886  26.0023570  75.9664249  75.2753448  25.9147024
   6.0596484  31.0430002  28.6502218   6.0890496  31.9901490  28.5150218
   6.9749272  30.7662773  28.6063910  35.4924726  79.2872047  33.8700271
  35.7457662  78.4308052  34.2144918  35.1605034  79.1032648  32.9912806
  63.1442213  37.8640580  23.1068206  63.8219166  38.5152149  22.9252863
  62.8001499  37.6297712  22.2448730  39.6203685  64.7638464   8.3532864
  40.2018261  64.1128063   8.7460750  39.6481109  65.5054855   8.9577967
  31.4936590  41.5559530  14.9102688  32.0565200  42.3194170  15.0388825
  32.0927882  40.8098412  14.9347091  26.8272251  18.6852973  21.1630511
  27.6762908  19.0812342  20.9667063  26.6599697  18.0990069  20.4251409
  43.5827637  56.2787294  16.1979806  43.8946295  55.3789520  16.2947595
  42.8504801  56.2137794  15.5849767  80.3967577  15.8931897  55.5623358
  80.9998733  16.6075538  55.7676773  79.5603401  16.1711000  55.9357040
  51.6818396  17.2133200  21.1050892  51.4590589  17.2376101  20.1744938
  50.8385173  17.2668021  21.5547323  62.5771475  73.7647629  24.7575665
  63.3509016  74.0819645  24.2918158  62.5490475  74.2873478  25.5590296
  86.2632696  11.0255378  16.5887761  86.1481516  11.8519824  17.0577896
  86.0173933  11.2263530  15.6857538  83.8379675  35.2980254  43.3881169
  83.7933809  35.1153825  42.4495631  83.7738997  36.2510751  43.4499698
  34.6786427  54.0236902   7.4928135  35.1477742  53.6450005   6.7493480
  35.1739407  54.8130035   7.7116770   7.3756363  56.0070133  64.8605204
   7.4217178  55.4621410  64.0748882   8.1694080  55.7899523  65.3494358
  47.4563368  31.1764835  57.6136535  46.6461523  30.6720994  57.6873439
  47.1759518  32.0351098  57.2968297  55.0067226   8.9331668  22.3039198
  54.5838658   8.0827372  22.4230504  54.5961205   9.4985526  22.9581165
  48.1289911  79.2075014   8.4466237  49.0668583  79.3970919   8.4729201
  47.9154825  79.1838217   7.5138396  35.6068897  63.5631990  32.6203895
  34.8658419  63.0326223  32.9129219  36.0828352  62.9960585  32.0137119
  28.7651928  19.9920438  58.5829859  28.6851796  20.7688592  58.0294650
  28.6339672  20.3178714  59.4734066  57.8531837  75.1879597   1.0167883
  57.2728491  75.4450750   0.3003117  57.4845886  75.6166744   1.7891717
  43.8563911   5.9876864  31.9603968  43.8073961   6.9207614  31.7525315
  44.7095291   5.8804744  32.3809838  73.0107260  62.5770426  62.5755787
  72.7991343  61.9521093  61.8820906  72.5437832  63.3754587  62.3291540
  49.7466612  63.8376045  24.1585255  50.4979706  64.0618992  23.6094689
  49.1327572  63.4100771  23.5613894  53.1074905  74.1206789  20.6454897
  52.4076223  74.2661762  21.2820816  53.5657597  73.3441019  20.9666610
  40.4258871  60.8096600  49.9187231  41.2186718  60.6541729  49.4053555
  39.8232698  61.2321949  49.3067169   2.5161403   1.1764853  30.2367258
   2.5865596   1.7945521  29.5092249   3.1305259   1.5069812  30.8921170
  37.1613121  71.2791252  20.6913686  37.9370689  71.8043518  20.8877587
  36.6954541  71.7808247  20.0224113  78.6067057  73.0355930  34.3323731
  78.1479883  73.8680315  34.2189765  78.8581610  73.0245495  35.2558875
  59.1153804  14.7427027  43.1409454  58.3240620  14.2403929  42.9466915
  59.3074481  15.2107661  42.3283815  43.2384477  14.1254587   0.8513016
  43.3936582  13.3570594   0.3020281  42.2851214  14.1948051   0.9022946
  38.1366897  39.2935872  16.2523210  37.2260928  39.0345192  16.3934922
  38.4260917  39.6246219  17.1025538  74.1522312  68.5802507  34.4958949
  75.0463486  68.9192343  34.4524908  73.8709497  68.5288906  33.5823989
  73.8553810  79.5214319  16.4004123  74.7027588  79.0855122  16.3101315
  73.3198977  78.9034081  16.8979394  27.0179280  18.0817102  58.8416820
  27.3047169  17.7047847  59.6734958  27.7404650  18.6497853  58.5743683
  60.3473806  60.2545738  42.8458071  60.5625582  60.4324055  43.7613964
  59.8630810  61.0287476  42.5588608  75.1416818  10.6751960  24.6038198
  76.0238783  10.9970992  24.7891450  74.5998756  11.0471957  25.2997351
  13.6125696  74.5815229  44.8003483  13.8192141  75.5135965  44.8694372
  14.0527439  74.2973471  43.9992714  56.2471072  13.6094706   2.1048033
  55.3870646  13.9729255   1.8939579  56.6083638  14.2111438   2.7557391
  13.8993224  38.7150977  57.1892469  13.7921770  39.6239970  56.9087844
  14.7482022  38.6993287  57.6312786  43.9561653  73.6728001  43.6750603
  43.2585287  73.0209446  43.6070776  44.6924686  73.1964779  44.0587330
  -0.0686310  41.5931511  10.6963468  -0.4412983  40.7501078  10.4382181
   0.5892326  41.7793989  10.0264549  71.7763251  12.6515983  66.7840426
  71.1125630  12.5950359  67.4713951  72.6058752  12.7177165  67.2570198
  67.9346752  77.1020794  39.2545629  68.1466246  76.1687803  39.2707253
  67.3066664  77.1926928  38.5378885  28.1187862  11.3626616  21.5363503
  29.0469020  11.1367648  21.4747262  27.9032176  11.7261355  20.6774855
  83.1318132   8.8508075  25.1769614  82.8512184   8.6705439  26.0741806
  83.0142919   9.7952216  25.0744295  19.7948802  58.8457108   3.5309267
  20.3313899  59.6381140   3.5088819  20.3663063  58.1801510   3.9139834
  25.6070336  47.8771518  70.7325834  24.6553143  47.7836822  70.6910726
  25.9441861  47.0628570  70.3591110  47.2749090  80.7786942  51.1278963
  47.8152990  81.3419724  50.5738878  47.0687342  80.0253010  50.5746174
  39.0833950  80.0303936  29.9330235  39.4492912  79.2701817  29.4808841
  39.7209358  80.7283306  29.7825217  77.6657573  22.5229495  11.8458891
  78.1943456  23.2851355  11.6094911  77.4452821  22.6607745  12.7670979
  47.0569758   2.4227851  31.8636703  46.3509361   2.7876609  31.3301921
  47.8588883   2.7482646  31.4547324  72.9405347  32.7948802  40.3469181
  72.6545183  32.0296901  39.8480010  73.2781784  32.4338382  41.1666012
  51.9561672  80.7719803  26.0753536  51.6465235  81.6726398  25.9796238
  51.7088413  80.5271816  26.9670558  52.4028111  68.6022615  24.2568111
  52.9821110  68.2287836  24.9210095  52.5470591  69.5466232  24.3168449
  86.1334030   7.7860682   5.0981921  85.4424612   7.6024287   5.7346714
  85.6701509   7.9024737   4.2686850  29.6850880  14.3540643  63.1002890
  29.2159994  13.9114783  63.8076126  30.4528864  13.8049005  62.9417389
  31.9501495  73.6224508  28.9601660  31.0199881  73.7094545  29.1686440
  32.3920918  74.1820240  29.5987582  46.0654306  58.0841446  14.7796714
  45.1678944  58.3327436  14.5586312  46.0291767  57.1347761  14.8963571
   4.0599545  21.7809461  59.1246229   3.6238845  22.1111367  59.9101465
   3.9748104  20.8294795  59.1854458  65.0689236   3.5391562   1.7073189
  64.8766224   4.4728701   1.7935124  65.5363051   3.4666960   0.8751305
  25.5611873  59.3090439  47.8470325  25.3477287  58.8121510  47.0572472
  25.5358052  60.2244043  47.5682783  84.8937851  26.3039230  47.6477127
  84.3287021  27.0661519  47.5215488  85.6539709  26.6447328  48.1190901
  49.6355637  52.5011848  64.6874439  49.9793681  52.2897170  65.5553787
  49.8269518  53.4322093  64.5743262  38.2339406  52.0300102  14.3820262
  38.7990785  51.9339132  15.1485860  37.4380350  52.4396610  14.7210753
  25.3595646  37.5242732  69.5101546  24.4671067  37.2034667  69.3804140
  25.6731327  37.0541404  70.2827350  22.7238679  75.5500174  17.2835720
  22.3439598  76.1274624  16.6214049  23.2958198  74.9626827  16.7894661
  39.9175310  51.5694380  16.9374955  39.2805266  51.7058372  17.6388180
  40.5631447  50.9710121  17.3133922  50.8686781  52.5634050  11.1118817
  50.0831413  52.3018265  11.5922427  50.5862808  53.3050489  10.5766761
  37.3269868  75.7780695  27.1711898  37.4373984  75.5871773  26.2397385
  37.9847741  76.4478731  27.3580241  51.7751660  78.0620008  53.6776739
  51.8403664  78.9794903  53.4127324  51.1546793  78.0666809  54.4065135
  12.6900490  42.7413867  46.1776667  13.0376776  43.0444167  45.3388791
  12.1065863  43.4444450  46.4631682  60.6952325   5.9962695  16.9667685
  61.2137620   6.7456477  17.2596776  60.9807221   5.8449691  16.0657489
  70.7882786  80.6678009  12.9642844  71.0370302  80.3398609  13.8284659
  71.5508842  80.4925442  12.4129713  43.4081316  47.3440218  44.1657448
  42.8819847  47.6821995  44.8903418  43.8969851  46.6137409  44.5451450
  37.9726624  55.4387665  24.3093252  37.7272797  56.2850571  24.6832466
  38.5604763  55.6577587  23.5863113  44.2152452  60.5933809   8.1336892
  44.6191263  61.1159420   8.8265371  44.2118645  59.7003698   8.4782910
  75.2070427  51.1404514  10.6605804  75.2238655  50.4621649   9.9853969
  74.4815397  50.8907700  11.2328911  43.6225128  68.5593081  27.1041131
  43.5286856  67.6661301  26.7729616  44.5643663  68.6683369  27.2354937
  50.3309155  55.3489971  41.6756344  50.9212065  56.0994625  41.6078615
  49.9052238  55.4551697  42.5263691  21.1110123  45.6665443  33.8140278
  20.7522782  46.0254882  33.0024248  21.7990120  45.0661777  33.5268836
   8.8921207  52.3964357  28.7904692   9.0966499  52.4550009  29.7237277
   8.0322111  51.9771099  28.7595820  37.9158354  63.7071657   1.8527199
  37.1186757  63.8817310   1.3524224  38.5412049  63.3867645   1.2027289
  28.2001546  80.5810481  59.4991701  27.4471768  80.5886941  60.0901001
  28.4982723  81.4904242  59.4793051  74.9818985  15.5037253  63.6682940
  74.2052166  15.9809153  63.3762455  74.7969858  14.5898383  63.4518385
  46.2439156  41.4667177  15.0866103  45.6933737  40.8506536  14.6032882
  45.8992815  42.3290062  14.8544097  55.9745789  69.1210032  27.6090479
  55.5182457  68.9516926  28.4332609  56.2678909  68.2582426  27.3160553
  27.2674569  33.6693786  60.5076163  27.5732239  34.4363044  60.0233024
  28.0690010  33.2182239  60.7726067  79.9843351  25.0587886   2.3015746
  79.5828764  25.5356543   3.0279833  79.7283641  24.1473334   2.4428415
  59.4770209  12.7162688  29.9067974  59.6729032  13.2483237  30.6780148
  58.8451139  12.0678370  30.2173758  46.3581228  66.2017345  29.2292929
  46.8565702  65.4048634  29.0482569  47.0235777  66.8814945  29.3357444
   4.3364581  21.8152259  56.3544362   5.2061780  21.4468787  56.1990683
   4.2387303  21.8052695  57.3065823  67.8269482  53.8828039  64.6974277
  67.9922628  53.6067724  65.5989313  66.8729687  53.9240551  64.6306849
   5.7251676  29.3800662  59.6761578   6.2012943  30.0033115  59.1274302
   4.8138531  29.4605420  59.3946248  55.4769564  64.4929457  30.4423332
  55.9700966  65.1870680  30.0050211  54.5658827  64.6562386  30.1983857
  19.9313068  75.0105715  21.6414785  19.1201770  74.6112204  21.3271213
  19.7467458  75.9497261  21.6539240  22.5144577  64.6092796  11.2506616
  21.8466043  64.9935675  10.6827474  22.1660471  64.7153759  12.1358657
  71.0849516  14.3256705  21.8614817  70.7082073  13.6461871  21.3023806
  70.7333461  14.1413443  22.7324748  13.8439655  42.4403715  30.3582597
  14.1910458  42.5918198  29.4791508  13.5340571  43.2995176  30.6447029
  66.5412871  10.0535052  32.7330899  66.1192838  10.9076636  32.6405334
  66.1651484   9.6859305  33.5328627  84.9035017  10.0215285  11.5128016
  85.1834003   9.1875785  11.8901777  85.5333177  10.1907676  10.8121467
  83.9782673  59.9406360  28.0473714  83.2028705  60.4914115  27.9394823
  84.1138107  59.9006580  28.9940839  54.6260691  81.6846943  36.5908980
  54.7347832  81.4895630  37.5216699  53.8309431  81.2150669  36.3389993
  33.6848450  62.4502087  28.1214547  34.0738201  61.8004847  27.5359702
  33.4649849  63.1861639  27.5502586  80.3370134  15.2562373  11.4617062
  79.9992983  16.0867160  11.1263084  81.2848465  15.3828376  11.5043366
  42.9680733  11.5088027  30.2851343  42.7145509  11.1865752  31.1500764
  43.1361906  12.4418586  30.4169607   4.2592176  37.9932330  63.8343292
   4.0796169  38.7002347  63.2145482   4.0739377  38.3743118  64.6926313
  52.5650740  72.0102072  28.7944794  53.0367517  72.4365282  29.5100260
  52.7375889  72.5620031  28.0315995  45.8180714  74.4277430  36.7489219
  46.3774347  75.1745272  36.9626069  45.5490446  74.0790701  37.5987959
  61.7937517  71.5030289  10.3696561  62.4922037  71.7658901   9.7702390
  62.2403002  71.3379335  11.2000585  64.3319527  30.7633250  32.3486662
  64.4389192  31.0951655  31.4572239  64.7721664  29.9133818  32.3422718
  14.0488823  54.6450446  65.8130225  13.2158812  54.2254661  65.5978750
  14.1228970  54.5572303  66.7633077  28.6124428  42.8618644  70.4001747
  28.1258305  42.5471423  69.6383363  29.1827162  42.1310447  70.6387564
  38.6706662  71.8897343  12.9544222  38.6871123  71.2016726  13.6196542
  38.8863277  72.6904011  13.4326005   8.7034744  16.1875098  37.9087210
   9.5043748  16.6574042  37.6763678   8.2104104  16.8063491  38.4473777
  60.0882313  29.1513608  34.3043976  59.9882806  29.7306989  35.0597864
  59.4018673  29.4285320  33.6975103  44.0722092  31.4619373  69.4033148
  43.5761698  31.8008445  68.6581170  44.9339589  31.2534831  69.0425389
  11.5490445  16.4906095  61.8743788  11.9267901  16.3889096  61.0007661
  10.8076342  15.8853076  61.8866914   1.3985779  67.5654316   6.6783559
   1.5213634  67.5512934   7.6275432   0.5324985  67.9537916   6.5546405
  40.4574919  42.2948456  16.4152527  39.7039175  42.0653009  15.8715010
  41.2143612  42.1593475  15.8451498  41.0132694  69.6341038  37.0049167
  40.9011698  70.5191612  36.6580176  41.9613028  69.5038271  37.0270681
  62.7771036  11.7784636  20.7000089  63.1292407  12.3567336  21.3766479
  61.9045011  11.5438311  21.0158300  64.1670799  66.8823099  42.6956749
  63.4940958  67.5504303  42.5655174  63.6768436  66.0821390  42.8844357
  55.2627754  69.4980812  33.7782431  56.1528301  69.4642258  34.1288042
  55.3736067  69.7793627  32.8700423  30.4019308  38.3022714  27.7790356
  30.9085512  37.5315309  28.0350161  31.0171723  38.8377547  27.2780704
  66.9396877  65.4583502  15.3993523  67.7977514  65.6970453  15.0486636
  66.3262224  65.6689262  14.6953988  45.6418848  36.3550997   4.5870516
  45.3814507  35.4376650   4.6690401  46.4135599  36.4360309   5.1475871
  34.9993714  29.4544099  55.8057301  35.8372553  29.8886560  55.9657495
  34.3420990  30.1206325  56.0066574  70.8276320  73.0928850  13.8609636
  70.0661325  72.9926300  14.4321918  71.4344549  73.6360741  14.3638992
  73.5403728  58.8054466  41.6309786  73.4027576  59.4953585  40.9818935
  73.9982080  58.1143045  41.1525059  54.6494961  42.6115513   4.8519620
  54.8523903  41.7568398   5.2321386  54.5885468  43.2000160   5.6044412
  64.6363592  74.9587107   8.3426130  65.1980972  74.1837358   8.3329153
  65.1015186  75.5847692   8.8975120  20.9508570  18.4119962  63.0306255
  20.8623560  19.0946124  62.3654675  20.7826670  17.5956701  62.5599258
  17.2528323  28.4126065  60.8772945  17.2118290  28.3183454  61.8289595
  17.6986082  27.6205037  60.5771392  64.5632648  68.9318419   1.3816930
  64.0349770  69.1503763   0.6139789  64.9376535  69.7674847   1.6605638
  67.4339835   7.1747725  15.4423749  67.2172419   8.0644934  15.1637185
  67.3905412   6.6551154  14.6396923  56.1618519  73.8960457  39.2445111
  55.5530739  74.3322945  39.8405862  55.6641865  73.1585932  38.8913417
  32.0435484  22.2696613  60.7514238  31.4422806  21.5732501  61.0154646
  31.4799221  22.9372380  60.3604060  29.9309166  40.4802058  70.1968133
  30.7950505  40.0763820  70.2770238  29.4346960  39.8763107  69.6442650
  60.1625077  29.3909495   7.0491737  60.6692044  30.1776736   6.8477595
  60.2055494  29.3158763   8.0024540   7.8467139  15.9752296  62.7392422
   8.0589589  15.3676770  63.4478068   7.5245555  15.4157947  62.0325034
   3.4844154  30.2678149   3.5744300   3.4838050  30.9532397   4.2425835
   2.7410596  29.7098010   3.8030621  80.7511274   1.4284938  37.5874448
  80.0701181   2.0519202  37.3348784  81.3184969   1.3691275  36.8188119
  71.4012814  79.1118765  40.7758951  71.7889309  79.8581362  40.3186703
  72.0030260  78.9351273  41.4990091  56.4972687  67.9449034  58.6119556
  56.3233709  67.0377016  58.3610010  57.4084282  67.9418325  58.9052343
  22.9327434  13.3923953  18.1435716  23.1904262  12.5763171  18.5723352
  23.7593597  13.7925952  17.8738010  65.7707977  61.9652367  21.2750196
  65.4453611  62.4774456  20.5347729  65.1017761  62.0702219  21.9514942
  50.1840544  70.6508446  29.4015265  50.8179140  71.3070059  29.1118479
  50.2517891  69.9498320  28.7532806  64.6532440  81.1641979   3.2840306
  63.9165640  81.1032391   3.8921538  65.3591442  81.5522861   3.8010663
  69.7997133   3.9219802  12.1790695  69.7691862   3.3909934  11.3832378
  70.2490036   3.3693927  12.8186107  75.5649416   5.8840602  51.9424295
  75.5651561   4.9928801  52.2917461  75.4575864   6.4429610  52.7120638
  14.4384634  72.0438099  26.9078708  14.9537790  72.1049595  27.7121973
  13.8141906  71.3380480  27.0764518  60.0340700  72.6055002  24.0271664
  59.7032261  73.4473705  23.7140751  60.7883835  72.8319359  24.5711994
   7.4498161  27.0404599  67.8588938   6.9363101  27.7389835  68.2646143
   8.3535107  27.2301028  68.1110948  70.4652071  68.9383650  10.0505733
  70.9176731  68.4627199  10.7471859  70.7217503  69.8516417  10.1784182
  44.8956402  58.0706714  64.6159308  45.1551588  58.8152335  64.0732466
  45.5720862  58.0191634  65.2912103  11.1213477  39.6832011  67.3956384
  10.1697906  39.6320270  67.4859326  11.3638504  40.4815982  67.8646647
  32.8981113  80.6948376  28.9275336  32.6049018  79.7965336  28.7748981
  32.1597266  81.2379265  28.6517143   0.4865982  77.2579002  20.0274658
  -0.0419663  76.5890312  19.5921898  -0.1258133  77.7038908  20.6125069
  53.4714842  77.5740910   9.7890073  53.4574795  78.4851646   9.4957846
  54.1585350  77.5473452  10.4549479   1.9314426  15.2202838  27.7917433
   1.3586086  15.2951377  27.0285368   1.4728015  14.6177714  28.3772874
  62.6630274  18.2908767  12.5399852  62.3210374  18.8946765  13.1992948
  62.5636975  17.4243491  12.9343164  41.2104710  67.2028564  65.5891686
  41.9225558  67.7308200  65.9503176  40.4159506  67.6882289  65.8113911
  31.2767895   3.5861610  59.6286648  31.8832882   4.2903112  59.8579328
  31.8419464   2.8477596  59.4015079  14.4437945  73.7902832  47.0902014
  14.8915899  74.5627165  47.4352407  14.0216815  74.0967035  46.2876034
  64.6541587  32.3515456  30.1061916  64.2033974  33.1941645  30.0510311
  64.2481510  31.8175738  29.4233632  12.9951056  14.0795921  68.1355359
  12.8789862  13.1392501  68.2715685  13.2617195  14.1579698  67.2195630
  15.0879228  54.6948576  27.5153565  14.2581177  54.7217274  27.0389819
  15.2106929  53.7702942  27.7306175  42.2746428  36.0323833  45.8824926
  41.9617518  36.8489669  46.2717562  41.5248402  35.6993793  45.3894048
  57.9038000  68.9275646  24.3826294  57.6816988  69.4311905  23.5995197
  58.5865593  68.3225822  24.0926743  21.0356530   4.4829725  61.9552975
  20.1349362   4.5093368  62.2781669  21.5078457   3.9622949  62.6050370
  80.4882280   9.6859591  15.7810628  80.1456253   9.8290007  16.6633320
  80.0457231  10.3423636  15.2429581  24.5892978  74.7821617  15.2747989
  24.4840741  75.7055569  15.0456667  25.2896571  74.4713354  14.7011101
  34.7462440  58.3484268  33.9265013  34.1722918  57.9089355  34.5539236
  35.5160403  58.5959911  34.4387054  41.5953064  62.7713919   9.1003519
  41.9071245  61.9671345   8.6854190  41.0980940  62.4711514   9.8611838
  53.5660696  51.6557169  56.6036892  53.7599754  51.6425991  57.5409508
  54.0937614  52.3765850  56.2599993  54.7932482  81.8722916  39.4773507
  54.5142031  80.9647274  39.3561459  55.7461071  81.8434715  39.3909645
   7.7311182  76.8820763  18.2771671   8.3818138  77.5603914  18.4580445
   8.2478392  76.0988092  18.0881476  13.8455069  21.9739652   3.5928103
  14.2484152  22.7445459   3.1926820  14.5852304  21.4280152   3.8592309
  51.7537689  65.4454041  10.7148194  52.7022219  65.3178310  10.7345724
  51.4669323  65.2480459  11.6064501  60.3206261  36.6229556  58.3417588
  61.0055550  35.9627412  58.4476965  60.6614979  37.2164748  57.6726048
  20.2734764  31.0183118  64.5953178  20.7554062  31.3210462  65.3649437
  19.3715771  30.9204744  64.9006747  43.4889269  66.9965315  30.3237939
  44.2200899  66.5470123  29.9000478  43.6838388  67.9272079  30.2138662
  50.0072002  63.7662983  44.8144007  49.7602749  64.0150213  45.7051325
  49.1738462  63.6607409  44.3554735   7.2320255  27.2570775  47.3573523
   6.8258294  28.0906699  47.5947433   7.5187333  27.3794864  46.4523416
  70.4429865  57.4902010   3.9197183  69.9695826  58.2027864   4.3490699
  70.0578785  57.4397516   3.0448574   9.3239834  78.9670849  18.6772978
   9.9214031  79.5746756  18.2412350   9.1310741  79.3826246  19.5177424
  58.4471130  57.4300146  24.0636396  58.2479429  56.7784119  23.3913469
  59.0937853  58.0055618  23.6552358  62.1681023  50.2548599  36.9928265
  62.5323200  49.7596073  36.2591362  62.5966930  51.1091995  36.9413686
   6.6596740   3.8950103  42.3822737   5.7819599   3.9133590  42.7637291
   6.8864816   2.9657023  42.3478508   2.0257514  24.5297282  52.8196669
   2.2208398  23.5947459  52.7565336   2.5492137  24.9309962  52.1259785
  43.2106161  77.7228308  16.5790236  43.9792347  77.6275730  17.1415043
  43.5471296  78.1293488  15.7804406  41.1748219  64.5473909  27.9120183
  40.4452753  65.1184940  28.1524992  40.7926416  63.9131594  27.3054528
   7.4105543  15.8429187   9.9224663   8.1465286  15.6053202  10.4864883
   7.8166145  16.1020797   9.0953130  64.0832949  74.6520185  28.6462760
  65.0353146  74.7240973  28.5777354  63.8889170  73.7613106  28.3545756
  79.8605251  76.7785978  70.1396608  80.3839779  77.2752523  70.7685947
  79.6470594  75.9645176  70.5956602  13.8695901  27.7955477   9.9578995
  13.5811561  27.4700587   9.1052026  13.6840147  28.7342112   9.9312335
  20.4629081   6.8446868  24.8599958  20.9267562   6.7616217  25.6931663
  21.0187858   7.4182837  24.3325400   1.6166164  55.1033163  33.0855083
   2.2337295  55.7449198  32.7337289   0.7586338  55.5151892  32.9832888
  57.4026442  73.9307880  42.2231150  56.7480469  74.4988918  41.8169260
  58.1892109  74.4734097  42.2788525  79.1497652  37.9838794  46.2492704
  78.3596555  37.4467223  46.1907959  79.3654291  37.9919570  47.1818209
  13.7615635  52.8644228  45.0951958  13.7368633  52.1833801  45.7673597
  13.0436470  52.6420450  44.5024204   8.8674444   8.7616675   3.9619088
   7.9574054   8.6990588   4.2519861   9.0564054   7.9047816   3.5794505
  84.8766041  71.4245749  35.5885077  84.4208145  71.3208199  34.7532082
  84.3234730  70.9669304  36.2216330  79.1937828  65.5002213  21.1736250
  79.7219133  66.2734938  21.3720322  78.2892942  65.7927370  21.2857080
   5.2691740   7.1079963  39.2247272   5.7395261   6.6082614  38.5574508
   5.8404106   7.8525393  39.4133615  15.1906436  21.6009467  42.4746132
  15.1974719  20.7323973  42.0723677  14.6521657  21.4973204  43.2591724
  84.7976915  10.0655597  36.3314724  85.5433933   9.7691195  36.8532825
  84.5804206   9.3162387  35.7769156  39.8594475  74.2565060  28.2683969
  39.8632574  74.9158144  27.5744724  38.9510751  74.2305040  28.5690880
  37.1816977  18.8036082  58.3251207  36.9187411  17.9110597  58.1005221
  36.3917979  19.2009233  58.6917668  69.9700785  78.8532066  49.1560364
  70.0941467  77.9098034  49.0519667  69.5709991  79.1345596  48.3327484
  68.8575029  53.0383015   7.2146827  69.0039158  53.4286261   6.3530326
  68.1793451  52.3791313   7.0669228   7.7472633   7.5784438  14.9747109
   8.6551469   7.3948138  15.2160764   7.2435230   7.3708194  15.7617104
  59.7431342  16.9033568  25.1448941  59.9236623  15.9825843  25.3341126
  59.3958918  17.2529071  25.9655476  10.7316788   2.0571969  45.9024291
  11.1669691   1.4723561  46.5226798  10.1424821   2.5836681  46.4427143
  62.2572239   1.8124793  68.5369263  62.7729329   1.4180015  69.2402524
  62.9057225   2.2276042  67.9682886  51.6350953  14.6352904  55.3168535
  50.8469288  14.5702880  54.7775936  52.0105330  15.4862445  55.0907040
  74.7689295  69.2318869   7.2836560  74.2209625  69.6268129   6.6054225
  75.3682756  69.9311161   7.5446045  58.6563055  26.7954104  19.6047211
  59.0620057  27.6111071  19.8984563  58.5161296  26.2946742  20.4083657
  74.2793608  77.0404768  31.7954898  74.0259075  76.4816141  31.0608721
  73.5581255  76.9577408  32.4193501  45.6861672  54.1475887   6.0803122
  46.1110911  53.5965747   6.7376227  46.1568723  53.9583606   5.2686114
  21.0912221   3.4889643  13.4762776  21.3709205   4.0819114  14.1737115
  20.8031839   4.0681117  12.7706897  39.1409659  53.2528305  25.4817080
  39.5776033  52.7100706  24.8252082  38.9058590  54.0534258  25.0126648
  42.1221828  61.6064739  37.5131679  41.2422943  61.8999195  37.2767138
  42.7057409  62.1413279  36.9749975  28.3442825  14.0492194  12.6388705
  28.6738342  14.3535178  11.7932761  28.3470386  13.0946772  12.5675559
   4.2462009  19.9113887  42.7194929   4.9174016  19.9430506  42.0377922
   3.7627548  20.7312625  42.6178789  51.3287965  14.2579119  64.9992371
  50.4339568  14.3077510  64.6630669  51.8284647  13.8518183  64.2909670
  14.0326637  34.6754306  52.3934650  13.2117694  34.3308394  52.7450657
  14.1645521  35.5014079  52.8588629  35.4512343  58.6102409  17.1414847
  36.3796125  58.3777065  17.1578879  35.1927695  58.4997005  16.2264914
  78.3048248  55.0300407  32.3744702  77.8187370  54.3598604  31.8940449
  79.2141962  54.9081087  32.1016860  24.5629352   5.5753367  42.2081184
  23.7327903   5.2402442  41.8692875  24.4458621   5.5890315  43.1580353
  72.0185008  28.7953442  67.5527181  71.2926211  29.1972762  67.0754566
  72.0063033  27.8781360  67.2791975  13.1693161  26.0004473  17.3111880
  12.9718173  25.1691127  17.7425909  14.0338218  26.2429833  17.6429105
  28.0971050  30.7090783   7.7587980  27.7212477  30.5841970   8.6302149
  28.0799532  29.8375225   7.3634100  41.4491463  26.9707012  38.7135458
  40.5923748  26.9068265  39.1355586  42.0516300  27.1848226  39.4258642
   3.7545198  37.9750466   1.6626738   4.6887511  37.7722836   1.7109597
   3.6531818  38.7651944   2.1933600  23.9425826  22.9581094  46.2882948
  24.0148211  23.4154773  47.1260500  24.7284770  23.2155752  45.8063078
  10.6147051   9.4672090  12.7101052  11.0718799   8.7443113  12.2804058
   9.8431504   9.0614241  13.1054199  63.9641514  63.6218362  47.9180150
  63.6706772  63.4415775  47.0249229  63.8854780  62.7818113  48.3701210
  17.9272425  77.5731039   5.8272952  17.3696327  78.2621479   6.1885732
  18.7254500  78.0275679   5.5579251  51.6050148  16.3185835  15.5917752
  51.9544363  15.4658711  15.8506536  52.2702980  16.6827786  15.0078309
  31.2676703  61.1014061  68.8838457  31.3657332  61.7479020  68.1848039
  30.3768968  60.7674234  68.7779724  55.1724482  47.9742193  16.3011825
  56.0194588  48.1342649  16.7173433  55.1824713  48.5247087  15.5181813
  30.2474928  29.8884869  26.0764527  29.5105886  30.0131822  26.6744971
  31.0150671  29.8495650  26.6470170  57.0473623  40.8700609  18.4104466
  57.6641989  40.8750486  17.6785171  57.4966192  41.3509035  19.1055644
  40.6846394  78.7018447  53.3695584  39.9078669  78.1440621  53.3278709
  41.0630073  78.5216289  54.2301350  61.4493990  19.4838357   2.6146883
  62.3490620  19.2886961   2.3524742  61.2078810  18.7632406   3.1966195
   2.9480699  15.9857166  10.3463364   2.9216942  15.0292230  10.3207064
   2.6412278  16.2570488   9.4812012  84.6482093   7.3100835  47.4184942
  85.3444956   6.8905419  47.9238653  83.8729562   6.7751145  47.5888538
  23.8927484  55.3686237  32.5015593  23.5775805  54.8199940  31.7832923
  24.1215611  56.1997557  32.0855069  57.1199932  37.6494362  65.5173337
  56.8535056  36.7797037  65.2193718  56.3244882  38.1781318  65.4550105
  38.3196044  15.0054300  24.1180086  38.7500620  15.8588135  24.0662932
  38.9535809  14.4440389  24.5642662  71.2183728  68.7957817  66.8184050
  71.3861957  68.4674054  65.9350955  71.1524882  68.0080967  67.3582616
  32.1270522   5.1153730  69.1315969  31.2604435   5.0481342  68.7307223
  32.0136078   4.7517417  70.0097399  57.8159809   6.2198377  23.7142086
  57.1671104   5.5661738  23.4535861  58.3917236   6.3021642  22.9539657
  64.0130749  76.4674192  64.8173427  64.6158471  76.9647794  65.3700893
  63.4827199  75.9633499  65.4344904  32.1921659  27.8559971  22.8530526
  32.7779317  27.6600671  23.5843015  32.6262689  27.4750543  22.0897245
  72.4985232  64.6311908  57.1197133  72.6962294  65.5309492  56.8597477
  71.6526999  64.4445329  56.7123132  73.8362819  81.3411633  42.8946066
  73.4550530  81.5055430  42.0321274  73.4376473  80.5190250  43.1799316
  72.0528426  71.2216001  67.6699387  71.6324963  70.3964763  67.4276327
  71.8564572  71.3261013  68.6009299  20.6952143  47.8268147   7.5625038
  20.3044295  47.0992422   8.0463994  20.5904150  48.5826015   8.1404662
  52.1024323  32.2617912  16.9409299  52.9061127  32.7799296  16.8978560
  51.4299726  32.8851962  17.2155142  35.3311229  38.5736442  15.1639211
  34.7080040  38.1831551  14.5511639  36.1692071  38.5479259  14.7022021
  37.7065810  64.5431335  21.5489006  37.4961956  64.1789825  22.4087620
  37.8282507  65.4790742  21.7084146  73.0257273   4.5450863  16.2017858
  73.1574106   4.5398009  15.2537024  72.8917980   3.6252195  16.4301264
  22.5403687   0.6091814  53.6944049  22.3340824   0.7737523  54.6145099
  22.7529689  -0.3234644  53.6597162  19.2697799  37.0438409  12.9828942
  18.9845467  37.9558754  13.0382681  19.6711874  36.9705772  12.1170211
  33.0360293  35.6030560  10.3202665  32.9134178  34.7127318  10.6496882
  32.4032521  36.1287618  10.8096099   4.4841434   6.5589148  14.7930408
   4.2753460   7.2739249  14.1918790   4.8025944   6.9955271  15.5830967
  77.3633848   6.5490013  32.7504206  76.6169475   7.1446508  32.6851082
  77.1730779   5.8562678  32.1178579  40.4437923  52.2398186  30.4030299
  41.1609125  51.7566824  29.9924898  40.1606083  52.8627586  29.7337103
  52.0422401  54.4107430  57.0831972  52.7154984  53.7303763  57.0904487
  52.3884478  55.0963896  57.6543885  17.7971188  72.8123289  65.8067059
  17.0031182  73.2842665  66.0578444  18.4232632  73.0092388  66.5034120
  58.8831282  23.2777500   1.8613143  59.0701008  23.5804296   2.7499419
  58.8490725  24.0783668   1.3377835  58.7879981   6.8953965  51.9816022
  59.4373334   6.4228271  52.5024431  59.0221414   7.8175996  52.0862513
  53.2040310  50.1153994  16.5115118  53.3966589  49.6106768  17.3016906
  54.0504742  50.2082109  16.0743105   5.0619610  65.6085796  48.1598806
   5.5410965  64.8526795  47.8203583   5.3211316  66.3323183  47.5895643
  25.1168108  22.3002315   1.3667659  25.2237391  21.4043713   1.6865025
  24.2311192  22.3210788   1.0043438  27.6849151  15.8976328  19.8817861
  28.5330224  16.0790598  19.4767809  27.9020429  15.5496967  20.7466722
  47.5087168  72.1798878  53.8780110  46.9944253  71.6088014  53.3074015
  46.8879559  72.4745255  54.5444017   0.1903216  69.9107080  62.1898328
   0.6082837  70.4826122  62.8336244   0.1579158  70.4345899  61.3893782
  29.0663362  48.6438656  44.5705605  29.6002150  47.8567934  44.6788120
  29.4588566  49.2831659  45.1650858  17.6485372  70.5036116  19.0887284
  17.4445343  71.3801765  18.7627757  18.5983288  70.4287720  18.9963889
   6.1656149  18.6256908  61.3746505   5.9273966  18.3682702  62.2652792
   6.9686325  18.1381391  61.1911022  56.2028408  71.2295532  18.2716525
  55.5890369  70.9272194  17.6022685  56.0405064  70.6571960  19.0215111
  49.7593036  25.7281797  66.1736994  48.9660993  26.2410026  66.0185479
  49.6729698  25.4205745  67.0760062  32.0776987  22.5557756  16.4686930
  31.8551660  23.1208849  17.2085333  31.9902682  23.1207514  15.7009745
  54.5191383  46.7139959  21.1838746  54.3193150  46.6173649  20.2527642
  54.6436691  45.8178568  21.4963722  19.4968899  35.4138301  64.9312591
  18.6239584  35.1265548  65.1990115  19.3766888  35.7490085  64.0427547
  21.9866872  47.3536158  39.8744416  22.0747280  47.1418190  38.9451265
  21.8867493  46.5046549  40.3051519  78.5704389  79.8494869  39.0719157
  79.0056577  80.6143861  39.4484048  79.2240348  79.4655710  38.4874039
  44.2235518  39.6450067  13.8218236  43.9204264  38.8299108  14.2217851
  43.9885807  39.5602417  12.8977919  73.5510665   4.6605943  60.8344250
  73.3049625   4.4459747  61.7342042  72.7852315   4.4203828  60.3128641
  40.3086519  36.0871434  22.0247769  40.6975889  36.9483995  22.1770811
  40.9799480  35.4673338  22.3101306  43.3616304  46.7831135   0.8911525
  43.8692236  47.1205568   0.1531050  43.2320023  47.5421858   1.4596894
  66.4228547   6.5530894  52.2677570  65.7440996   6.3394807  52.9079872
  65.9491891   6.6585277  51.4426785  63.9259329  68.7138873  64.1258209
  64.8758259  68.6456614  64.0294891  63.5964098  68.7539726  63.2280242
  21.8284512  57.8490448   8.9033186  21.4241004  58.5163784   8.3488810
  22.4025059  58.3410597   9.4903588  26.5697908  52.6188517  31.4329672
  26.9088125  53.4991884  31.5951633  25.7095480  52.7623940  31.0384893
  46.9237041  65.1135302  35.7109880  46.3228226  64.8630810  36.4127374
  46.5180540  65.8830452  35.3115821  22.4465537  55.7234573  25.8002496
  22.6604986  56.6306496  26.0181165  21.5077615  55.6508112  25.9723544
  32.6251197  34.0263748  20.1342797  33.0785275  33.9896512  20.9764814
  32.6947260  34.9421358  19.8645222  27.9201698  47.1531963  24.7434163
  28.0641365  46.5135384  25.4407978  28.7200904  47.1196699  24.2187858
  85.9774461  76.9487839  64.3941926  85.4760280  76.7321902  63.6081278
  85.3316703  77.3196106  64.9956011  73.1205954  77.0029288  67.8337979
  73.1714740  76.0503917  67.7543216  73.8392796  77.2328597  68.4227461
  67.1104718   4.9237655  39.2988377  66.6216135   5.7230161  39.4949274
  66.4369041   4.2749952  39.0947895  37.0024419  49.2090130  22.2492290
  36.4376378  49.6464157  22.8863382  36.8953395  48.2761240  22.4349022
  19.0282571  19.1285729   6.9417346  19.9000692  18.9486849   6.5898621
  18.6387217  19.7392309   6.3159627  61.0365868   9.2811817  41.1003876
  60.6720257   8.4933424  41.5036678  60.9582567   9.1265529  40.1590109
  48.6062136  79.9686175  46.8378406  48.3410492  80.1901060  45.9451681
  48.3579090  79.0499001  46.9404726  36.4890552  57.0483732   3.8903618
  36.6499305  57.8992128   4.2983112  35.8759546  57.2356558   3.1795427
  40.2047777  60.3507137  27.5600195  40.8968353  59.8164034  27.9496312
  39.4146347  59.8168325  27.6429391  75.9902340  27.3740075  64.5262294
  76.6843182  26.7359327  64.3608993  75.6481391  27.5862048  63.6577957
  10.3216411  60.8043194  12.5108659   9.5858242  60.6524992  11.9177771
  10.7067634  61.6270018  12.2090268  37.3020554  22.7856874  60.0343752
  36.4462543  22.3893809  60.1980162  37.4157619  23.4133339  60.7480717
  34.9190068  59.0253162  11.2161231  34.7436810  58.1189013  10.9633338
  35.2571368  59.4349241  10.4198062  32.7955561  79.6686297  54.7732621
  33.4820273  79.9245124  54.1572159  32.9693588  78.7451511  54.9555033
  14.3194914  35.8770728   3.2202956  14.3514001  35.0648975   3.7258512
  15.2133691  36.2174439   3.2572001  20.6820917  34.3259621  27.6599145
  21.5222287  34.3823147  28.1151342  20.1241469  33.8179946  28.2488942
  84.6141483  34.9740314  67.2689772  83.8471149  35.0072145  67.8406334
  84.2523378  34.8774886  66.3880682  75.4081631  40.3885174  32.7065539
  74.9108458  40.5550480  33.5072875  76.2143707  40.8927584  32.8160858
  30.5956888   0.7156698   6.6171861  31.5224147   0.6099343   6.4021689
  30.1470017   0.0761732   6.0640550  32.4192977  55.9530640  13.5561240
  32.9722023  55.1721764  13.5288370  31.5446639  55.6351995  13.3320391
  74.6632876  65.5472951  52.7454703  74.4210353  65.4382115  51.8258791
  75.4863753  66.0352641  52.7200656  74.8039641  54.9599832  62.0036196
  74.8175254  54.4244044  61.2103962  75.1128402  55.8196156  61.7175078
  42.8179946  76.2456422  47.6233011  43.4016611  75.9944587  46.9074302
  43.3145859  76.8957000  48.1203442  83.3020749  75.3997450  55.0351863
  84.0524783  75.0904065  55.5425685  83.4507050  76.3402110  54.9368947
  55.9483423  74.9712425  47.2064119  56.1165371  74.0532093  46.9939070
  55.5432644  75.3295737  46.4166384   9.9528631  71.0602338   4.7964373
  10.0060399  71.8753547   4.2974564   9.0502318  70.7648344   4.6771449
  61.4443340  54.1000717  63.7684523  61.9863548  53.3118158  63.8016140
  61.8261900  54.6811634  64.4262891   1.8276614   5.1734650  30.4413724
   1.4643735   4.9637434  31.3017631   2.7466118   5.3791070  30.6130505
  39.3382788  20.6399298  18.9971471  39.2589426  20.6595945  19.9508512
  40.2066422  20.2705979  18.8366079   9.5567209  23.6501193   8.2767093
   9.3324673  22.8200293   8.6972976  10.5122459  23.6890078   8.3178437
  61.6706753  44.1953802   4.1286549  60.9754562  43.8957691   4.7144303
  62.4792814  44.0361786   4.6155268  64.6236935  51.5965896  53.3491080
  64.0001335  52.0087080  53.9470749  65.3813925  51.3917809  53.8969903
  40.9153414  59.2454576   4.5981395  41.5155172  58.5324907   4.3797186
  40.0432825  58.8720083   4.4705445  63.4590640  78.8843136  68.8695533
  63.9921584  79.1301613  69.6255959  62.9080381  79.6497136  68.7059578
  35.2595242  31.3894056  62.8133707  34.7801360  32.1779416  62.5591480
  34.6852978  30.6673167  62.5582647  62.9404396  11.1022399  67.3036130
  63.6163849  11.2700723  67.9602431  63.0135501  11.8348764  66.6919487
  78.9419872   6.5862010  60.9392034  79.4430739   7.1505998  61.5279310
  78.1017667   7.0330976  60.8365028  68.7833118  26.4941049  31.8058777
  69.1212177  27.3658586  32.0110440  69.3303633  25.8985400  32.3179984
  53.4697151  41.2592840   7.4385160  52.7580404  41.8962574   7.5019044
  53.2511520  40.5905771   8.0875868  25.4347754  27.9958653  19.7872734
  25.7533097  27.2594714  20.3092813  24.4932508  27.8431034  19.7071111
  26.9284797  42.5045061   6.9763082  27.7501488  42.3761272   7.4502414
  26.4691353  41.6691780   7.0626742  34.9422526   7.0466673  22.8406811
  35.8137774   7.4121350  22.6886559  34.3412209   7.7472585  22.5873733
  32.1797991  46.0438299   1.0934301  32.5842643  45.9134579   1.9511271
  32.3466802  45.2269268   0.6232658  16.2021756  28.7097406  30.5703855
  16.2299228  29.4267106  31.2039590  15.2966356  28.6989808  30.2603650
   3.9632289  44.5486622  66.2950104   4.3309800  45.3320941  65.8860796
   3.0325190  44.7469234  66.3984849  28.8380480  13.0193567  16.9771385
  29.2647266  13.7283683  16.4960146  29.0122128  12.2365570  16.4545274
  35.5311441  50.3277540  24.2723608  35.9211349  50.9787369  24.8557663
  34.6558952  50.6673002  24.0855932  75.9227477  35.3110123  25.0732422
  75.4142497  36.1135244  24.9564743  75.3179095  34.7041917  25.5000591
  64.0720463  30.1500225  23.1503010  64.0226555  29.5300007  22.4227238
  64.1623020  31.0054207  22.7303290  36.0652494  21.8480515   5.8236217
  36.7689443  21.2630439   5.5428803  35.7476759  21.4654303   6.6415340
  86.8625832  50.5897093  17.7505422  86.0273075  50.1325226  17.8480947
  86.6544342  51.5080976  17.9222023  26.2950373  78.2818890  42.9452181
  25.9337234  77.7520180  42.2346449  25.5735016  78.8529110  43.2089376
  45.1122332  58.6630678  28.1907368  45.0794125  57.9984617  28.8788176
  45.3071547  58.1720114  27.3925495  59.7758331  81.2180357  56.7386406
  58.9008131  80.8631974  56.8956714  60.3702655  80.5200820  57.0138543
  11.2203014  12.8272629   5.9176594  11.2116599  11.8758333   5.8130652
  10.3320050  13.0452728   6.1998522  21.3576007  39.3973255   4.8013464
  21.8962240  39.9928689   4.2803437  20.5250764  39.8577309   4.9069789
  21.2318897  56.5377998  30.0627351  21.0607815  55.5965900  30.0299215
  20.3648758  56.9363785  30.1379490  22.3476362  39.1646838  23.6582828
  22.6033854  38.2893324  23.3674502  21.4945841  39.0392470  24.0739703
  27.6689696  62.4288464  15.5338311  27.2298431  63.1816530  15.9296691
  27.3607922  61.6778421  16.0410297  51.9526734  64.0522461  68.0192708
  52.0009556  63.8062101  67.0954927  52.0498767  63.2259636  68.4925992
   3.5654386   7.4309085  70.3519943   3.3479508   6.7620538  71.0012763
   3.1667264   8.2323764  70.6909692  43.3512726  74.1782504  56.2912982
  43.1407049  73.6466961  57.0589846  43.3148029  75.0809174  56.6076725
  75.6212364  19.6343553  53.4481144  76.2140189  19.0109575  53.0283308
  75.0983809  19.1015100  54.0472221  66.2275875   2.0833085  64.9931943
  65.7889921   1.4324449  64.4452547  67.1302486   1.7717336  65.0591742
  46.8959856  41.2435627   2.8699103  46.3598204  42.0347404   2.8170273
  47.7970839  41.5602350   2.8069010  16.9529700  43.2482624  35.9161115
  16.1540914  43.6624765  35.5898404  16.6862750  42.3565865  36.1397696
  35.0768566  54.9582577  17.3735154  35.2759314  55.5244017  16.6278052
  34.7828913  55.5588388  18.0584383  64.5627203  60.0881439  50.9293395
  65.3950896  60.0590437  50.4575878  64.7546949  59.6904223  51.7785721
  53.9191856  70.8869152  62.1069180  53.8375654  70.3195792  61.3403016
  53.0716720  71.3272958  62.1703010  15.0216683  24.3115352  46.8013649
  15.4876669  24.7252773  47.5279265  14.1041621  24.3117784  47.0741516
  71.9854703  50.3087889  41.6985779  71.8778815  49.5165580  41.1722451
  72.9025855  50.5544268  41.5769654  63.3257997  32.0377467  54.9021833
  62.6864565  31.4606879  54.4844776  62.8571838  32.4154924  55.6464546
  30.0806236  39.7956920   9.8625380  30.5702257  40.2025080  10.5773962
  30.2266455  38.8565588   9.9762666  14.9766445  65.0832081  40.7486773
  14.5343769  64.8301172  41.5589714  14.7344410  64.4024181  40.1209068
  35.2801681  21.0625267  19.3254828  36.1561513  21.2276149  18.9767265
  34.9467754  20.3345990  18.8008869  39.8227334  58.9048290  31.1614227
  39.3675518  59.4917107  30.5575919  40.5339479  58.5307264  30.6413698
  56.8508530  10.2696943  10.5098617  57.7250099  10.6215334  10.3416502
  56.2597036  11.0006344  10.3295898  36.9302917  40.0679827   5.5314815
  37.6956558  39.7354794   5.0625545  36.5440369  40.7094049   4.9351418
  37.2336650  72.6221895  10.3581238  37.4193239  72.1274090   9.5600289
  37.8541327  72.2801638  11.0017610  12.9408360  15.9762418  44.8614454
  13.5971832  15.6544960  44.2434502  13.1536508  15.5391538  45.6860018
  29.7059278  58.5245889  21.0910850  29.8944444  57.8368788  21.7296367
  30.4652389  59.1058355  21.1338764  77.4526841  10.5557512  69.2278998
  78.3505541  10.8384298  69.4015548  77.2546059   9.9402736  69.9337196
  38.0232048  34.3884850  18.9540529  37.3385787  33.7547302  18.7398672
  38.1829047  34.2616439  19.8892736  32.5728106  45.3337383   3.9054018
  33.3278918  44.8202991   4.1925648  32.0373797  45.4331064   4.6925938
  47.2799506  51.7246263  51.4398842  48.0367532  52.2714644  51.6507190
  46.5552320  52.1223073  51.9224458  27.9212093  32.5008512  24.5146608
  27.0268369  32.6439691  24.8242569  28.4656286  32.6165175  25.2934170
  53.4525728   9.8339689  16.2847829  53.9321756   9.0079409  16.3471758
  52.5595045   9.5757657  16.0567737  38.1015038  57.2054052  16.8887520
  38.0158639  56.3204098  17.2432661  38.8872623  57.1699095  16.3432670
  25.5185843  24.9194479   0.5092504  25.4869294  24.0032554   0.7846062
  25.4818392  24.8836827  -0.4465752  61.5368176   2.4877618  63.1419282
  62.0602092   1.7636417  62.7984940  60.8773345   2.6478551  62.4668842
  38.4791923  23.2583785   8.5835230  38.0953312  24.1178966   8.4099942
  39.2591023  23.4454370   9.1059971  29.4229245  49.8415136  33.6414814
  28.6054063  49.9072170  33.1479406  29.1481018  49.8178196  34.5580745
  80.5965144  16.4000915  70.4740860  80.7294828  15.8042072  69.7368799
  80.5477864  15.8271907  71.2393589  49.6128454  55.5776601  63.9969747
  48.7065115  55.5636638  64.3045347  49.6980014  56.4147346  63.5405903
   7.8741695  55.2411461  14.6764719   7.3312332  54.7659492  14.0474749
   8.3914139  55.8422184  14.1403782  29.4040203  23.7175202   1.2319050
  29.2715955  24.1664124   2.0668843  29.0072012  22.8555918   1.3577822
  46.5805864  35.8543944  14.7553158  47.1232605  35.1707792  14.3623674
  47.1630383  36.6105270  14.8276973  27.7732968  30.3326106  27.2142172
  27.4505615  31.1454225  27.6033306  27.1853733  30.1702738  26.4765024
  36.3081082   0.9859727  48.9223795  36.9940432   0.3185199  48.9070731
  36.7797716   1.8116687  49.0318661   9.6012700  58.0371332  26.2337947
   9.9344289  57.3659229  25.6382155   8.7858653  57.6705265  26.5757680
  46.3896561  27.4468184  11.4710724  46.5228319  28.0296993  12.2185659
  47.1506023  26.8662286  11.4815235  12.3359927  34.9987958  40.2950554
  12.7426155  35.1635764  41.1457830  12.3633059  34.0470384  40.1968604
  72.2255864  55.2736371  55.5049437  72.2363820  56.1890369  55.2253740
  71.7846980  54.8107915  54.7924679   6.1731911  74.2794085   8.6831689
   6.2611425  74.9780083   8.0347478   6.4306104  74.6865702   9.5103246
  59.6039858  30.3678732  68.3458423  60.3292789  29.8483484  68.6926488
  59.3245878  30.9110605  69.0828065  53.9889145  49.4985199   3.7850720
  54.8341322  49.6750259   3.3719316  53.8359499  48.5666132   3.6289141
  81.1135259  68.4989458  67.3016646  81.3234486  68.9262276  68.1320839
  80.8718171  67.6056629  67.5463145  58.0848802  24.8638795  52.7353876
  57.1730227  24.5979331  52.8537970  58.5666023  24.0402578  52.6590639
  71.8766513  58.0063467  54.9133580  71.2609210  58.6711746  55.2217608
  71.5967193  57.8177493  54.0176468  77.6138968  81.6315921   0.7558177
  76.6864187  81.8560826   0.6808396  77.7806503  81.0512270   0.0131189
   9.2485657  55.4025631  47.2272425   9.1810825  55.7155948  46.3251954
   9.1219022  56.1858206  47.7626830  32.5135620  74.9252881  26.3461065
  33.3372696  75.4063905  26.4253426  32.3478135  74.5875818  27.2262836
  17.9411173  41.5371752  19.7655380  18.2728088  41.6912603  20.6501126
  17.5398040  40.6692028  19.8080385   2.5821193   9.3175958  50.9000700
   3.0581149   9.9219392  51.4696556   1.9095047   9.8582862  50.4859739
  36.5092707  46.6223240  32.4819899  36.9013619  46.4433384  33.3366585
  36.3523126  47.5665665  32.4834967  54.9331617  44.0490007  21.4323115
  55.7084846  43.5688257  21.1415529  54.1977358  43.4876919  21.1867213
   7.9092807  62.6923418  30.2480888   7.0454824  62.2809362  30.2768874
   8.4212983  62.2205400  30.9049535  61.7611122  23.0290580  18.7299383
  61.4934349  22.3273802  18.1364465  61.7124224  22.6369429  19.6017802
  71.9098234  45.3191805   5.5031484  71.2203455  45.7310629   4.9823725
  72.3762751  44.7590017   4.8827806   9.9457796   2.0004295  51.5138333
   9.4250782   1.3183282  51.9379096  10.2225264   2.5710319  52.2308069
  62.6357856  78.0914145  54.0250915  63.0532732  77.4979835  53.4007698
  62.0810761  78.6549645  53.4857028  63.2079115  38.8794234  63.8842147
  62.8429260  38.5548260  63.0610173  63.9690103  39.3969084  63.6212116
  43.3709764  33.2317042  16.1278510  42.8010321  33.9958334  16.0412216
  43.9857101  33.3074546  15.3980625  65.8370256  44.6549320  10.6144834
  66.2565184  44.1903734  11.3386667  65.8637524  44.0356112   9.8851293
  38.3181882  54.7269583  17.6174951  38.0553842  54.3410206  18.4530890
  37.7999330  54.2579699  16.9635141  85.4023852  40.4343948  68.6290184
  85.8544555  40.4441348  67.7853536  84.7178330  41.0977022  68.5416084
  50.0583792  47.8184795  13.9950728  50.2725315  47.0525837  14.5277750
  50.1789665  48.5621881  14.5854902  80.1272399   8.3348821  69.8328643
  80.3251416   7.4641727  70.1777331  79.6562416   8.7721036  70.5422496
  30.2344298  35.4400969  25.0652742  29.4546032  35.7563710  25.5214238
  30.1731634  34.4863820  25.1191950  30.7835746  20.1424170  23.1514001
  30.8069873  19.2591488  22.7832651  31.5961647  20.2148366  23.6520815
  46.4703608  38.9517808   0.9795123  46.6628408  39.6099305   1.6473627
  47.3298693  38.6682653   0.6679104  56.8860722   0.3114857  15.1038575
  56.3658714   0.2619997  14.3018758  56.3472986  -0.1216674  15.7659245
  18.7301743  58.8319206  14.3698776  18.4617198  59.0659714  13.4814048
  19.0783989  57.9440022  14.2887950  27.9359794   3.3577302   6.8700963
  28.3835077   3.3611390   6.0239643  27.3148584   2.6319328   6.8096060
  44.0316343  21.9182634  15.3553283  44.4368744  21.9133806  14.4881558
  43.9481020  22.8460574  15.5754471  82.1196623  24.9880409  34.6398067
  82.0083178  25.4983091  33.8376451  82.0824189  24.0762758  34.3507934
  11.5797909   9.0719722  60.6635909  11.6148194   8.7659476  59.7573059
  10.6452974   9.1118262  60.8669823  16.0210760  25.5406688  21.7837768
  16.9435080  25.7957576  21.7671209  15.6918915  25.8864663  22.6134067
  74.6869183  60.1505470  19.9703801  74.6718073  61.0013580  19.5320535
  74.5975590  59.5140648  19.2610586  19.5421267  55.8753777  13.7651968
  19.7453582  55.3607750  12.9841006  19.1293585  55.2514744  14.3623543
   8.3179975  41.9200706  25.0094891   7.7127010  42.2417831  24.3413949
   8.8109285  42.6949930  25.2792001  75.6286977  40.2129507  18.8329434
  76.1259816  40.9140253  18.4117174  75.3316878  39.6616507  18.1090057
  61.7770672  50.9352827  19.2337596  62.4467373  51.4808321  18.8212681
  62.1909285  50.0771761  19.3265367  12.0335639  50.5780077  14.1347444
  11.8268359  51.4768934  14.3906772  11.3758457  50.0446320  14.5810068
  58.6372318  80.7214981  70.1615420  58.7197175  80.8215909  71.1099139
  59.5304742  80.8194786  69.8317685  13.1898296  67.9567671  12.4279630
  12.8550172  67.6237488  13.2605684  13.2158828  67.1895266  11.8562126
  29.3439410  71.1402898  55.9722894  29.9433485  71.6660362  56.5019446
  29.8789556  70.4118758  55.6570034  60.7507625  59.1175001  38.9861398
  60.1146665  58.5094350  39.3627983  61.0979285  58.6578267  38.2216745
  39.1927624  15.0096595  12.1621633  39.1519952  15.8087623  11.6368008
  40.0133562  14.5923257  11.9000864  20.7468987  12.8640985   0.8654334
  21.4398432  12.4252439   1.3588567  19.9343026  12.5138319   1.2304471
  70.8658280  56.0611158  39.1017371  70.0806918  56.5209835  39.3989211
  71.2451615  55.6941669  39.9002891  27.6195931  80.9940510  34.0677171
  28.1207915  81.4662438  33.4028345  27.6736881  80.0762182  33.8014751
  56.9204664  35.7419324   1.4369923  56.3843727  36.3963199   0.9890943
  56.3477612  35.3882051   2.1175219  49.4764805  54.2402077   8.9105499
  48.6661291  54.5670319   9.3013781  49.2754650  53.3380938   8.6615276
  76.2537641   3.8734124  60.1546877  75.3232056   3.9629911  60.3602796
  76.4406961   4.6052860  59.5667701   1.2193410  67.5390630  31.3499360
   1.5375439  66.8001275  31.8685441   1.9589535  67.7747493  30.7898837
  34.4044352  56.3804102  10.4736876  33.5916734  55.9344769  10.2353811
  34.9838567  55.6792116  10.7717121  71.8288321  20.6185125  53.1350904
  70.9363634  20.8829568  53.3582502  72.1846348  20.2645324  53.9501577
   0.3035696  12.1307777  69.6036537  -0.4560367  12.2192929  69.0279829
   0.5295475  13.0298732  69.8419664  42.2103596  50.3881693  11.3409722
  41.3900280  50.1611853  11.7788815  42.1940088  49.8857594  10.5263877
  54.5507669  47.5789165  11.8744063  54.3039417  47.2862768  12.7517152
  53.8248110  48.1366682  11.5948868  37.8077388  14.6039927  20.5212998
  37.6600170  14.9172437  19.6289527  38.6095047  15.0459957  20.8006525
  60.0298643  22.1479511  20.9901905  59.6154928  21.9132233  20.1598716
  60.1644087  21.3114619  21.4356279  17.8708827  57.1598339   5.2731478
  18.3701813  57.9629707   5.1251358  17.8427672  56.7339611   4.4163686
  44.5811274  78.5291677  57.7340787  45.1865234  78.0089884  57.2057395
  43.9437034  77.8948813  58.0621057  50.8243704  78.0266285   8.8189799
  50.4085398  77.2096157   8.5436451  51.4500284  77.7615929   9.4931793
  19.0700825  16.6981481  50.2873903  19.1561755  17.2485088  49.5089775
  18.4677657  17.1788524  50.8551674  51.8616438  39.9261570  20.9761429
  51.3871050  39.4710088  20.2805281  52.4734020  39.2729783  21.3157654
  84.4257259  39.6459794  17.6709628  84.8850441  39.7124529  18.5081267
  83.5782909  40.0620365  17.8290200  16.8329314   0.4240268  10.0256741
  16.7440311  -0.3977544   9.5429730  16.7048065   0.1786464  10.9419739
  42.8014424  64.2108112  52.8072899  43.5442879  64.7269469  52.4942105
  42.1597197  64.8620825  53.0906122  37.9718804  49.4573212   1.4142168
  37.4843192  49.3201065   0.6020053  37.5074458  48.9301825   2.0643352
  19.8360880  25.4787896  67.7025767  19.8746308  24.8243116  68.4000020
  20.7515915  25.6390355  67.4736392  41.5221548  44.0057230  21.2820411
  41.6605520  43.1671000  20.8418226  40.8091164  44.4176054  20.7940197
  65.9560695  62.4179750  38.2691484  66.5470829  62.7207356  37.5797491
  66.1926880  62.9417663  39.0345793   3.6202113  70.4740720  64.5107263
   2.7838532  70.8006816  64.1789734   3.9516608  69.9106412  63.8114976
  35.8077431  46.5236616   6.8663245  36.4813447  46.2368059   6.2497181
  36.0728574  46.1443520   7.7042198  41.8588599  21.5784095  61.2544959
  40.9764775  21.4678786  60.9003555  41.7510374  21.4817832  62.2006827
  29.6691775  63.9817142  33.7082362  30.1661253  64.5735693  34.2730260
  30.3335166  63.5460949  33.1742668  78.5627564   1.3072274  63.7522995
  77.8266915   1.8286012  63.4319883  78.7668808   1.6820453  64.6090835
  35.7767963  39.3282938   8.8924974  35.2270913  38.9395070   9.5728660
  35.3284192  39.1183329   8.0732864  13.5425943   7.1019786  16.1313057
  13.5223335   7.9310076  16.6093409  14.4702476   6.8687003  16.0955846
  73.6521721  72.7007914   7.3651302  74.0433121  73.5631371   7.5051159
  73.8045740  72.5162554   6.4383328  68.5512066  34.8720145  16.3364315
  68.7592411  34.4558930  17.1729708  67.5972891  34.9511552  16.3389647
  43.3873367  48.1533194  16.5913260  43.7062740  47.8787708  15.7315981
  42.5002289  47.7974367  16.6425514  52.1712542  32.5989914   0.8758399
  51.4007759  33.1456828   1.0298746  52.9115248  33.2006288   0.9549999
  36.8875837  74.3445206   0.5926919  37.2771955  75.1226854   0.9913091
  37.2399259  74.3293285  -0.2971713  42.9989060  22.4856542  49.9806242
  42.7200373  22.2365735  49.0994745  42.9045208  23.4379600  50.0014883
  30.7442435  31.6345523  63.3070385  30.3945168  31.2748264  64.1222196
  30.8474930  32.5697969  63.4828012  43.9699602  76.4964008  23.2500601
  43.8116884  76.9266605  22.4097872  44.1225529  77.2159433  23.8626003
  16.6238078  24.0954231  68.6206693  16.2643393  24.0868400  69.5077656
  17.1804913  23.3177970  68.5802867  70.9643745  37.9503846   3.4893617
  70.7004929  38.7924385   3.1184953  70.2635956  37.7285528   4.1024941
  40.4608345   8.0594540   1.8828480  39.8679876   8.7232733   1.5305540
  40.1874304   7.2454530   1.4599010  83.6956468  69.9747568  41.3885646
  83.3134999  70.8476096  41.4797907  83.0769601  69.3948250  41.8325668
  56.2182331  46.8524456   6.0485703  57.0883894  46.6084337   5.7331038
  56.3583994  47.6664305   6.5323240  48.3956623  27.0317245  22.3594832
  47.4506950  26.9901276  22.2127342  48.6878204  26.1222601  22.2982407
  60.4770327  54.0834093   2.2144645  59.9714994  54.8300076   1.8931195
  61.2603092  54.4736385   2.6023144  16.4544117  55.1969624   9.0895122
  16.8816447  54.4027042   8.7687910  17.1665728  55.8289051   9.1880256
  41.6084957  35.1737332  15.7953012  41.0369396  35.6403708  16.4050591
  41.0376167  34.5287180  15.3778243  71.0712528  67.5124645  29.5143700
  71.8731451  67.1753550  29.1149259  70.5383825  67.8023386  28.7739277
  55.8962727  16.9502640   5.5429226  56.1488628  16.4328480   4.7782582
  55.9488106  17.8585625   5.2454895  61.2032557  52.4876308   0.0305166
  60.7535696  53.1193972   0.5916638  61.9700336  52.9593658  -0.2946704
   7.1835949  42.6306629   6.3433594   6.8019344  42.5745726   7.2193873
   6.7405273  41.9441891   5.8446783  38.6379194  34.3077207  24.8958015
  39.2617059  33.6734986  24.5424080  37.7808452  33.9738536  24.6308684
  47.1081734  60.2759790  15.6789827  46.7679596  59.4200993  15.4182875
  46.8953276  60.8520794  14.9447906  -0.1805924  70.8572626  43.0917406
   0.7563736  70.9257412  42.9083443  -0.4692410  70.0989342  42.5839567
  54.3153731   3.6890357  58.2124567  55.0495402   4.1256373  58.6444426
  54.6124236   3.5549205  57.3124504  33.9284134  52.0329189  28.8981915
  33.1910968  51.9395685  28.2949686  33.5466981  51.8984652  29.7656298
  37.8633499  45.2079487   5.2144915  37.7965403  44.2642450   5.0688964
  38.5944319  45.4843807   4.6619216  21.0273043  62.2975951  41.4242535
  21.0035578  61.8343263  40.5869656  21.7104737  62.9587346  41.3128858
   6.4585002  31.7349408  58.3479124   5.8741244  32.4009774  57.9857915
   7.1980747  32.2306846  58.6993294  33.8486966  17.7358888  67.6490723
  33.7678345  18.6577199  67.4042904  33.5506876  17.2558759  66.8764066
  78.3884335  46.4535284  22.7282810  79.1593218  46.5231276  23.2914162
  77.8872776  47.2487926  22.9089212  19.4317973  76.0635185   8.9938921
  20.3811002  76.1469316   9.0838808  19.3030083  75.7443476   8.1007105
  61.1670876  43.7423611  10.7499993  61.0644102  42.9025173  11.1976063
  60.3461027  43.8611698  10.2724004   8.2580249  79.0552574  40.3047400
   9.0379969  79.2298394  40.8314257   8.5963408  78.8791638  39.4268089
  81.4581996   4.3701957  64.2843514  81.5689069   5.3208945  64.2720150
  80.5102498   4.2391608  64.2630964  63.2930428  14.7850011  56.0526996
  62.9966027  15.4591773  55.4412740  63.4037149  14.0030645  55.5118161
  63.3624568  55.4323416  42.4190431  63.2553377  55.9261291  43.2320195
  62.5640836  55.6122272  41.9225865  60.3806694  31.4355014  65.0255697
  60.7310112  31.5301679  65.9113061  59.4744786  31.7363427  65.0930142
  54.0576792  44.7510672   6.6835302  53.9117479  45.6967878   6.6600603
  53.5466242  44.4484186   7.4341679  60.7731581  16.3007438  20.1153278
  60.4858494  16.6789401  20.9463811  60.5353022  15.3757012  20.1781964
  40.1241446  61.7064238  30.1141429  40.3449011  61.4004612  29.2344356
  40.8512402  62.2792292  30.3579879  14.6944654  71.7405128  18.8276732
  15.5953491  72.0244503  18.6726892  14.1677403  72.2848415  18.2424390
  12.4041533  60.9611607  20.9804916  12.6207471  61.4056969  20.1609159
  11.7747033  60.2858353  20.7275796  61.0073709  48.7932873  12.0286536
  61.3378096  48.6343670  11.1444664  61.4125347  49.6199465  12.2907782
  12.0749056  47.9202652  10.1281393  13.0191207  47.7961874  10.0317287
  11.7389131  47.9074860   9.2319375  52.4473572  61.4002991   8.2891995
  51.9088030  60.7478523   8.7369752  51.9070530  62.1903563   8.2785350
  53.1863022  23.7401056   3.9706987  52.5079250  24.0302157   3.3608827
  53.7013626  23.1059027   3.4719709  69.9678365  12.3603575   6.0145545
  70.5823747  13.0191462   6.3379270  69.9549572  11.6893523   6.6970658
  66.2675619  68.2496214  12.3944473  66.6342163  67.3747158  12.2666192
  66.9309235  68.8414955  12.0396757   9.8013729   2.7342551   8.2658976
   9.8937744   3.6827700   8.3554071   8.9035123   2.6090091   7.9586542
  55.7316914  66.5790873  46.3938957  56.2224164  67.2931748  45.9870820
  54.8232069  66.7355328  46.1361843  25.2834757  14.6645187  58.2041448
  24.6573504  13.9938710  58.4769659  26.1159619  14.1982387  58.1281584
   1.1275700  51.4060211  29.3062735   0.1970503  51.6152143  29.2250037
   1.5621486  52.0087528  28.7028766  82.1071339  43.8835049  26.3591480
  82.7150154  43.9059591  27.0982099  82.3170757  43.0697155  25.9009933
  46.7169905  54.3906021  21.6983461  46.8209267  55.0065708  20.9730768
  45.9410048  53.8792658  21.4689708  53.3741426  54.4302797  22.2827148
  53.6767960  53.5244989  22.3474145  53.9341640  54.9138880  22.8899503
  44.8329830  59.7106314   1.9405335  45.5164051  59.7392750   2.6101220
  44.0743923  60.1218987   2.3548128  57.1976948  50.7325697   4.8603439
  57.5648260  51.0529804   4.0364611  57.9552937  50.4190493   5.3542811
  68.4199142  44.1580582   4.3608001  67.5801182  43.6995792   4.3886539
  68.1898308  45.0841284   4.4361937  56.8199863  45.0969221  57.8728669
  56.8825879  45.3155824  58.8026529  56.6717091  45.9370135  57.4387103
  80.1902962  35.7344484  15.9311485  79.7088194  34.9370122  15.7108998
  80.2591515  36.2091541  15.1028109  46.7120934  31.4742827  12.0624161
  45.8624029  31.1478996  12.3586154  46.5419865  31.8268466  11.1889219
   3.4114703   3.7818931  67.8524610   4.2188486   3.4995101  68.2821480
   3.4398969   3.3647941  66.9913848  26.6299160  24.3199943  60.8901279
  26.3417633  25.2327131  60.8780747  27.0308264  24.1840432  60.0316279
  82.4204078  81.1202317  55.3713005  83.1079068  81.3868218  55.9816330
  81.6179814  81.1353569  55.8929425  78.5507250  61.7895365  12.3468995
  78.6575127  61.1774111  13.0750012  77.7306318  61.5251541  11.9300318
  18.0594929  26.8074201  66.2581971  18.6119707  26.1728309  66.7145955
  17.6470383  27.3132060  66.9584080  60.6081745  12.6904462  56.6869932
  59.9138689  12.1087096  56.9964354  61.0704589  12.9557298  57.4820714
  45.2421379  54.2283964  14.2098939  45.5299377  53.3236408  14.3316281
  46.0539484  54.7321653  14.1514814  49.2327738  56.6811800   6.3175762
  49.5474148  55.7933807   6.1471504  48.3153534  56.5666866   6.5654927
  18.5571488   1.4305042  70.5947166  19.3610819   1.1365817  71.0231232
  18.7647971   2.3071931  70.2713962  29.0018582  72.9030800  38.0336714
  28.5885119  72.6840591  38.8687778  29.4032907  72.0841646  37.7430582
  46.3579043  38.1075834  61.5993785  46.4516362  38.7305759  62.3200243
  47.2108229  38.1137775  61.1649554  39.6108985  45.2802753   2.4213254
  39.9410176  46.0667944   2.8556561  40.0710821  44.5588017   2.8502065
  73.0404186  64.6107292  16.7385173  73.4836817  65.0889301  17.4392819
  73.5008097  64.8728275  15.9412861  14.4323214  13.0138038  58.7224441
  14.7799786  12.1275542  58.6228340  15.1319178  13.5829709  58.4017544
  70.3015041  62.7758312   2.7385688  69.4455528  62.9500437   2.3471193
  70.6626177  63.6433840   2.9207233  56.1655434  35.1972268  64.3194085
  56.6802510  35.4294227  63.5464954  55.5199059  34.5683120  63.9971440
  12.2623074  29.9556494  10.9100115  11.7493784  29.3264985  10.4027593
  11.6778827  30.2252793  11.6185176  55.8518362  72.1075916   1.4195336
  55.0587368  71.5720415   1.3993672  55.9580421  72.4123287   0.5183740
  24.0743923  53.1379986  44.4364595  24.5299292  52.6120615  45.0938129
  23.1897640  53.2447386  44.7861338  35.8482337  63.9626694   5.1700079
  36.7973447  63.8952112   5.0657636  35.4906654  63.4436607   4.4495845
  50.6057262  70.9267044  21.7306066  49.6735764  70.7656240  21.8768144
  50.6439781  71.8211460  21.3918734  36.5056038  27.2836733  35.3493619
  37.4189043  27.0111012  35.4377675  36.3271475  27.7849030  36.1450696
  50.3154850  67.1313810   5.5087692  50.5385876  67.4295902   6.3905460
  49.3636036  67.0316839   5.5233276  83.8945371   6.8982862  51.6649895
  83.4515912   7.0160459  50.8246546  83.6805541   6.0022901  51.9250446
  46.9137599  68.3183842  52.3519152  47.2746839  68.0298357  51.5136402
  46.4672818  69.1406804  52.1501248  21.2605675  42.5559543  58.0779343
  21.6599425  41.9619868  58.7134915  20.5788573  43.0118011  58.5716050
  44.4084024  29.7428584  15.4873550  45.0005007  29.1068268  15.0859678
  44.8948860  30.0820327  16.2387049  35.0888880  19.9953769  51.0016292
  34.4409045  19.8421500  51.6892820  34.5689734  20.1812003  50.2197152
  40.2807188  28.1405020  18.7097025  40.6141710  28.8069963  18.1090140
  39.4452024  27.8708410  18.3283508  52.7768030  51.7421477  63.8402610
  53.0623021  50.8597689  64.0771788  52.2072401  52.0111971  64.5609849
  20.7762011  28.0750392  57.3110788  21.2623843  28.8077663  56.9329684
  19.9874838  28.0077670  56.7729037  17.8640660  18.0109571  24.9714523
  17.2712096  17.5790857  24.3564468  17.4232872  18.8312028  25.1931386
  68.7759018  48.4466934  14.9636197  67.9863548  48.3636570  15.4983675
  68.5734463  49.1484690  14.3449473  49.9513149  25.5266142  16.0884058
  49.6634722  26.3541961  15.7030690  50.8195162  25.7169771  16.4436722
  66.9785738  70.6430149  19.8341596  67.3651314  71.1973286  19.1562676
  67.3216772  69.7680664  19.6525586  48.7771519   1.4460967  67.1230068
  48.2048281   1.0177777  67.7595707  48.2477387   2.1596978  66.7670210
  20.0059152  25.4487038   1.3861966  19.6181285  25.1892781   2.2219899
  19.2812300  25.4057479   0.7623234  26.6227539  17.0088695  56.1905055
  26.9633873  17.1326230  57.0764428  25.8588370  16.4434598  56.3044255
   1.1447271   7.2824262  61.8543922   1.4851411   7.7940295  61.1204904
   0.2936586   7.6761506  62.0464819  18.1899889  14.0129255  51.2691420
  18.7707814  14.0020011  52.0299225  18.2101925  14.9204276  50.9653955
  38.4562063  44.3679523  12.9191613  37.7688432  44.4583988  12.2591746
  38.7088609  43.4456587  12.8770030  85.8350005  60.4403274  67.3988076
  86.6078439  60.2674978  67.9364636  85.5455699  61.3119178  67.6686098
  80.9508433  80.2834230  64.8424923  81.0940375  79.3510824  64.6797960
  80.3997245  80.3081756  65.6247251  80.5364990  63.0483246  37.3252511
  80.8717442  62.2866344  36.8523121  81.2989902  63.6163235  37.4357224
  32.1266866  59.1016817   4.5470321  32.3738670  59.9559307   4.9011409
  31.4191079  58.8015509   5.1175457  76.3265038  36.7382932  17.0385110
  75.8431721  36.1273408  16.4823067  75.7328367  36.9199204  17.7670741
  40.5822897  55.7262325  22.7996302  40.2659702  55.4508305  21.9392061
  40.8407068  56.6399145  22.6786327  24.2927003  80.3695679  32.1532512
  23.4263444  80.0995636  31.8486977  24.4285011  79.8728323  32.9601216
  26.3967013  31.5798593  13.1793296  27.1399975  31.2112451  13.6566818
  26.3708234  32.4980950  13.4484136  14.4081569  19.8282957  12.6128197
  14.5755565  20.6941128  12.2405708  14.5788801  19.2209828  11.8929195
  29.0947604  79.9111462  22.3837519  28.7578130  79.4770956  23.1675243
  29.8199201  80.4493713  22.7010608  39.1319203  48.4053707  18.1954610
  39.2789173  48.0045033  19.0521574  39.6562290  47.8792477  17.5917017
  47.0121010  26.9831012  67.7443289  47.1743067  27.2527621  68.6483213
  46.7941578  26.0531638  67.8072282  78.0846453  35.3740835   9.7752142
  77.5213099  35.9633589   9.2735744  77.8604937  34.4996738   9.4567895
  61.5469790  78.6128378  17.7685285  61.7190170  79.5522594  17.7043128
  62.1767426  78.2124853  17.1690714  74.3136740  47.7170753  42.5331402
  74.9958467  48.2243299  42.9730988  74.5476294  46.8043280  42.7016497
  59.1320610  76.0684347  25.6012177  59.2711353  75.2986526  26.1528778
  59.4061804  75.7896471  24.7275090  54.7416981  10.8999274  70.3170949
  54.5836743  11.1710237  69.4127893  54.9959477  11.7052911  70.7676224
  61.0292912  46.4589548  13.4812069  60.9447336  47.3448467  13.1286800
  61.8567514  46.1368752  13.1237030  22.7073908  13.7022924  23.6065245
  22.8338051  14.5476449  24.0373731  23.0082321  13.8436019  22.7088833
  76.7101350  63.4352236  32.6549130  76.9738021  62.6985436  32.1035390
  77.2352948  64.1706281  32.3392873  48.4972000  43.9800024   6.9026232
  49.2349768  43.3734560   6.9660467  48.4408617  44.3801832   7.7703273
  17.3890281  55.1260853  54.5868826  17.1411180  56.0191727  54.8259783
  17.3926198  55.1266336  53.6296892  32.3883017  22.9989885  53.2358878
  32.2064694  23.9000343  53.5028820  33.3268412  22.8887866  53.3883076
  53.8580235  10.9784101  65.1849412  54.3937310  10.2293704  65.4460793
  53.9251526  11.5885518  65.9194156  10.9062688  77.7489262  61.1510342
  11.0686414  76.9742160  61.6892617  10.6436459  77.3984843  60.2998870
  67.7066374  27.1654701  13.2057095  68.3939934  27.6123786  12.7117014
  68.1027222  26.9858479  14.0584028  69.4973898  54.9410629   5.0458431
  68.6573601  55.3737164   4.8928738  70.1386118  55.6516266   5.0330454
  85.2167892  59.0019083   5.2179146  85.3360558  58.3242321   5.8833206
  85.1414967  59.8159075   5.7158768  34.5883393  19.8375106  16.5978801
  34.5963216  20.6954217  16.1734307  34.9144244  19.2360449  15.9284484
  83.0094105  15.4244254  68.4631581  83.2876021  14.8686956  67.7351462
  83.6064035  15.2005504  69.1770977  83.2509007  76.6415291  62.4824726
  83.0547919  76.1347681  61.6944592  83.0374732  77.5441795  62.2460394
  16.8642871  72.7705913  44.0203195  17.2606532  72.0668106  44.5339518
  16.3177220  73.2454615  44.6464162  62.9403305  57.7139425   2.1000788
  62.0721626  57.9081202   1.7467877  63.3464479  58.5720062   2.2226371
  61.4768457  65.9560394  12.8909612  61.4468765  65.6415558  11.9873929
  61.6068602  65.1659060  13.4153795  73.0344534  80.6639671   0.9632974
  72.6508284  81.5392017   0.9081620  72.2814798  80.0734234   0.9861012
  19.7407615  72.0842361  23.8569593  18.9523733  72.1748495  23.3217335
  20.0601530  72.9799032  23.9664817  56.6833115  62.4035835   1.1170007
  57.6392698  62.4453974   1.1420856  56.4461946  62.8344393   0.2957996
  48.0062874   6.9134353  61.7153829  48.5312804   6.5094493  61.0244345
  48.5683783   7.6011775  62.0721655  52.0663852   5.1940749  70.3281889
  51.2163776   4.8227332  70.0919155  51.9460500   6.1400054  70.2447420
  74.9511057  30.6797145  53.3689635  75.3635973  30.9336065  54.1945677
  74.8588544  31.5003846  52.8849953   4.5135166  75.0184393   1.9268006
   3.8234474  74.8950243   2.5785714   4.4745685  74.2305517   1.3846286
  86.5071645  73.9356332  66.4997422  86.2533536  73.0187159  66.3945045
  85.7608142  74.4309860  66.1623725  39.8705594  69.3165880  64.4233840
  40.6300751  69.8944788  64.3498259  39.1587178  69.8024159  64.0068661
  78.2292223  45.7718611  15.0560439  77.7604771  46.2227392  15.7583368
  77.5427437  45.3352690  14.5516992  42.0573195  27.5781224  57.1256237
  42.1097191  26.6232894  57.0833557  41.4803179  27.7536557  57.8689199
  50.9471574  71.9497447  59.8784750  50.3386965  71.2409478  60.0873201
  51.4261665  71.6359883  59.1114431  44.0967520   8.3961700  58.9989059
  44.3100222   7.9650901  58.1713109  43.1475647   8.3028291  59.0799420
  15.3921660  79.6452957  17.6571178  15.5525359  79.5988048  16.7145932
  16.2352475  79.9012644  18.0311823  69.2528248  57.4968576   7.3162645
  68.4817266  57.9919529   7.0396453  68.9247751  56.6118479   7.4755359
  59.0180063  68.6061859   1.9831809  59.7109890  67.9498672   1.9106908
  59.2187881  69.0782356   2.7913201  20.5407437  40.5134319  67.8613331
  19.7559031  40.9352325  67.5115650  21.1800488  41.2218497  67.9365983
   0.3591197  21.0716002  34.6449113   0.6350797  21.8159907  34.1101575
   1.1450618  20.5314772  34.7273445  29.1304406  11.5752290  33.7801748
  29.7278412  11.6128801  34.5271211  29.6771725  11.7921994  33.0250340
  42.5620365  52.7890348  18.7876034  42.3102713  51.9816256  18.3393502
  43.0594540  53.2806921  18.1340861  22.7527722   7.2542546  66.7214244
  22.2405775   7.1258853  67.5198030  22.4149712   8.0685209  66.3484722
  29.7193122   7.3044783   3.9852235  30.6403065   7.3098481   4.2459396
  29.2697215   7.7792335   4.6842992  56.5311351  71.3718753  41.1112767
  56.7146625  72.2784214  41.3576990  57.3751249  70.9270268  41.1888676
  41.3546856   8.2793449  59.0196519  41.1421259   7.6940845  58.2926577
  40.8410223   7.9445575  59.7547059  27.4697345  11.4805835  28.7655640
  27.0562881  11.3638728  27.9101849  26.7408794  11.6479914  29.3630338
   6.8652948   6.6684745  54.5836490   6.1385401   6.2886117  55.0773733
   6.5602024   7.5433419  54.3433206  81.4563751  70.8196259  24.0454769
  81.4897728  70.5091333  24.9503016  82.3738384  70.9322596  23.7968826
  67.1692753  73.2163239  24.2652941  67.2641277  73.3683825  23.3250213
  67.2425222  72.2669458  24.3629766  39.9125236   3.3842318  32.9412150
  40.8416313   3.3505481  32.7135110  39.6601814   2.4677985  33.0539942
  38.4663208  27.8204463  55.0084191  39.1170128  27.1437524  54.8215537
  37.6649483  27.5037645  54.5915966  26.9487613   4.3751471  11.3194537
  27.5281185   4.6782248  12.0185387  27.3086399   3.5266249  11.0611355
  27.0084613   0.9086268  16.0123062  27.8703254   1.2932818  15.8527541
  27.0099491   0.0980895  15.5031335  59.0354967  69.3611813  14.5509684
  58.8972807  69.9644375  13.8207567  59.9214792  69.5548058  14.8571956
  31.0630655  70.0398016  40.4474688  30.9373045  70.8590460  40.9262800
  30.6677127  70.2000761  39.5905924  60.3863096  56.5656519  14.1369569
  60.6862164  55.6883907  14.3750834  59.9708223  56.4528894  13.2820380
  54.2396593  58.3644104   5.1256704  53.9175129  58.7735415   5.9288311
  54.1721630  59.0518141   4.4629857  13.5535139   1.0158294  21.9603658
  13.1922954   0.2078765  21.5957212  13.1555313   1.0858958  22.8280830
  12.5930836  41.6288805   5.2547497  12.5902988  40.7151842   5.5400246
  13.1709530  42.0720005   5.8759898  15.5447348  25.8300946  55.2971654
  15.8321007  25.4775403  56.1393981  15.3452261  26.7487262  55.4775708
  40.5978727  51.9432783  23.5064912  40.0565052  51.5655804  22.8133106
  41.4975882  51.7795181  23.2237887  76.6740171  10.7773345  37.2361016
  75.8451978  11.0310309  36.8299866  77.1919386  11.5822451  37.2464418
  19.2711681  12.8051036   4.6383718  19.0047067  11.9872420   4.2184505
  20.2230304  12.7370303   4.7129163  50.3270292  48.3510542  53.0086613
  50.2997589  47.4175739  53.2186794  49.4498634  48.5483837  52.6802206
  73.0597258  70.8083439  29.3920612  73.0156565  71.6476583  28.9339757
  73.7919092  70.3491068  28.9806724  52.7610024  10.8825706  68.2302528
  53.5832222  10.4562734  67.9884582  52.8461083  11.7749189  67.8945395
  80.1766593  46.1901019  57.5465017  81.0229808  45.7883666  57.3500841
  79.8910004  45.7639049  58.3545762  58.0320597  58.5721731  20.2644968
  57.7908134  58.0785465  19.4806826  57.3278427  58.3919287  20.8872533
  64.6773195  38.9111400  15.5981612  64.2099667  39.6639562  15.9602070
  65.5966091  39.0767717  15.8072126  57.9938078  59.4596720  27.8123879
  58.7926912  58.9355373  27.7549481  57.2877026  58.8153553  27.8623915
  25.8575551  62.1236067  50.6665402  25.4338662  62.3012596  51.5062802
  26.0921304  62.9880553  50.3289991  12.2149237  16.9113086  69.2807966
  12.1640547  15.9741090  69.4686743  12.0026739  16.9808648  68.3500197
  81.5756893  48.5900688   8.3842129  81.2079334  48.8268614   7.5327933
  82.3593235  48.0822659   8.1737745  10.5888049  68.9174276  47.8950100
  11.5273635  68.7465434  47.8166204  10.5181662  69.5385175  48.6199170
  20.2050265  38.4561322  54.9635880  19.6396788  39.0142892  54.4296651
  20.2781351  37.6423858  54.4648879  75.2438680  15.1931994  25.7464504
  75.4294483  16.1071627  25.5309010  75.9973327  14.9117606  26.2654090
  35.0870379  30.4158424  59.0093058  35.0076159  29.4632219  58.9599173
  34.2342718  30.7424758  58.7223738  76.7032099  62.4869204  52.2123146
  75.7761526  62.5430775  52.4439240  77.1407938  63.0700493  52.8325701
  13.3409112  10.1410811  23.6275721  13.0488056   9.6588652  24.4011235
  13.9502948  10.7954257  23.9692116  78.8992167  17.1798599   7.9258615
  79.1016531  17.1633780   8.8612646  79.3825912  17.9344523   7.5894529
  60.5509186  74.3043995  19.1972089  61.1051083  73.7132645  19.7067833
  60.8243847  75.1811457  19.4669628  58.9044762  50.5999756  13.1211710
  59.2030954  51.4817858  13.3435905  58.8111401  50.6118584  12.1686065
  26.2078261  61.5751553  23.9055657  25.8414268  60.8073139  24.3441987
  26.1647153  61.3618279  22.9734373  36.4971558   9.9783843  31.4325953
  36.1687587   9.0905516  31.2906814  37.4399130   9.9121611  31.2807512
  59.2659998  75.8160305  42.5467730  59.5500898  76.5085077  41.9501162
  59.5422268  76.1173868  43.4122896  82.1884100  10.2022784   1.7791741
  81.5393678   9.8051684   2.3599276  82.2479622   9.5989745   1.0384266
   9.1055347  69.6991873  17.2469199   8.2345058  69.5545959  16.8772840
   9.6956207  69.2225838  16.6630745  59.8094797  32.6279712  10.5835521
  59.3795633  33.1331968   9.8935199  60.2941370  31.9478250  10.1158512
   4.6612503   2.6422817  49.6208858   3.9917137   2.0889032  49.2187214
   5.1297047   3.0278295  48.8805294  55.0100660  34.9351692  19.9612331
  55.6192207  35.5243874  20.4061913  55.2566099  34.0616417  20.2652049
  56.8614674  58.5822630   7.5968862  55.9337425  58.5188723   7.8238928
  56.8754625  59.0910339   6.7862141  59.1174650   3.5927182   3.9470083
  59.1060591   3.1136334   4.7756088  59.9314022   4.0958047   3.9724049
   5.5633942  56.2453657  60.8575099   6.4224879  56.6660982  60.8917450
   5.4005543  55.9598082  61.7564946   2.3112830   1.7320512  60.9412127
   2.2866996   1.2157367  61.7468487   2.9244359   1.2633680  60.3749853
  47.4547482  26.7847490   7.6750141  47.9057646  27.5480199   7.3141313
  46.6214705  27.1288538   7.9966885   0.6853978  74.8288470  70.2110372
   0.1623313  75.3287416  70.8377266   0.0708310  74.6021824  69.5130662
  71.2696981  53.1270790   8.5142529  70.3833580  53.0207062   8.1688237
  71.2966442  54.0300417   8.8307422  33.5742574  57.0937281  42.4842124
  33.0235227  57.3515897  41.7450028  34.2210820  56.4987677  42.1049099
  59.9394941  28.8414001  20.6245446  59.9980259  28.8855672  21.5789318
  60.8450699  28.9218879  20.3250670  21.4345980   1.9352950  16.9036579
  21.6693711   1.8613024  17.8286648  22.0261908   2.6043093  16.5591741
  63.4227123  68.4992485  52.3828249  62.7761259  67.8077965  52.2412210
  64.2549577  68.1065016  52.1194833  66.3096476  12.6880133  10.1929450
  65.7667017  12.5502133  10.9691226  66.4765072  11.8070340   9.8578864
  13.5663756  24.6007369  58.4894877  13.5280045  24.3675874  59.4170659
  13.4164484  25.5459903  58.4737151  55.7299709  22.3691964  13.4126139
  56.2033081  22.0506096  14.1811764  55.9676886  21.7586255  12.7148151
   2.3055466  13.4838603  54.2051130   2.5677498  12.8066657  54.8287242
   2.1470769  14.2582248  54.7450059  68.2832057   1.0239194  46.2996250
  67.8128237   0.9476255  47.1297770  69.0073186   1.6207240  46.4886051
  31.7664886  28.7145329   9.2238927  31.4746761  29.6088934   9.4005197
  31.2606049  28.4444904   8.4574801  80.6387582  65.6642752  67.8037801
  80.1001038  65.9769350  67.0769178  80.1514783  64.9218231  68.1609311
  32.6887560  63.2565117   9.9207217  32.0949149  64.0009975   9.8241562
  33.1352568  63.1951857   9.0762645  53.0692148  18.7043357   2.2614805
  53.3377314  19.4353366   1.7049122  52.2331429  18.4178996   1.8938296
  30.2176388  14.6157525  53.3882349  30.7968005  13.9908288  52.9520302
  30.2460965  15.3957532  52.8341394  78.0915546  27.9305601  12.5365853
  77.2795439  27.6999831  12.9879189  78.0287457  28.8756561  12.3984492
  57.3521137  53.3811426  21.1347628  57.6643848  53.1386375  20.2630377
  57.2187233  52.5456476  21.5824056  11.7993275  78.1595521  49.7251945
  10.8760468  78.0894309  49.9678092  12.2329013  77.4727564  50.2317076
  78.8870287  19.5908701   1.7050628  78.1177902  19.7618854   2.2484361
  79.3212175  18.8514781   2.1305189  77.1860614  59.5758908  42.1210795
  76.5042224  59.4149690  42.7733283  76.9909253  58.9610296  41.4139014
  81.5086460  55.6591463   1.0572993  82.3532200  55.9832287   0.7444198
  80.8900547  55.8970356   0.3666563  85.9764098  31.7204785  14.2041540
  85.2828410  31.2897635  14.7038329  85.5478533  32.4757767  13.8015425
   8.3553751  11.2535070  63.0574291   9.0122302  10.7585023  63.5470646
   7.6340111  10.6366895  62.9333358  57.2869863  63.2613616  62.8861921
  57.0206227  63.7517887  62.1085267  58.0982079  63.6833077  63.1692379
  77.8445687  69.5609670  64.9363076  77.1881976  69.7792321  64.2746650
  78.2218137  70.4042845  65.1867663  45.9357834  10.0199175   7.1864110
  45.7050228   9.7740012   6.2905836  45.4870892   9.3762010   7.7346206
  57.8947973   9.5163792  24.2960048  57.6521683   8.6079240  24.1169143
  58.0551243   9.5399463  25.2393866  84.7792973  74.2332750  11.6561466
  84.8864283  74.9537926  12.2771221  83.8723769  73.9499574  11.7721515
  74.8489803   8.8472245  66.9243833  74.6451468   8.4169315  67.7547627
  74.2798382   8.4175084  66.2859081  30.8738957  74.6192222  60.0154763
  31.7319264  74.4866138  60.4185014  30.8299782  75.5609875  59.8499983
  48.3543279  75.8920103  59.3325084  48.4122851  75.3027015  58.5804539
  49.1725101  76.3883644  59.3114655  58.0353823  71.4267044  64.5380699
  57.9781094  72.2623330  64.0747362  57.5295796  71.5619855  65.3393780
   3.9577548  64.4895606  53.3876412   3.0299107  64.7201400  53.4342556
   3.9658992  63.5989647  53.0369180  37.6166749  39.3421078   2.3835136
  37.5246549  38.6028910   2.9846156  38.5560131  39.5257878   2.3717977
   8.3762519  37.4875408  53.6831456   7.6567761  37.9014539  53.2064264
   8.4184853  37.9627898  54.5129567   5.0134341  62.7119761  41.3562375
   5.8711354  62.8301530  41.7644196   4.3953053  62.7351098  42.0867258
  60.0084400  56.4942789   8.2801169  59.2480946  56.9797039   8.6002296
  60.1539707  56.8325806   7.3965991  40.4136809   6.7805503  38.2271343
  41.1475380   6.8422292  37.6156788  40.0253447   7.6554321  38.2242613
  83.8111844  67.8927069  66.8109994  82.8720822  68.0777650  66.8025722
  84.1647830  68.4786992  67.4801879  61.1043739   3.7304825   6.5620178
  60.2580547   4.1215330   6.7789459  61.4016676   4.2148751   5.7918143
  33.3582282  51.7876816  24.5224380  32.5936460  51.7206049  23.9504695
  33.3797336  52.7074432  24.7866559  46.8548020   9.5902703  63.2328164
  46.0101755   9.3845819  63.6334734  47.3652037   9.9855922  63.9395302
  22.2699650  70.4649169  15.5635405  22.8429469  70.1118011  14.8829293
  21.7919787  69.7037966  15.8928704  83.9238992  74.2321616  68.2845028
  83.1394257  73.9877158  67.7935102  84.2874684  73.3993130  68.5851901
  28.4560355   1.1150573  49.5820051  27.8064688   1.2990354  48.9034443
  27.9671152   1.1708663  50.4030257  66.6846704  54.2833567   8.4688389
  67.2360039  53.9567423   7.7577949  65.9382200  54.6877813   8.0267060
  39.3828980  66.2985187  60.0773280  38.4904401  66.6407471  60.0260489
  39.5168130  66.1172157  61.0076129  32.2591233  33.0000877  13.3687735
  32.5130820  32.2368169  13.8875747  31.7014122  32.6445675  12.6768243
  75.5233049  52.3386621  13.7233937  75.5635214  51.8489122  12.9019570
  74.9692392  53.0936337  13.5252392  50.3994942  21.8240380   5.0018162
  51.3214302  21.5673280   4.9828029  50.0491285  21.5208650   4.1642234
  65.4243374  53.3424282  10.6510985  65.3824091  53.7585831   9.7901183
  64.6322870  53.6390543  11.0993218  35.7409914   5.5366061  58.4263509
  36.1677321   4.6852134  58.3301144  34.8330887   5.3261445  58.6446290
   3.4309308  71.7477136  50.6722360   3.4914271  71.7771273  49.7174030
   2.8329961  71.0222130  50.8521097  56.2022026  73.7745834  18.9520490
  55.3034123  74.0232159  19.1679049  56.1272629  72.8879816  18.5991287
  51.8333568  43.5806959  56.4404910  52.3618259  43.3332508  57.1992546
  51.3666859  42.7796715  56.2021451  78.7833929  42.2647667   1.8387139
  79.2312431  42.0815611   1.0128199  77.9988575  41.7170095   1.8123902
  68.7238302  74.6223526  46.9661527  69.1209426  73.7627178  47.1060281
  67.7905216  74.4841748  47.1276169  67.8771311  18.2911418  64.5352995
  68.3803875  18.5925172  63.7789022  67.4236572  19.0737603  64.8485076
  39.2103434  47.8192759  21.1731195  38.5052776  48.3777857  21.5005064
  39.8602819  47.8173590  21.8758345  71.2700891  10.7458150  28.5422111
  72.0821476  11.0530996  28.9451647  70.7696867  11.5440571  28.3729815
  55.0885201  70.4061222   6.9759077  55.9642076  70.7076073   7.2177827
  54.9414730  70.7723999   6.1038697  62.4189758  61.0684681  13.4508276
  62.7867222  60.9720516  14.3292892  61.5323400  60.7148981  13.5222113
  62.4492168  30.7593298  25.5607986  63.0381060  30.5503798  24.8356891
  62.0101500  29.9321294  25.7587576  26.9531878   9.0961002  63.6923223
  27.6631649   9.7162746  63.8582962  26.1675700   9.5405410  64.0109318
   4.3404357  81.4932471  64.4075464   3.6465613  82.1376973  64.2680644
   4.2279116  80.8624440  63.6964535  79.3659163  17.0384884   2.6400533
  80.1607513  17.0254683   2.1068655  79.1759253  16.1157346   2.8093472
  35.8531857  50.6335068  18.3159697  35.1875997  51.3106871  18.4370100
  35.6248736  49.9566650  18.9531446  26.3594604  26.0840011  10.2245927
  25.9343910  26.9184422  10.0264537  27.0963693  26.3185763  10.7886600
  12.2634079  36.7053986  14.9002683  11.7981960  36.9444776  14.0986121
  13.1535961  37.0309234  14.7667468  18.1258837  34.5359354  68.7090365
  18.1854979  35.1224428  69.4631497  18.1744735  33.6569279  69.0848254
  81.6974416  33.3146339  49.6196967  81.8948712  32.9659956  48.7503844
  82.5522056  33.4069752  50.0405126  77.6732254  23.2266927  19.3797183
  77.1650839  22.6669836  18.7925625  77.8717375  22.6678705  20.1310802
  13.6158802  22.5342512  22.7536654  13.4381248  21.9608212  23.4991956
  14.5657017  22.6524830  22.7635550  53.9318228  53.9074516  18.2310116
  54.8267412  54.1093445  18.5041261  54.0119743  53.6643171  17.3086810
  32.2834690  11.0662769  64.0851050  32.4760159  10.1868938  63.7597673
  32.5314625  11.0393928  65.0092315  26.2866157   5.6280082  31.0786796
  25.6608242   5.0866263  31.5598440  25.9388774   6.5169471  31.1501360
  58.5888481  31.2070823  21.6742826  58.5228252  30.8645988  22.5656724
  59.2526436  30.6590152  21.2556791  73.3448504  57.4970770  33.8831973
  74.1736208  57.1858215  33.5192037  73.4994827  58.4222317  34.0740061
  67.0516549  22.9364610  43.2469797  67.6726602  22.2167158  43.3590126
  66.1914967  22.5280571  43.3447838  60.5309508  61.3186359  56.8001175
  60.6706498  60.4043818  57.0468092  61.4102553  61.6595650  56.6363525
  77.1854369  40.0795031  48.5393047  77.3037944  39.3485093  49.1458273
  76.3983474  39.8541975  48.0433607  38.8268590  75.7421637  23.8532233
  38.0276394  75.6981468  23.3283043  39.5066166  76.0055876  23.2329249
  15.0293326  50.7481098  28.0133748  15.0830495  50.1686478  28.7733555
  14.2329252  51.2591362  28.1576443   2.7368161  58.2194042  25.2214336
   3.6086702  58.1884098  24.8275542   2.5212574  59.1514826  25.2530122
  66.4121531  68.8980103  25.5498838  65.7630919  68.6960936  26.2238145
  66.8645428  68.0684566  25.3968501  44.6172953  50.5883884  16.9050074
  45.3763533  50.5028200  17.4818408  44.2941475  49.6935177  16.8000484
  85.2111229  33.1016397  45.1378918  84.8768763  33.8722420  44.6788883
  85.6923100  33.4577394  45.8848095  82.2032364   1.2412090   9.0748877
  81.6852864   2.0089597   9.3167872  82.4383267   1.3897819   8.1589789
  50.2686371  63.3794708   6.1090416  50.9724535  64.0033550   6.2869258
  49.9548968  63.1190223   6.9750447  79.5290760  57.4790382  47.4270344
  80.2560244  56.9336891  47.1264172  78.7738757  56.8909121  47.4303722
  65.0416635  39.7535157  45.9732533  65.0709699  39.9790883  46.9030333
  65.5368589  38.9368701  45.9091949  21.4730930  43.0308819   1.7874275
  21.9987607  42.5817633   2.4493948  21.4078593  43.9318085   2.1041369
  68.2092589  19.3617557  68.0871996  68.8248164  19.6469997  67.4119537
  67.5452775  18.8632892  67.6108663   6.7220473  73.3743668  60.7986832
   7.0171094  74.2472696  60.5394316   7.5055927  72.8281736  60.7357407
  15.2461100  51.0227680  31.9280601  15.4272389  50.4881430  32.7011037
  14.9040520  50.4034567  31.2833285  77.3512684  46.1172533  20.1308346
  76.4277123  46.1548376  20.3795600  77.8212259  46.0600567  20.9627604
  39.4467000  10.7785933  32.2713041  38.8146762  10.9542887  32.9683757
  39.7333757  11.6454451  31.9838595  58.0970923   5.7420295  14.7966862
  58.9826337   5.4270976  14.6153998  57.7194015   5.9054606  13.9324689
  83.7157186  26.5414161   4.8654074  83.7634428  27.4589128   5.1340241
  83.3067711  26.0956354   5.6072087  76.9821368  44.1593313  25.1259446
  76.4828609  43.4493208  25.5294824  77.7426176  43.7267637  24.7376347
   8.0451006  75.0603485  14.8023641   7.2680265  75.5620575  15.0486875
   8.7003928  75.2958870  15.4591322   5.1216668  68.4884262  26.1708045
   4.2175016  68.2742548  26.4006901   5.6295621  68.2456827  26.9449806
   9.2591310  23.9144015  46.2177944   8.3427739  23.6928511  46.3834381
   9.4268191  24.6733332  46.7764854   5.5134217  11.4351790  25.4392028
   5.7352082  11.4767592  26.3694263   4.9052278  12.1620887  25.3052664
  77.3585908  45.0382948  54.9136782  76.5660296  45.3820848  54.5015049
  77.9711781  45.7737541  54.9054146   2.6658347  66.0513115  12.1578765
   1.9253963  66.4915037  12.5752676   3.2968926  65.9208488  12.8656733
  37.9723618   0.7825320  56.4374685  38.1551174   0.2943461  57.2402811
  38.6119101   0.4531615  55.8060217  72.6734243  60.1969433  64.3678427
  72.7922748  61.1375523  64.4996071  73.3737467  59.9492884  63.7641478
  11.3431573  60.4282141  36.4833808  10.9654331  61.2597942  36.7697930
  12.0924115  60.2930355  37.0635343  83.4438477  54.1348314  61.4896011
  83.7379108  53.3297062  61.0635376  83.6278222  54.8243570  60.8516836
  64.9227856  74.1353798  34.3477273  65.6227444  73.4938097  34.4688678
  64.6463154  74.3589020  35.2364540  50.9999822  65.8239460  40.7415915
  50.6402419  66.7108965  40.7300425  51.3450478  65.6939173  39.8582697
   5.3723586  60.9145164  25.9023070   6.2712640  60.7138920  26.1629844
   5.1330084  61.6743469  26.4329648  47.9399681  73.8312292  11.0659122
  47.3704433  74.3897247  10.5367959  47.3477554  73.1918192  11.4617240
  10.7357939  11.3049291  68.3025206  11.2683590  11.5517638  69.0586152
  11.0674556  10.4442428  68.0466770  81.8191977  67.5885963  11.8432188
  82.7208979  67.8831577  11.7151451  81.5910367  67.8909397  12.7222896
  75.4877577  75.2136612   4.7347736  75.8412729  75.4584646   3.8795948
  76.2304412  75.2949619   5.3331423  70.6575201  81.3270378  27.4719977
  69.8047422  81.6431522  27.1735525  70.8201812  81.8071461  28.2839465
   1.1788298  71.2376547   8.6649328   1.2541653  70.9713507   7.7486145
   1.8535405  71.9074869   8.7759322   6.9839239  55.9107304   8.5454690
   7.1651405  55.9023571   7.6056165   6.4766610  55.1135921   8.6986989
  47.9095081  16.0628646  42.7786779  47.4618427  16.3040297  41.9677114
  48.7462489  16.5258734  42.7371693  37.6286385   8.0060523  23.0504560
  37.6109395   8.9489692  23.2142711  38.5213999   7.8314154  22.7526116
  31.7383636  18.4649890  48.5057449  31.9431446  17.7065890  47.9588318
  31.8186823  18.1418269  49.4031525   7.3366016  47.5558758  49.2535734
   7.0009720  47.5862789  50.1494884   8.2126331  47.1796227  49.3386269
  63.3155034  70.2236557  68.5557747  63.7694858  69.4050694  68.7558794
  62.7245186  70.0001955  67.8367233   5.8248109  54.8540449  27.3765445
   5.9842801  54.5601082  28.2734299   5.2215022  54.2045927  27.0153522
  29.2532126   3.6954158  35.6012726  30.0684098   3.3350795  35.9503293
  28.6019215   3.0122035  35.7602119  20.9949754   2.5308554  33.4326267
  21.2883596   2.4767058  32.5231075  21.4417467   1.8071978  33.8718915
  13.6975567  21.9507830  17.3965371  13.2533816  21.8991416  18.2428658
  14.5685951  22.2894709  17.6034582  17.6487772  11.2596457  56.8875313
  17.7354304  10.4360430  56.4075232  18.5165099  11.4109271  57.2622108
  46.9789076  74.1892195  34.1704178  47.3755455  73.3195257  34.1200137
  46.5965509  74.2276430  35.0470924  28.2134340   8.5389941  13.6492348
  28.3480447   7.5933020  13.5877693  28.9231659   8.8457721  14.2135060
  80.1110329  18.8036959  37.4744821  80.5820837  19.0220588  36.6703320
  79.2814293  19.2756026  37.4017692  49.4750396  29.8008578   3.0822882
  49.1014187  29.1870444   2.4499254  49.4825188  29.3182318   3.9088768
  41.0289001  60.5070019  32.8525877  41.5762711  59.7659016  33.1121874
  40.5609226  60.1988602  32.0765209  52.4532126  39.4658685  63.7427378
  52.3934196  40.4073000  63.5803747  51.5473388  39.1586828  63.7071896
  24.5534086  50.5556011  42.4617529  25.1965785  51.2644911  42.4679661
  23.9170432  50.8036852  43.1323671  19.9035946  21.5245669  20.6975245
  20.0815682  21.2239783  19.8063445  20.6775008  21.2643378  21.1971068
  13.0147366  14.7847312  33.5854292  12.5963775  14.3040316  32.8711915
  12.9587487  15.7030242  33.3211732  79.3673210  67.9572296  62.9441071
  80.2651964  68.2742500  63.0418348  78.8961886  68.3403158  63.6840487
  14.5570910  50.8981180  46.7278099  13.8174021  50.2967119  46.6417646
  14.7453511  50.9135199  47.6661873  76.1854420  78.1238508  69.3408823
  76.0270224  78.8475132  68.7347078  76.8095432  77.5604439  68.8833904
   8.6678115  18.2049411  29.5272088   7.7531115  18.4796088  29.5913434
   8.6338560  17.2489875  29.5622444   5.5457038  46.7863655  46.8367672
   6.1569923  47.2106647  47.4388742   5.6471407  47.2662973  46.0148144
  85.0097270  62.1205330  26.3828564  84.8216204  61.6663694  27.2041845
  85.4053978  61.4514017  25.8243370  52.8301851   4.2239039  40.1031351
  53.3067338   4.2191832  39.2730093  53.4372322   3.8305514  40.7300329
  22.0575867   5.3091185  22.2977757  22.4232326   6.1841624  22.4274802
  21.2303595   5.4605429  21.8406129  12.3449039  80.7362366  25.9991765
  11.4400816  80.9294510  26.2445259  12.2825336  80.3860378  25.1105237
  19.3328190  52.7311468  23.8300729  19.7648978  51.8833017  23.9335203
  18.4590638  52.6012468  24.1987324  57.1538583  37.1044295  45.1643324
  56.2764637  37.4379771  45.3518391  57.0055906  36.2314837  44.8007154
   6.1727589  81.3590527  26.3709474   5.3700221  81.6371441  26.8119836
   5.8693546  80.8392811  25.6266260  47.8751210  11.4073699  19.1651571
  48.1055633  12.3272841  19.0351462  48.7094740  10.9748023  19.3467307
  61.8856135  21.5755199  70.0485439  61.2980643  22.3172258  70.1930799
  61.3846141  20.9776614  69.4937490  12.3452973  44.7576332  31.0629225
  11.6488612  44.4866753  31.6610813  11.9451702  44.7148943  30.1944160
  83.7454827  60.8193541  30.7886863  82.8648309  61.1847830  30.8732104
  83.6476733  59.8994255  31.0344505  10.8556430  18.3552211  16.0233557
  11.6305415  18.7391131  15.6129992  10.2148704  19.0661757  16.0371387
  27.3520016   9.3357222  19.2496181  27.1840937  10.2654498  19.0958631
  26.5127788   8.9090007  19.0768588  40.9584288   1.8419020  40.7162142
  40.7538764   2.7204650  40.3960323  40.1652221   1.3340609  40.5454922
  43.1736163  14.2607730  30.3854609  43.4141389  15.1277488  30.7121563
  43.5240046  14.2346518  29.4950795  46.7171423   1.2993758  57.0849609
  46.6760222   1.8089621  57.8941917  46.6131846   0.3910201  57.3683786
  57.6109314  76.9381809  22.4488282  56.7478752  76.5242290  22.4455595
  57.6129818  77.4938965  21.6694617  18.8018537  59.0481615  44.1613150
  18.7120378  58.9066219  45.1037264  19.4270742  59.7690248  44.0858984
  11.6569161  37.3020172  12.3340213  12.3608720  37.8979683  12.0780540
  10.9081757  37.8740835  12.5024235  86.5771359  44.7854090  11.1814213
  86.2967873  44.8346615  12.0953202  86.0575154  44.0726995  10.8095717
  22.7837062  15.0162375  12.1105170  22.8841519  14.3692374  11.4122808
  23.6586213  15.0964320  12.4904132  81.3013057  67.4097872  21.9067597
  80.8926944  67.8885365  22.6279163  81.0199027  67.8762770  21.1197209
  78.3366720  37.4430704  24.7711754  78.9844607  37.0418596  24.1918373
  77.9889594  38.1794620  24.2681313  41.3931841  34.2367862  64.6267705
  41.9274122  33.5086988  64.3094044  40.5094904  33.8747857  64.6921139
  11.9850739  37.1090863  46.4322215  11.4908417  37.3058866  47.2279840
  11.3189896  37.0346616  45.7488304  72.4711313  19.4623797  35.2690768
  72.6954498  19.3543284  36.1933279  71.7656507  18.8331645  35.1186872
  15.5166924  40.7854795  36.0439658  15.6727254  39.9790049  35.5525541
  14.8730230  41.2637138  35.5212688  25.6148108  24.2341922  67.6078134
  26.0639914  24.2926572  66.7645752  25.1174219  23.4178756  67.5581454
  21.0688975  59.7398751  57.9331236  21.0501053  58.8386672  58.2551544
  21.9791790  59.8826259  57.6738136  83.8993494  74.8977232  16.0799408
  84.4742043  75.4763937  16.5808558  83.9607756  75.2191687  15.1804233
  54.9840401  59.8962927  19.5766342  54.9246166  59.9092579  20.5318999
  54.9859403  58.9664650  19.3493736  15.0099456  55.5316448  31.7846107
  15.2110577  55.2255344  30.9002566  15.3567135  56.4233351  31.8140626
   5.2779478  49.9342012  19.7140574   4.6883705  49.2680550  20.0674438
   5.4694605  49.6369791  18.8245535  19.4667470  54.9217176  10.4941046
  20.4193950  54.9289131  10.4011524  19.2505693  55.7980299  10.8128095
  68.3897374  55.5841589  16.9835651  69.0049277  56.0923958  16.4549196
  68.6772464  54.6770763  16.8797517  48.2317184  53.5046339  23.8860893
  47.6838658  52.9584599  24.4498134  47.7440046  53.5658598  23.0647397
  22.1068954  61.7669249  54.2859125  21.9153500  61.1669207  53.5651302
  22.1766448  61.2021542  55.0555897  10.5963802  56.0087633  12.5640190
   9.9903589  56.7393208  12.6875293  11.4255559  56.3216305  12.9257023
  35.4271197  52.9124546   5.1843303  34.5548058  53.2818079   5.0469261
  35.7139277  52.6443529   4.3113506  18.7403715  52.0820904  19.7417903
  18.2171690  52.3514795  18.9868593  19.2266798  52.8685856  19.9890935
  85.5492948  13.0914807  37.9791212  85.4666614  12.9228377  38.9177155
  85.0078091  13.8658702  37.8263283  11.0730135  61.9414616  61.2815952
  11.6128647  62.5810766  60.8171701  10.2781916  62.4219751  61.5131044
  84.1829727  71.3953209  22.7830076  83.9885299  71.6069794  21.8699765
  84.0195109  70.4546261  22.8508449  77.1194820  28.2336378   7.7588665
  76.7900698  28.0103016   8.6294067  76.9618909  27.4485302   7.2344607
  18.1781435  49.8374701   6.8040347  18.7401354  50.5967808   6.6496062
  18.0110717  49.4816875   5.9312594  75.6502710  74.1744757  37.5217938
  75.4622958  74.4804335  38.4090853  76.0483144  74.9289608  37.0875740
  72.2240422  25.0685692  37.2364879  72.4850653  24.7297740  36.3801503
  72.2854589  24.3135500  37.8216410   0.6902685  64.5322423  67.3964205
   0.7499304  64.0640693  66.5636616   1.3531341  64.1204338  67.9507285
  57.8925942  63.4654856  36.8281293  57.1523212  64.0717220  36.8547034
  57.6522468  62.8230906  36.1604500  77.4609200  21.7139363  24.4253659
  77.8106276  22.6049614  24.4286609  76.6279725  21.7852736  23.9591670
  78.1365679  50.8012581   8.9824766  77.9620199  50.3233528   9.7932601
  78.3074544  50.1183033   8.3339399  20.2605295  50.0356674   1.0900186
  20.7436633  50.8127546   1.3709985  20.3232956  49.4335318   1.8314525
   8.3840543  48.6618757  47.0476532   8.1416649  48.3011675  47.9005098
   8.8527036  47.9504871  46.6111565  69.2132006  71.3053417   6.0188574
  69.5800839  71.9658136   6.6065663  69.3136440  71.6807985   5.1441157
   7.8303128  70.1610231   2.9850352   8.4658849  69.4667673   2.8109980
   7.1482277  69.7363949   3.5053074  79.9547289  72.3301840  16.4443398
  79.1858624  71.7650366  16.5197349  80.6553589  71.8400669  16.8746114
  84.4274148  49.6453381  20.4738069  84.6288062  50.5765963  20.5656219
  84.0715994  49.5633411  19.5889890  79.4447015  48.7592506  18.0304325
  79.5378087  47.8465986  17.7572632  79.1830121  48.7085867  18.9497709
  68.4762858  25.0637817  27.7206683  68.1228815  24.6089244  26.9561791
  69.3388723  24.6712947  27.8553224  85.9640228  53.6093521   7.2994238
  85.3918860  53.7017727   8.0612302  86.6983008  54.1966581   7.4786901
  31.3330603  61.5943336  25.3163242  30.7009506  61.7639828  24.6178341
  31.5474319  62.4611759  25.6610847   8.9852142  69.6377420  23.9772534
   8.1017923  69.2692375  23.9764142   9.5613152  68.8790035  23.8842463
  14.1818333  42.6850605  18.9477038  13.9136302  43.5349607  18.5984647
  14.7672808  42.8986120  19.6742558  67.5342534  64.1377068  21.8273234
  67.6594184  64.0971994  20.8792067  67.1812449  63.2787323  22.0592260
  64.1447399  71.7440128  18.7176442  63.6953853  70.8988428  18.7189782
  64.4455097  71.8567848  19.6193373  35.2003551  35.0637627  14.5912790
  35.9695363  34.9236774  15.1435196  34.4607401  34.8032212  15.1402056
  19.6271300  69.9383116   2.1012057  19.5198441  69.0097904   2.3075368
  18.7401009  70.2464676   1.9155994   6.8692684  29.2077398  24.1588187
   6.6457051  28.4790277  23.5798311   7.3462451  28.8011813  24.8823071
  11.5208777  61.2462161  51.5684181  11.4078196  60.7170795  52.3580187
  10.6393393  61.3232730  51.2034803  10.7581341  58.7500334  14.0673625
  11.6894627  58.5525179  13.9681375  10.6542695  59.6174860  13.6762547
   3.9002389  56.9590521  47.2922325   3.4225065  56.1528635  47.4873257
   4.0828073  56.9081879  46.3539791  14.4244504  47.2905397  16.4110231
  13.9879048  47.0057583  15.6081772  15.1000571  47.8996849  16.1131525
  62.7856865  60.9700280  66.7358857  63.5403743  60.5165201  67.1113979
  63.0458226  61.1625438  65.8350532  30.9288669  53.5836029  41.0651684
  30.5291605  53.2624865  41.8734694  31.7876625  53.1617022  41.0386038
  73.8073919  47.7563763  31.4442277  74.0801321  47.6781321  30.5300498
  74.0151821  46.9052887  31.8298507  22.8399682  58.9265919  30.6694698
  22.8807831  58.5261869  31.5379381  22.0813012  58.5179520  30.2527356
  12.8356767  45.5040550  49.4886827  13.6233008  45.9244061  49.1434526
  13.1020498  44.6009254  49.6608257  12.1175122  30.0939631  49.1319466
  12.9801106  29.7390389  49.3468523  11.9596946  30.7609367  49.8001289
  51.7973232  54.3406439  35.1289916  51.6757441  54.9453831  35.8609366
  52.7464581  54.2885447  35.0164747  53.8658706  21.8515723  56.6426468
  53.7528817  21.2006610  57.3353052  53.6549822  22.6860564  57.0614481
  57.1489084  12.5284169  66.3349577  57.3467832  11.9302724  65.6143325
  57.9096519  12.4673389  66.9126867  20.2698040  61.3110304   5.7415801
  19.4098938  60.9290123   5.9172165  20.8880377  60.7119131   6.1599970
  85.5407712  71.5719223  31.9851899  84.6941794  71.1269426  31.9463706
  86.1153555  71.0421848  31.4325023  22.9374103   3.1078761  47.7874470
  23.0273835   3.8608878  48.3714962  22.0378355   2.8085654  47.9193926
  51.2391750   1.4226191  14.6136177  50.9070603   2.2631781  14.2983484
  51.8372742   1.1285060  13.9265919  35.8131719  68.2513523  43.4778690
  34.8992991  68.3276701  43.7521744  35.9224987  67.3247528  43.2641125
  82.3631249  33.8457799  27.1112275  81.6948338  34.4788671  27.3735642
  83.1441323  34.3750596  26.9496036   8.9347214  30.3227377  39.4926858
   8.0868095  29.9035335  39.6394682   8.8947600  30.6338048  38.5883236
  74.6520577  67.1312094   9.1537535  75.4960380  67.4344587   9.4883740
  74.4221399  67.7649260   8.4742153  27.0149493  73.7296486  13.9682019
  27.0978355  73.8985729  13.0296779  27.0789742  72.7778339  14.0468180
  51.9841337  63.0536175  22.2454691  51.7309523  63.9705849  22.1391201
  52.4859190  63.0366659  23.0604267  19.6821249  61.1179209  15.3847420
  20.1587272  61.2567616  14.5663249  19.2587340  60.2666378  15.2738941
  27.7415252  24.8700094  55.6987190  27.2721839  24.7986245  54.8675442
  27.4728441  24.0954494  56.1927843  82.3531969  35.1592302  37.2472262
  81.4084558  35.2729726  37.3509526  82.4452783  34.6323586  36.4534020
  64.2376826  54.4827747   6.9301748  63.8331602  55.0468779   6.2711012
  63.7312935  53.6712837   6.8942761  42.1270704  66.6954565  15.7729506
  41.4239025  66.1543369  15.4138267  42.9118490  66.1535215  15.6913078
   6.3084930  79.5328951  65.1709700   6.2650144  78.8469601  65.8371782
   5.4057050  79.8384905  65.0825691  77.3695807  70.1578474   3.8783446
  77.4061297  70.0683832   2.9260358  76.9178723  70.9891605   4.0236521
  78.8564450  36.6728233  69.2332678  78.6431057  36.8135951  70.1557104
  78.9007956  35.7211898  69.1402175  32.2389770  51.6717148   3.9791480
  32.2260666  50.9864378   4.6473229  31.4307857  52.1635008   4.1247895
  70.1279408  24.2698930  66.6075065  70.3670985  23.3434222  66.5812235
  69.5808608  24.3981097  65.8325898  32.1513295  52.5321341  13.1489873
  32.4478054  51.8090248  13.7016630  32.9548144  52.9903889  12.9027164
  20.6514263  67.9879713   5.5730540  20.9054446  68.8431406   5.2260792
  19.6955419  68.0196095   5.6119788  12.5525796  50.8674908  22.1333814
  12.3769081  51.6746855  22.6169181  12.0504725  50.9592628  21.3236308
  29.4332361  52.6514387  32.8157306  28.6720562  52.9607916  33.3067870
  29.5298123  51.7352962  33.0757046  76.4900416  11.0921834  66.4106395
  77.0121533  11.3481401  67.1709799  76.0320241  10.2996133  66.6904341
  20.1489544  67.1038246  11.8486881  19.6105790  67.7946663  12.2348511
  20.9245539  67.5593758  11.5213442  63.0051935  28.8401960  64.3379229
  62.5027427  28.3359693  63.6979758  63.7634748  28.2900308  64.5342945
  70.1655243  48.7990141   7.3962432  70.7369481  49.2474365   8.0196393
  70.3143011  49.2520189   6.5662527  25.1172430  12.2098201  30.7669568
  24.4618885  11.9563048  31.4169359  25.4963909  13.0182307  31.1118317
  44.9512911  71.4602375  18.7766206  44.5899439  71.4633799  17.8902519
  44.9347925  72.3788214  19.0452576  67.3301995  25.7779477  67.7108767
  66.7367459  26.0182832  68.4224122  67.8781075  25.0851129  68.0796715
  44.5806661  67.8512340  59.1900115  45.1378419  67.6476341  58.4387904
  43.7058475  67.9596620  58.8169604  32.6459765  52.2792530  35.3403234
  32.3605919  51.7377424  34.6044183  31.8354273  52.5203705  35.7887673
  35.4020524  71.6190863  26.6643858  35.8212996  72.4708462  26.7867184
  34.9503016  71.4534330  27.4918604  80.7516581   3.9263557  67.9646590
  81.1858803   4.7332500  68.2414369  80.2699143   3.6358331  68.7390947
  79.2959915  65.2758455  43.3707380  79.5689313  64.3599033  43.4235668
  79.0290068  65.4980326  44.2626905  63.1977765  15.0577300  18.6799490
  62.5288288  15.6645243  18.9970291  63.8051073  14.9658244  19.4140720
   6.4633783  47.2955535  42.0574885   6.4124354  46.3458656  42.1657758
   6.3212570  47.4378799  41.1216574  34.8663402  74.4609499  35.6871605
  34.0440965  73.9790773  35.5980182  34.6124721  75.2979851  36.0759449
  22.8524804  77.6192665  41.9539833  23.4964252  76.9994164  41.6114092
  22.0210290  77.3352718  41.5741539  10.8784014   8.5127042  57.9754787
  11.3939816   9.2418502  57.6308804  10.2626187   8.3019851  57.2735923
  16.8428433  75.4844475  13.4636235  17.5238395  75.0977612  14.0140307
  17.0016098  75.1184511  12.5935256  24.7576287  69.7247558  69.6154730
  23.9570730  69.6767598  70.1380044  25.2450856  68.9353710  69.8510334
  19.2724035   1.1668151  11.9420540  19.0756253   1.6349738  11.1306775
  20.1262329   1.5045970  12.2124398   1.7462263  38.6429024  23.8219428
   1.3679683  38.2569051  23.0319071   1.4317511  39.5469689  23.8209891
  20.8195710  60.6695890  28.3184552  21.1351633  60.1976967  27.5477719
  20.0089860  61.0876942  28.0279922  61.4515344  11.4695208  12.3404121
  61.0549823  10.6034701  12.4349630  62.3925010  11.3117926  12.4174523
  11.6848095  37.0218442  57.0557504  10.8652314  37.3258184  57.4457782
  12.2840556  37.7622722  57.1500891  55.1754187  34.4776607   3.5542369
  55.3972958  33.7023902   3.0385262  54.3099974  34.2855239   3.9152947
  35.0155924  15.9638350  13.5478413  34.3627588  16.5106337  13.1107485
  34.5901851  15.6847804  14.3586349  65.3060633  16.8286727  70.2752759
  65.3179181  16.0416530  70.8199692  64.5513451  17.3263334  70.5898650
  84.1175927  66.9788647  14.9853921  84.4209730  66.5567493  14.1816437
  84.8256893  67.5772476  15.2236450  71.6789923  56.6825294  16.5263689
  71.2870227  57.0795822  15.7485914  72.1460543  55.9158134  16.1943471
  50.9381882   5.0035899   8.7294441  50.9235684   4.1782611   9.2140621
  51.5407864   5.5602687   9.2226058  68.5163800  17.3195403  10.5665720
  68.4152810  17.3401301  11.5181947  69.2676107  17.8868335  10.3931904
  75.5245994  45.3451014  32.2481155  75.8525143  45.6496048  33.0942726
  76.1703656  44.7004509  31.9589043  12.6828015  69.7491074  51.2006712
  12.0405936  70.2278185  50.6766129  12.4143577  69.9018764  52.1066666
  58.7258569  14.0106719  10.0950491  59.1903988  14.8279708  10.2752054
  57.9577772  14.0409987  10.6654572  12.6298285  71.9115305   8.8829803
  13.0404353  72.7751398   8.9255148  11.8590832  72.0397472   8.3300394
  49.0613333  11.1524241  34.2137122  48.1861416  11.0832160  34.5951295
  49.5461933  11.7062037  34.8256540  72.7539939  39.7961448  56.6440063
  71.8531019  39.5572589  56.4259224  72.7457148  39.9206851  57.5930326
   0.9418362  32.2963715  64.2316103   0.1823407  32.8493857  64.0483856
   0.7924760  31.9707775  65.1192570  76.0402767   2.9114573  15.7062924
  75.6152193   2.0550959  15.7531571  75.6624261   3.4065001  16.4332044
   5.0584763  39.9256802  22.3066568   4.2475966  40.1411533  21.8459201
   5.6096458  39.5134640  21.6414332  56.7110960   2.2828524  47.9508543
  56.3105885   3.1393950  48.0997133  57.4177591   2.2337287  48.5946274
  33.9722538  70.6666136  19.9007320  33.5175681  70.1165962  20.5386782
  33.6003876  71.5392923  20.0287104  33.9351535  45.8123732  32.0753098
  33.5160971  46.6725874  32.0498061  34.8667622  45.9961128  31.9545650
  25.3688788  53.2918501  18.8603640  24.5288873  53.4540653  18.4310246
  25.9749842  53.9009762  18.4386611  28.1546521  69.0142202   2.1668462
  29.0154886  68.5963154   2.1902563  28.3438706  69.9525309   2.1657583
  74.6222145   7.7565120  38.9814954  75.1872260   7.1710132  39.4856649
  75.2224273   8.2344983  38.4092145  30.7212853  57.8550529  38.3779430
  30.4671907  57.1205235  37.8192568  30.3969145  58.6292648  37.9179335
  25.2099109  51.2244749  34.0318513  25.1943064  50.3383827  34.3935585
  25.5034757  51.1091280  33.1281114  26.9811491  70.7423478  44.4032293
  26.6307678  71.1380725  45.2012663  26.2159493  70.6175547  43.8418656
   7.1658409  39.0010571  29.1248322   7.4381191  39.4082332  28.3024549
   6.5285420  39.6118331  29.4950175   9.7292686  74.2948914  28.1759858
   9.7951400  73.9030552  27.3051500  10.5920684  74.1566086  28.5667372
  11.6515378   0.6596797  40.5752087  11.7576496  -0.2899892  40.5195999
  11.2123005   0.8029311  41.4135313  53.5470343  36.2298608  17.5654101
  53.6047697  35.9596252  18.4818554  53.6334229  37.1828151  17.5908065
   0.3210481  35.6168864  70.0514308   0.3984316  35.1488946  69.2200310
   0.5875119  34.9774001  70.7119503  34.9012971  66.9258356   5.3856325
  35.1656938  66.0214710   5.2169555  35.4698801  67.2122526   6.1004138
  62.9646898  23.3827947  67.6986890  62.0910535  23.7426732  67.8519147
  63.0889261  22.7472232  68.4035646  73.3274665  57.5353532  68.4120940
  72.6876416  57.3837953  69.1077121  73.3396115  58.4859841  68.3008038
  85.0129477  53.6929131   0.9801106  85.9562679  53.5971737   1.1113100
  84.6270302  53.4302521   1.8157595  23.9405417  62.1901035  11.5272260
  23.9965248  62.0611668  12.4740481  23.3905220  62.9665804  11.4233506
  63.3204889  61.0338497  15.9413528  63.6815977  60.3446531  16.4988816
  63.7368441  61.8372202  16.2535655  63.0259536  61.1014652  48.5884762
  63.4487198  60.7963133  49.3912125  62.2342108  60.5682755  48.5171652
  81.6661436   1.0382913  68.0061524  81.1229903   1.8119834  67.8557705
  82.3232204   1.0680888  67.3107427  13.0812466  45.2289200  17.7390504
  13.7091327  45.8315134  17.3404658  12.8431344  45.6446838  18.5677099
  18.8563979  29.5897436  20.2075291  19.4401073  29.5583606  20.9655070
  17.9861963  29.4196558  20.5681562  17.5383365  14.7366560  26.8708897
  16.9671094  14.0907955  27.2865772  18.3428895  14.7134781  27.3889542
  80.8684949  61.2179661  52.3097467  80.2510826  61.8902254  52.0214748
  80.5997513  60.4285860  51.8397617  20.8414936  54.5330095  35.5779624
  20.7362151  53.6506701  35.2221298  21.6638517  54.4976854  36.0665441
  58.4448217  63.6080456   4.7996241  58.5694788  63.9091921   5.6996268
  59.3281911  63.4096813   4.4889101  86.3049629  59.1847944  16.0077834
  85.9727768  59.9163246  15.4874504  85.5641860  58.9243889  16.5552044
  21.3656664  59.8357868  18.0679023  20.5460668  59.3497229  18.1586313
  21.9907427  59.1914463  17.7357304  24.1657090  60.9433031  39.6854258
  23.5516930  60.2865648  40.0139284  24.7291875  60.4623699  39.0792680
  49.5672798  41.3435364   8.8702089  49.3279362  42.0751762   9.4391119
  48.9867401  40.6314373   9.1387779  20.0103021  39.9663591  25.1460743
  20.6578922  40.6515980  25.3113270  19.4210172  40.0070524  25.8992815
  25.0198913  26.9445682  64.4999456  24.9251461  26.8985868  65.4513311
  24.6513748  26.1201859  64.1824245  11.9549028   4.0498107  31.5239835
  11.7027668   4.1862815  30.6107283  11.7424373   3.1325953  31.6966176
  61.5150851  16.2545989   7.2118335  62.3859751  16.0839532   7.5705295
  61.5400619  17.1749185   6.9498735   6.2314779  79.8874855  11.6639555
   5.7913047  79.8697042  12.5137579   6.4441562  80.8101559  11.5236425
  29.8307538  68.9989328  28.6387634  30.0448847  68.4299850  29.3781400
  28.9537668  68.7241030  28.3711934  30.1230713  17.4212878  33.8653159
  29.6108420  16.6190474  33.9665842  30.6155122  17.2903579  33.0550146
  18.5213017  62.0305490  27.7673745  18.8505852  62.6446676  28.4236240
  17.7392423  61.6496992  28.1668329  44.2262983  72.6849270  21.7479396
  44.0747786  73.2004929  20.9558105  43.7950563  73.1817627  22.4432206
  75.4670316  14.2685483  60.2317601  75.8572072  14.6290420  61.0280269
  75.8474237  13.3936713  60.1535290   9.6332987  47.2921298  69.0777392
   9.8579009  48.1982635  69.2891834   9.5114311  47.2908614  68.1283297
  10.3366852  68.0631590   6.7848772   9.6033216  68.5943794   7.0950574
  11.0163999  68.6995316   6.5629488  82.2343372  75.7186079  42.2594738
  83.0760739  76.0113907  42.6087427  82.0372532  76.3391733  41.5578413
  79.2015630  33.7466977  63.8621633  79.5658428  33.7493919  62.9769944
  79.2599541  34.6583627  64.1479706  31.1834311  80.2653599   7.2985882
  32.0382547  80.6448936   7.5022119  31.1484480  79.4617367   7.8174287
   9.0386039  38.2489300  37.6429725   8.8370448  37.8431773  36.7997813
   9.6539134  37.6448059  38.0584955  23.3235387   9.0039389  32.6718307
  24.1241954   8.8296168  32.1770644  23.6222331   9.1381686  33.5712719
  41.5731812  29.6229339  15.9202516  42.5151634  29.7160339  15.7780015
  41.3973427  28.6956644  15.7606184  31.7165589  80.0404549  11.0830033
  31.5558791  79.3804121  10.4086447  32.6428342  80.2614403  10.9859788
  15.2170479  41.7809486  40.8467913  14.5641077  41.0967588  40.9943914
  15.7059073  41.4839315  40.0793076  73.5195460  55.2586525  64.4996344
  73.7743392  56.1240797  64.8195528  73.8188710  55.2416568  63.5905974
  54.8986438  35.4223226  49.2308908  55.7315447  35.5666421  49.6799808
  55.1095248  34.8099731  48.5260611  19.8139000  32.3010159  22.2115803
  18.9775538  32.7633977  22.1571779  20.2379680  32.4733257  21.3709235
  76.6301058  79.2214823   1.9134475  77.1443914  78.4347677   2.0946254
  77.2659532  79.9362040   1.9466360  79.2994247  68.6838055  52.2636223
  79.6128545  69.1765594  51.5052080  79.8437486  68.9892578  52.9893208
   0.0540081  18.4667313   3.1611857   0.2026274  18.0682421   4.0187114
   0.9323309  18.6282444   2.8166649  41.6923046  66.7186832  18.8052428
  42.4378729  66.1714649  18.5584426  41.1723471  66.7902374  18.0047703
  15.7782722  76.9801188  47.7300739  16.2617934  77.7086496  48.1195354
  14.8826003  77.3063707  47.6431084  24.1426039  63.5731983  39.1066289
  24.1876364  62.6242542  39.2236805  25.0427079  63.8731480  39.2334223
  54.1011689  72.8911543  11.1328387  55.0106023  72.6055241  11.0457873
  54.0171621  73.1463242  12.0515668  56.9567601   4.3671363  33.5225224
  56.0119025   4.2175048  33.5555005  57.1617476   4.7888224  34.3570232
  14.4419968  42.1954012  23.2180715  15.1840782  41.6824865  23.5381675
  14.6045458  42.2919559  22.2797275  50.9090463   2.7506774  33.7450409
  51.0907308   2.3500579  32.8949046  50.3632108   2.1094935  34.2002106
  41.6981220  46.5700197  37.5735950  41.4087820  46.9598436  36.7486382
  42.4392462  46.0155678  37.3295665  29.8094662  39.6825145  65.6189590
  29.1005572  40.2211402  65.2674430  29.8107727  38.8993953  65.0685512
   7.9759228  27.5713682  26.8289256   7.6045173  26.7871356  27.2329903
   8.7355709  27.2527623  26.3414240  22.4574208  69.9240828  70.9115267
  21.9028020  70.6504154  70.6268024  22.0006871  69.1401243  70.6065130
  45.4175568  73.4878111  25.9410477  45.4415607  74.3285847  26.3979435
  44.5261717  73.4272528  25.5975389  44.6558237  64.5824337  19.0770400
  45.5235815  64.2473459  18.8513207  44.6280766  64.5506048  20.0333071
  48.2036257  35.2924228  10.7514715  47.6087809  35.9823227  11.0454583
  47.9886341  35.1687002   9.8269701  20.6952620  77.7113295  20.1761293
  19.8646331  77.8613329  20.6275582  21.1792874  78.5296631  20.2869582
  20.0450492  74.1286850   3.0132097  19.6620548  73.9955473   2.1461338
  19.4838846  73.6250162   3.6028248  28.0220556  72.5989532  35.2690125
  27.9815698  72.8541327  36.1906838  27.3935199  73.1745625  34.8332930
  13.8199651  42.5617981  34.5023179  13.7110889  43.4931707  34.3101668
  13.0858111  42.1380854  34.0576649  25.1370287  72.4323034  55.8010912
  26.0351896  72.1372080  55.6512308  25.2227259  73.3613205  56.0151529
  16.3294685  58.4864616   0.4679291  16.2849796  57.5360394   0.3632911
  17.1854520  58.6437416   0.8664101   1.3231434  77.7888298  31.2352681
   1.9801387  77.0936537  31.2715816   1.0846438  77.8448820  30.3099537
  43.8658885   5.2040522  27.1379590  43.3326224   5.9674876  26.9165373
  43.2297138   4.5169299  27.3364162  81.3781939  74.9902058  17.1461415
  80.9054319  74.2809868  16.7105484  82.2911142  74.8636436  16.8877017
  13.6922896  77.9972506  38.7413502  14.5587254  78.3992147  38.6785483
  13.2801819  78.1833839  37.8976965  33.0504886  24.7328608  11.3090003
  32.7344186  25.6314700  11.4030719  32.4517573  24.3331855  10.6781220
  49.2645850  53.2182019  52.7411287  49.5933809  53.8345807  52.0867567
  49.9310865  52.5322895  52.7802830  14.9338388  69.4614887  44.6620131
  14.3405008  68.9071894  45.1688957  14.3653142  69.9135876  44.0386200
  10.2665957  46.0840820  64.1151582   9.4724449  45.7181857  64.5046114
  10.9038409  46.0877822  64.8293977  56.2811041  59.7492361  15.3473890
  56.6416883  58.8683367  15.2462423  57.0098305  60.2688122  15.6868470
  15.2723610  70.7911873  52.1252012  14.9272788  70.9249115  53.0079651
  14.5623159  70.3553009  51.6539574  39.2934827  11.6261046  44.7236109
  40.0612942  11.5017264  44.1657305  38.5479895  11.5034716  44.1358709
  60.9356979  33.2650493  69.4697317  61.5092519  32.7780126  70.0613932
  60.0648138  33.1821178  69.8582098  20.0475025  57.8168297  40.7579708
  19.3806386  58.1886482  41.3352680  19.6222818  57.7668190  39.9018645
  46.3010979  71.0681200   5.0835788  47.2285366  71.2026453   4.8886585
  45.9812450  70.5251026   4.3631232  12.2347915  51.3977814  54.6576023
  12.5039721  50.5720758  54.2551374  12.2641349  52.0335054  53.9426041
  57.6083080  11.5277617  19.6252501  57.0588104  11.0734694  18.9865768
  57.4774496  11.0440963  20.4408336  53.5682503  19.0390818  18.7702346
  54.3014876  18.4601443  18.5618520  53.8906972  19.5854800  19.4869697
  76.2051342  63.0706739  56.3801003  76.4671443  62.1503162  56.4031124
  76.7238448  63.4496975  55.6705189  28.9780784  68.4811687  50.5237246
  29.5979834  67.8500271  50.1582003  28.9402056  69.1833353  49.8742914
  19.8356950  58.0554581  25.0427222  20.2792096  57.8699684  24.2150021
  19.9001062  59.0053844  25.1413393  13.6342371  63.5889196  60.1600075
  13.7791717  64.4970942  60.4254246  13.7345362  63.5986614  59.2081261
  23.3356150  10.9026931  64.8347973  23.9344509  10.7154105  65.5576777
  23.4436043  10.1632617  64.2366230  44.8654509  64.6794605  37.7326107
  45.3822327  64.5291901  38.5241818  44.2368603  65.3569031  37.9819679
  84.5525629  21.9328902  35.7257395  84.4329506  21.5540288  36.5965968
  85.2690989  21.4279578  35.3412300  26.4160164  45.0059818  70.1861452
  27.1094378  44.5689414  70.6805021  26.6667612  44.8915313  69.2694890
   4.8513883   6.1792891  46.4312363   5.3663152   6.6884749  47.0571852
   5.0164121   5.2674144  46.6709948  83.4264631  68.5483313   4.9439579
  83.1010683  68.2800579   5.8032483  84.3740058  68.4235048   4.9969986
  35.1956978  78.2851367  60.9408217  35.1132377  77.4733668  61.4412820
  35.3618869  77.9972797  60.0431853  55.3647041  54.7124672  24.4322205
  54.5925903  54.6707010  24.9964261  56.0999775  54.5355844  25.0190043
  33.4652400  73.4178066  20.7159567  32.7100921  73.6328793  21.2634301
  34.1972375  73.3590841  21.3299322   3.5481294  31.9134639  63.7395089
   2.6685699  32.1287606  64.0497594   3.5786422  32.2589086  62.8473376
  75.3378723  79.5305634  32.3304415  76.2558900  79.4071770  32.0890856
  74.9457715  78.6628628  32.2325301  53.6204863  67.8686142   1.0185716
  53.2909346  67.7400255   1.9080055  54.5645142  67.9836702   1.1272250
  16.4103707  38.9040826  69.2634425  17.1854313  39.2405246  69.7132391
  16.6841992  38.8118289  68.3508979  48.1688646  17.6124137   3.9957234
  47.6913981  16.8558734   3.6552718  47.5415603  18.3336966   3.9460707
  15.4238776  40.2185672  13.8544965  14.6717290  40.7514041  14.1125381
  15.9026829  40.7656901  13.2318950  19.7927129  37.1470213  37.0731401
  18.9211619  37.5182199  37.2104001  19.8394692  36.9877648  36.1304402
  82.8347778  79.6766949   1.7748703  82.0944405  79.0986490   1.9592613
  83.4992218  79.1013765   1.3957381  38.5595616  39.5441554  69.6366333
  39.0942486  40.0186656  69.0000970  38.3696898  38.7069581  69.2132094
  23.4120870  80.5329514  23.0738592  23.5135174  81.3843632  22.6483583
  24.2908025  80.1535130  23.0628872  24.2165689  25.7920592  56.0967302
  24.5390884  24.8908465  56.0920095  24.5690347  26.1683696  56.9032001
  77.8156273  14.7941726  26.9821954  78.2177107  15.3288977  27.6667547
  78.2453767  13.9424269  27.0601988  17.0244515  54.9386549  35.7047439
  17.3482859  54.7029924  36.5741277  16.7761624  54.1040277  35.3072834
  26.2407569   1.0782759  21.6381598  25.9292636   1.9514220  21.3997793
  27.1921364   1.1695235  21.6909266  68.7343771   1.6078065  50.6851225
  69.0798837   0.8577655  51.1691647  69.5118398   2.0908187  50.4049783
  71.8993789  16.2747358  55.4779404  71.2921852  16.9328807  55.1397186
  72.1775657  16.6191695  56.3265925  18.0753362  80.6628132  24.7898698
  17.3970699  80.7850933  24.1256142  18.7841392  80.2143192  24.3286967
  29.4264824  10.9880965  64.0880442  30.3821933  10.9628337  64.0410328
  29.2295015  10.8798259  65.0184774  19.0968299  22.2242418  69.4594791
  19.5079136  21.7026010  68.7701776  18.4273016  21.6483179  69.8286267
  48.6504507  73.5857105  17.5273502  48.9184427  72.7006197  17.2803199
  49.1645241  74.1590643  16.9588220  84.7020728  35.4973672  61.8234508
  83.9294011  35.6932138  62.3534065  84.5849568  36.0169099  61.0280936
  13.9433014  60.2268505  11.6743422  14.5505106  60.9662485  11.6457236
  13.5531867  60.2709436  12.5473237  14.9767726  16.4328997  58.1307316
  15.7196897  15.9529822  58.4967566  15.3751033  17.1373885  57.6195860
   9.7395933  49.8430681  35.1832557   8.8509208  49.9639797  34.8487806
   9.9821228  48.9598894  34.9050450  57.1459881  12.8420489  40.3038692
  57.4742667  13.0063002  39.4198513  57.8353230  12.3273700  40.7235670
  26.8851590  65.6839991  36.9281745  26.6857791  66.6151285  36.8308091
  26.5746403  65.4631090  37.8062487  84.4420932  64.0998030  33.5764170
  84.5854719  65.0459957  33.5962677  83.8311700  63.9652777  32.8519130
  60.5210988  30.9230368  17.8011215  61.0306183  30.7515090  18.5930789
  59.6989862  31.2945597  18.1210244  20.3830171  79.0501308   5.0876850
  21.0223913  79.6890354   4.7726771  20.3485942  78.3862066   4.3990237
  25.6245565  79.9214315  11.7408550  26.5407276  80.0464249  11.9883168
  25.6111383  80.0603962  10.7938910  72.8658152  59.8164845  36.8255639
  72.1602297  59.1699362  36.8444109  73.6370134  59.3213987  36.5491986
  82.7197200  51.1439822  66.9238438  83.0082494  50.7541202  67.7490648
  83.0789811  50.5685256  66.2485518  18.0327666  81.0724640  30.7925916
  18.5260224  81.6084194  30.1715565  18.1219745  80.1788330  30.4613996
  68.6767644  35.7034896  56.7364269  67.8067285  35.3303598  56.8780034
  68.7314052  36.4272712  57.3604303  46.4624357  77.5191212  37.2661281
  45.7666492  77.3678446  36.6264153  47.2616053  77.5744534  36.7422032
  43.3893863  19.6054309  47.3501015  42.6222972  19.1793864  46.9676161
  43.6560182  19.0240996  48.0622816   5.4791534  64.4763803  31.6580439
   4.6143228  64.0702677  31.5999866   5.6139028  64.8767376  30.7990980
  52.3132006   9.9220889  35.8909225  51.8768326   9.4346850  35.1921749
  51.8153707  10.7365649  35.9617853  70.2160842  17.7090333  53.4523218
  70.3502029  18.4711812  52.8889661  70.4220265  16.9592975  52.8940075
  27.5074512  19.0849040  70.0452401  26.6803748  18.9471839  69.5834931
  27.3852521  19.9101995  70.5144757  36.6441965  79.8450947  40.2694988
  36.7692375  80.4842281  39.5679903  36.9317245  80.2993774  41.0614491
  72.2893898   7.3324721  42.6427507  72.7495948   8.1244319  42.3648310
  72.9262058   6.6289275  42.5173521  66.4182297  22.6138537  28.5615206
  66.2201802  23.5251658  28.7771845  65.5612079  22.1957915  28.4780192
   2.1614345  60.6436275  63.1527977   2.9106410  60.0478767  63.1537019
   1.4879068  60.1822017  63.6524671  40.5209160  68.8592100  55.8149052
  39.8024058  68.2313633  55.7388258  40.4505920  69.4001484  55.0283480
  46.9147825  69.4223499  36.9657350  46.5444946  68.7872171  37.5786972
  46.7327547  69.0547705  36.1008739   9.1136819  57.1293926  35.0967193
   8.2562059  57.5547314  35.0894189   8.9981127  56.3481140  34.5559025
  79.7613053  45.4630947  63.3393049  80.5445592  45.4490662  63.8893461
  79.7404341  46.3479233  62.9747868  58.6391584  17.9262870  34.7440863
  57.9013816  18.5249179  34.8605704  59.3364708  18.2975428  35.2846050
   6.9010246  66.9181061  12.4965250   7.5961119  66.2610149  12.4602413
   6.2438285  66.5395641  13.0805039  10.5608895  81.4517527  69.4690145
   9.6892562  81.7106038  69.1698774  10.5887606  80.5044632  69.3345038
  16.1025524  49.0713882  14.9396610  16.1736512  50.0245571  14.9910665
  16.0107195  48.8881397  14.0046656  60.9667683  79.7498989  20.6529546
  60.1725864  79.7852755  20.1197934  61.5186453  79.1000652  20.2177787
  62.5202082  63.9597607  45.3979445  61.6493223  64.3569422  45.4039049
  62.8447889  64.1075659  44.5096684  45.6619994  14.0903323   4.2579368
  46.3148336  14.5262950   3.7102333  45.9299723  14.2900508   5.1548970
   2.8025421  54.3604682  47.1790533   2.2805103  54.2938922  47.9786067
   3.0453738  53.4572051  46.9756513  43.5616350  59.8745060  24.9542403
  44.4536781  59.5870686  24.7596407  43.6662483  60.5295992  25.6442690
  29.7714483  19.8346846  50.1826191  30.5404238  20.3397506  50.4468536
  30.1126372  19.1800921  49.5732498  30.9145212  65.2395630  24.7234321
  31.0588527  66.1850500  24.6853614  30.0847530  65.1053095  24.2655087
  34.6641395  29.7817176  11.2811780  34.5391730  30.4131835  10.5727589
  35.0977478  29.0370028  10.8644915   9.2005551  75.6594038  42.8773737
   9.6932179  75.6788969  42.0569229   9.6235323  74.9739218  43.3945084
  15.6542772   3.2234996  46.3091564  15.2131027   2.5092643  46.7689991
  15.3794950   3.1271594  45.3973246  56.0157347  73.8310957  24.0707994
  55.4644346  73.4589863  23.3824468  56.3350821  73.0718946  24.5585084
  32.3929262  69.8189926  33.3829379  31.7727542  69.1043520  33.2383657
  31.9131732  70.4468346  33.9232039   2.3131250  39.3048644  35.6910300
   1.3925323  39.5047569  35.8606887   2.6557466  39.0175366  36.5373659
  14.3097484  75.1746559   5.9152454  14.4891226  74.2539597   6.1059791
  15.0235295  75.4428530   5.3366119   8.3335453  69.4563818   7.8813201
   8.4992045  70.3805685   8.0675006   7.3977923  69.4158077   7.6839566
  49.8564641  34.2098754   1.0209430  49.1988508  33.5243361   0.9034225
  49.5595781  34.6973651   1.7893468   2.7575352  66.6462326  48.7164927
   3.5779716  66.1555958  48.7654924   3.0181839  67.5203991  48.4264612
  74.1102974  17.1291678  47.7384901  73.8095991  17.6492636  46.9932938
  73.3696834  17.1290152  48.3448887  25.6877923  43.4655952  30.8973718
  25.6505370  43.0364418  31.7521667  24.8951030  44.0010595  30.8634472
  81.8497206  61.3853645  26.5449834  82.0195053  62.2606993  26.1968446
  81.3998328  60.9281445  25.8345056   4.3516685  72.4679232  11.3820672
   4.1407253  72.9063129  12.2064161   4.5907738  73.1786680  10.7871687
  10.8710265  45.1946163  59.4906330  11.7407060  45.5557203  59.6623755
  10.8468139  45.0692129  58.5419941  27.3067486   2.8574126  54.2147017
  26.5861107   2.4483531  53.7355518  27.4588501   3.6848014  53.7580585
  12.2613168  62.9979372   3.3681899  12.5172746  62.7259445   2.4868622
  11.3858116  62.6298952   3.4876379  31.0187101  48.3547592  27.0935392
  31.5899563  49.1197920  27.0254660  31.5898681  47.6113939  26.9001055
  12.9912293  40.6958294  59.1251802  13.1691921  39.7696471  59.2887354
  13.8456702  41.1207533  59.2000151  78.1221096  15.2240126  38.8090348
  78.8495723  15.7628672  39.1199446  78.1697265  14.4284194  39.3391252
  34.3628621  68.9195728  10.7969594  34.7739911  69.7838688  10.7829666
  34.7929668  68.4382820  10.0901353  35.4333925  54.1047621  27.7819324
  35.3004527  53.4597731  28.4765887  35.7316351  53.5906506  27.0316195
  61.9923822   4.3116896   9.3575984  61.5117518   4.0462058   8.5735416
  62.1121208   5.2560179   9.2568541  68.5225455  14.2170947  10.9478462
  68.5303609  15.0474875  10.4717898  67.9175083  13.6636203  10.4540622
  84.0637452  27.2273467  43.1211858  84.2947966  27.8822778  43.7799006
  84.8332078  27.1761535  42.5541430  53.7381649  50.1143646  24.4816113
  52.9506016  49.9071217  24.9846315  54.4413328  50.1245737  25.1309800
  73.2935611   0.3817790  24.6322298  72.3464433   0.3628485  24.7694945
  73.4941427   1.3041251  24.4732404   5.3197193  61.7007542  29.6815348
   4.7120446  60.9612083  29.6873975   4.8621997  62.3827934  29.1898775
  12.8021300  46.0691452  14.2958927  13.6924827  46.0253143  13.9472067
  12.2523749  46.2311983  13.5292506  17.1466589  66.6227913  18.6418819
  17.3329961  67.0755148  17.8193533  17.3076785  65.6992102  18.4487438
   3.9244503  13.8844817  24.1119838   4.8045343  14.0716307  23.7853956
   3.3446544  14.3864959  23.5392213  17.9812849  72.1040916   9.3323475
  18.5113180  71.8268394   8.5850668  17.9164612  71.3236332   9.8827219
  76.9564863  12.1431703  10.7118125  77.5598355  11.5398283  10.2780146
  77.3969813  12.3760242  11.5291113  64.2658446  40.8719635   7.8626746
  64.0031717  41.2572908   8.6985916  65.1910232  40.6556654   7.9788381
  18.6117947  63.5619831  13.3449399  18.0091214  64.2834997  13.1648564
  18.6581588  63.0772734  12.5208402  42.7615098   4.0235656  11.4149201
  41.8186406   4.1736834  11.4834511  42.8395526   3.2242530  10.8941114
  71.0006944   1.2205260  37.9211020  71.3355152   0.4609721  38.3977604
  70.5206005   0.8469527  37.1820593  19.6915825  47.3993800  70.8525306
  19.7980650  47.4601482  69.9032149  19.4926747  48.2939456  71.1289827
  70.9678642   1.8734401  25.2661657  71.0689680   2.5658744  24.6130633
  71.2100021   2.2880309  26.0942435   0.0271807  29.7906036   0.6410021
   0.3119025  28.9909715   0.1985592   0.3259335  29.6839923   1.5441126
  21.7133904  75.3103685  43.9410686  20.9034681  75.5280161  44.4024706
  22.2589731  76.0914183  44.0334511  30.6436547  42.3571418  66.7975076
  31.5644558  42.2076629  67.0120197  30.4029520  41.6140865  66.2441920
  57.6707355  32.2894519   2.9963493  56.8768827  32.1316569   2.4853396
  58.3581678  31.8226283   2.5212157  37.3424530  79.1309786   0.0711489
  37.4107194  80.0104713   0.4427301  38.2425261  78.8054705   0.0592412
  53.3940744  59.8740244   2.7089387  53.4222603  60.8020163   2.9418877
  52.4626684  59.6534252   2.7162758  56.9232780  59.0206454  52.9746705
  57.4583004  58.2307456  52.8969603  57.5119194  59.6720813  53.3559399
   6.1365159  60.4788612  57.6771110   6.2132033  59.5906566  58.0255943
   6.4111288  60.4021857  56.7633610   0.4996951  28.6518501  57.1873432
  -0.0173227  28.5205005  56.3925641   0.1037939  28.0637906  57.8305250
   5.4966480  56.5472317  20.8650947   4.5552352  56.7141151  20.8190155
   5.5719340  55.5931664  20.8469987  78.0631505  77.8813171  64.2636585
  77.8573660  77.8664017  63.3289576  77.3016999  77.4805689  64.6829748
  63.2206742  11.6207831  42.6049423  63.2702533  12.5696128  42.4887562
  63.4044878  11.2631839  41.7362833  67.0406906  14.3880885  25.7144284
  67.3113195  14.4805949  24.8009562  66.8536917  15.2821772  26.0005522
  34.3365240  78.3976650  16.8731034  33.6188984  78.7254095  16.3310432
  34.1308832  77.4727583  17.0090675  80.4079467  37.0018743  44.0661555
  80.0999099  37.4202655  44.8700767  79.7737724  36.3041518  43.9011031
  11.1090167  41.2925647  57.1999233  10.3554829  41.7468856  57.5767606
  11.6266402  41.0184978  57.9570156  55.2787439  24.9237101  13.1249702
  55.1423446  23.9963191  12.9311502  56.2260715  25.0449698  13.0609655
  17.6283288  49.0291500  35.8672810  17.6869476  49.4791031  36.7100954
  18.2939243  48.3429241  35.9153247  58.5632531  23.4435313  42.6681900
  58.0592267  23.3108657  43.4710503  58.2172529  22.7923911  42.0578289
  64.2035834  14.1262572  39.3379664  64.9250237  14.7552912  39.3295074
  64.4197599  13.5045092  38.6430264  76.2640987  59.5006800  49.4491863
  76.7826520  58.7738132  49.7941494  75.5129061  59.5603037  50.0394297
  82.1337644  45.9404891  33.7517381  81.1832325  45.8961623  33.8554645
  82.2767774  45.8428900  32.8103280  17.2581136  62.3229885   3.9143214
  16.5213966  62.1918821   4.5112228  17.4532592  61.4479780   3.5789031
  41.6724376   5.8189719  19.7463071  42.4768035   6.3250678  19.6318734
  41.9480971   4.9069827  19.6540153  27.9607844  61.9997787  46.1427355
  27.1215081  61.9814730  46.6026354  28.4385204  62.7252007  46.5449333
  36.6560433  15.9223311   9.2186642  36.5673373  15.6517356  10.1325226
  36.3668172  16.8347495   9.2098927   2.1203241  62.7720594  16.5643275
   3.0172557  63.0983067  16.4914846   1.6997403  63.3647108  17.1873081
  20.3613099  48.7553619  64.3987363  21.0991391  48.2358573  64.7180491
  20.4659184  48.7604259  63.4472828  54.5138454  46.1175442  14.3293095
  54.3701696  45.1712084  14.3235636  54.9741650  46.2849236  15.1516974
  56.8128109  62.8004551   7.7039188  56.8944836  62.3287725   6.8750179
  56.3187361  62.2069883   8.2695305   1.0477026  46.9438670  35.9926062
   1.3209136  46.6652892  35.1185446   0.1614006  47.2837947  35.8695226
  78.4790735  76.6354990  39.1493678  79.0433947  77.0410204  38.4910941
  77.5952504  76.9175720  38.9137316  41.7075817  11.0842078  18.9166737
  40.8528213  11.5122168  18.8673925  42.0865397  11.2051242  18.0460393
  37.8656332   9.2882960   9.6115816  37.0854346   9.7174971   9.9627262
  38.4949593   9.3082755  10.3325403  31.2217164  44.0125275   6.7020220
  30.7553911  43.4526968   7.3227978  30.6603765  44.7817230   6.6047120
   3.2369274   2.2794192   5.2144438   3.0348867   2.0421450   6.1194927
   2.5222486   2.8604453   4.9539179  33.4387827  60.7542753  23.1954765
  32.8591299  60.8772898  23.9472103  34.1662693  61.3560963  23.3529735
  27.8370961  59.1451476  65.6841814  28.7888058  59.2465041  65.6987762
  27.5531824  59.6580432  64.9275070  33.5558422  36.1893914  62.7492719
  33.3138474  36.7383741  62.0034235  33.7813385  36.8112062  63.4411757
  10.7413634  42.9564689  54.3555003  10.2598556  42.1391700  54.4835275
  10.8460506  43.3134578  55.2374499  40.0719404  58.9298058  36.8377614
  40.1812220  59.8312330  36.5349078  39.7434711  59.0159655  37.7326989
  11.0705173  34.0247941  11.1588287  11.1995089  33.6519265  12.0309305
  11.2389183  34.9603581  11.2710381   3.7302908  55.4320621   9.4094270
   4.4600362  55.9875107   9.6836191   4.1442820  54.7048044   8.9447337
  51.3552982   1.5227769  65.3724384  50.6720865   1.7040895  66.0178681
  51.8328297   0.7754825  65.7326420  41.7557413  79.3962189  21.0663962
  42.2976238  79.8104296  20.3948116  42.0052642  78.4725083  21.0393882
  16.1757076  32.5236821   0.0843645  16.7056549  32.8885818   0.7930513
  15.3441048  32.9943514   0.1403797  37.5664711  55.9045219  27.8576612
  36.8106484  55.3681707  27.6183033  37.6748228  55.7598019  28.7976313
  49.7203126  54.5280748  33.3429532  49.9513235  53.7245481  32.8768950
  50.4913416  54.7269421  33.8741761  13.2910311  47.5786448  36.0339832
  14.0726852  47.1975136  36.4339709  13.4359956  47.4889708  35.0920844
  66.0324168  25.5039428  56.9051223  65.7728482  24.9526094  57.6432853
  66.1096674  24.8973964  56.1686700   4.2076525  37.2582006  31.2076807
   5.1048362  36.9924045  31.4092875   3.7412480  37.1774697  32.0396543
  70.7758330  40.6269360   0.5245604  70.6716130  40.1347399  -0.2897562
  69.8830579  40.8592272   0.7799567  74.5050774  48.7106228  28.9940405
  75.0932012  48.1615400  28.4755325  73.9650605  49.1622210  28.3454466
  47.2930733   1.0998862  16.5740168  46.5539698   1.5903037  16.2142301
  47.2728531   1.2900107  17.5119269  13.1010211  41.5204763  14.6391881
  12.6605940  40.8522320  15.1642668  12.7994490  42.3512077  15.0068462
   1.4411893  43.9030647   5.1771474   0.7682579  44.5833540   5.2017117
   1.7615706  43.9155436   4.2752427  20.6566477  61.3117266  11.9111896
  20.7990026  61.6806650  11.0394931  21.4260721  61.5800476  12.4134099
  22.7501011  13.4287894   9.8407382  23.0441713  13.2848477   8.9412743
  23.4240127  13.0172980  10.3818035   8.1930494  53.2528591  48.7121916
   8.2448059  52.6893377  47.9401827   8.6970156  54.0312433  48.4747696
   5.9371889  53.8522625  40.1706743   6.6991323  54.0408039  40.7185125
   5.9357589  52.8991604  40.0821972  83.6457044  15.1098273  45.9878569
  84.0103346  14.2258857  46.0316878  82.7229506  14.9999259  46.2173777
  44.3026771  81.8378478  66.1375260  43.9428093  81.1687975  66.7198472
  44.9580028  81.3742333  65.6161427  51.8117903  49.0307379   5.4578578
  52.6839255  48.7927866   5.1432300  51.3732932  48.1926823   5.6048614
  10.2196145  15.7761526  15.0774968  10.9633780  15.4751456  14.5555377
  10.4568338  16.6649044  15.3422236  53.8458461  17.9382489  41.2015300
  53.5748706  18.7590097  40.7902461  54.1706282  17.4032376  40.4773002
  86.7109559  33.1558323   6.8568486  85.9440005  33.7157702   6.7365181
  86.4012077  32.2759700   6.6420656  30.6524682  68.1477261   2.5098518
  31.0722804  67.3355246   2.7932549  31.1367083  68.8382483   2.9625371
  63.9578555   9.7759086  19.3814898  63.7178372  10.6636477  19.6470892
  64.7722481   9.8847640  18.8904250  15.6989479  12.7622199  14.5526206
  15.3806174  13.6625361  14.4868279  16.4451659  12.8150594  15.1497805
  29.3826842  22.3220062  22.2810483  29.6571088  21.5630245  22.7957034
  28.6604667  21.9979978  21.7428565  33.5766464  75.9964590  59.5301490
  32.9337450  76.6953092  59.4096594  33.8888904  75.8032446  58.6461788
  43.6848786  62.5130730  54.7852796  44.6303716  62.6449233  54.7153454
  43.3289685  62.9029875  53.9868265  27.2874618  48.0370522   9.6914083
  26.4548492  47.6817131   9.3804038  27.1296358  48.9772797   9.7768313
   0.3682348  71.8248987  21.4179063   0.6915806  72.4600029  22.0569086
  -0.3377147  71.3656330  21.8728137  33.1897116  35.9090781   2.9476386
  32.4148417  35.4085779   3.2031950  32.9334927  36.3502860   2.1377511
  70.2625670  70.1439624  47.6558643  70.3025212  70.6657105  48.4573727
  70.3180804  70.7866602  46.9486933   4.5764685  52.4439478  26.6307306
   4.4419867  52.6024008  25.6963658   3.6944664  52.3237181  26.9826531
  11.8637335  20.9014916  24.2182255  11.0141838  21.3362455  24.2922926
  11.6556585  20.0206137  23.9067960  23.5494065  18.8063705  10.8629334
  23.1891441  18.3293891  10.1153159  23.4288454  19.7291529  10.6389475
   9.0896493  32.3596072   7.8939337   9.3992335  33.0202794   7.2743350
   9.6364605  31.5934205   7.7201879  27.3377800  50.6436491   6.1307645
  26.8595409  49.9906778   5.6197411  28.1876349  50.2380228   6.3023621
  64.0068569  62.4471574  52.3589890  64.1078606  61.6447525  51.8469577
  64.7560921  62.9873877  52.1079367  76.5252076  26.0761285   1.7153381
  77.0915250  25.3957462   1.3512006  76.1140786  26.4799309   0.9510421
  43.2301265  15.7165311  67.5588559  43.4626752  15.5426191  68.4709459
  43.0230230  16.6508315  67.5384473  56.7284451   5.0146507  52.5106185
  57.1223819   5.8595107  52.2932296  55.9299386   5.2386020  52.9885977
  15.5250033  30.3540919  62.1404528  16.2804421  30.4014896  61.5545385
  15.2741440  31.2669061  62.2821420  81.6318981  58.9687014   3.4242040
  81.6932131  58.0339098   3.6207691  81.1513357  59.0085649   2.5973409
  24.9805546  22.6034975  26.9592595  25.6364298  22.9254460  27.5776529
  25.3937149  22.6981878  26.1010242   6.6335066  23.2274411  63.8755672
   6.2199982  22.8942655  63.0791771   7.3725422  22.6380799  64.0262758
  41.6564512  72.8867865  25.9634089  40.7504416  72.9458141  26.2665486
  42.1810293  72.9599333  26.7607164  48.0001154  78.0994683  39.4500380
  48.0918291  77.4852877  38.7216120  47.9083218  78.9554148  39.0315180
  54.9395339   3.5382121  15.1091516  54.8381201   2.8419631  14.4601643
  55.7618705   3.3330481  15.5540133  13.1202686  62.2834682  18.7199402
  12.5680208  62.8327847  18.1636095  13.8744843  62.0685339  18.1711292
  60.9244067   4.9495004  59.8496228  61.6155118   5.5400680  60.1493495
  61.3079036   4.0755199  59.9225192  32.1422887  32.0808339   1.2868024
  31.7389965  32.1835065   2.1488042  31.4061117  31.9265580   0.6947926
   7.2898245  38.9642286   9.7626114   7.0684010  38.7750483   8.8507921
   7.3630679  38.1034541  10.1748455  60.2317467  71.5379625  54.0749329
  61.0882606  71.3960414  53.6718505  59.6160068  71.0945421  53.4914332
  15.2117833  55.3023074  39.8170596  15.1782854  54.3515228  39.9225192
  16.1146077  55.5356048  40.0331932  73.7820755  74.0752220  13.8927448
  73.1484185  74.4188833  14.5225132  73.8948284  74.7815943  13.2566953
  13.4586716  48.0749750   1.8916492  13.4489024  47.1414566   1.6802777
  13.3961308  48.5133648   1.0430406  22.6274276  20.9399939   5.9152269
  22.3451304  21.2498808   5.0546980  22.5919080  21.7170000   6.4731073
  86.5828353  14.5175431  56.4548247  85.9903986  13.7826560  56.2961083
  86.1922008  15.2480100  55.9751873  65.8699835   3.0072807  46.9816928
  66.4294797   3.1037305  46.2110477  66.4536709   2.6686500  47.6605659
  29.9071598  67.9633760  14.0638363  29.0862393  68.2093430  13.6374307
  30.1063037  67.0939064  13.7165630  20.8388883  36.1011623  61.9563287
  21.1896402  36.9370673  61.6489666  21.1475116  35.4614471  61.3146495
  41.3063812  48.6131573  14.5158899  42.1693897  48.9556599  14.2832029
  41.4066792  48.3023453  15.4156494  16.0405787   7.8145669  59.9085730
  16.5627201   7.0405458  59.6976333  15.1358088   7.5021909  59.9020844
  19.2416096  74.5354366  40.6770086  19.3424022  75.0651407  39.8861337
  18.8293970  73.7268734  40.3728056  75.4230720  11.3393901  44.6084886
  75.5973321  11.9561551  43.8975244  76.2596625  11.2595151  45.0667100
   0.9322461  47.3189695   4.0355673   1.3675960  47.7047951   4.7957262
   1.5115817  46.6072542   3.7634185  30.5334067  31.7831135  16.8536818
  30.7397938  31.8013549  17.7881885  29.6134186  31.5214229  16.8166411
  47.3241808  77.2437482  65.9642845  47.6031997  76.3355594  66.0807901
  48.1241527  77.7566843  66.0790723  84.6115730  46.3403034  16.1363542
  84.5758007  45.7978535  16.9242001  83.6951123  46.5251446  15.9310126
  28.8270998  63.7114000  26.4364719  27.8730726  63.7416410  26.3647246
  29.1092348  63.2123137  25.6699610   1.9060478  57.4751425  12.0722735
   2.8372842  57.6365805  11.9207203   1.8832450  56.6656733  12.5826418
  25.8628249  27.6809001  33.5389805  26.7640877  27.8282046  33.8257957
  25.6752229  26.7773509  33.7932110  36.7097688  25.6261134  24.5325565
  36.2824488  24.7697473  24.5162296  37.5199819  25.4989481  24.0389848
  74.5822650   1.0679267  60.0670784  75.0207252   0.5967305  60.7755660
  74.8822254   1.9722245  60.1592796  14.9037369  16.8509601  61.5303975
  15.4177054  16.1805843  61.9805758  14.3867691  16.3650869  60.8878206
  14.1071415  69.0687418  18.9981174  13.1551528  69.1479445  18.9374948
  14.4328475  69.9504280  18.8170898  42.7229170   0.8469241   3.8471586
  43.3202390   1.2565749   4.4729549  42.2999148   0.1461165   4.3433189
  40.9935474  46.9244051  16.8032122  40.4601288  46.6849518  16.0453463
  41.0883904  46.1095524  17.2964227  29.4062090  47.5159121  31.5683413
  29.3941736  47.7383947  32.4992514  29.0616727  48.2948017  31.1314631
  27.4883707  18.4395478  63.1074887  27.8645762  18.0239032  62.3316400
  28.2147702  18.4886382  63.7289124   2.4161886  49.1183567   9.8776871
   3.0768663  49.6526623   9.4369435   2.6191980  49.2064428  10.8089542
  26.0853479   1.1036914   4.9653980  25.3787089   1.7179339   5.1643729
  25.9385441   0.8573954   4.0521508  40.7592773  62.0003080  14.1344488
  40.5884075  61.2429810  14.6943533  40.3280926  62.7296257  14.5798767
  51.6953459  59.9649625  62.3983871  51.2709846  60.5873614  61.8078207
  51.9786944  59.2495721  61.8290358  61.9849602   2.6076167  13.2105172
  62.6563517   1.9311087  13.1221271  61.9083921   2.9850142  12.3341966
   6.1480427  61.0207653   3.2602850   6.8969923  61.5371132   2.9624668
   6.5359342  60.2286816   3.6322671  14.6667345   7.5429223  51.3399535
  14.5010432   8.0787204  50.5642586  15.1762875   8.1102346  51.9185262
  11.0909986  61.5959263  34.0529990  10.9902978  61.2320662  34.9325991
  10.2396560  61.4579010  33.6377954  36.8510509  46.0130167   1.8945779
  37.7786899  45.8131409   2.0201622  36.7235899  46.8495750   2.3419604
  40.5227947  48.3481216  25.8632588  40.9095287  48.9035654  26.5401268
  40.6767368  47.4545240  26.1698914  70.1796049  16.4360975  37.7501851
  70.1222307  15.8334993  38.4916788  69.6620125  16.0186265  37.0616751
  53.5816288  75.4532766   2.7996400  53.6632490  75.4275036   1.8462744
  53.2082701  76.3149786   2.9848537  56.3017459  13.6749957  57.5894623
  55.3465689  13.7365888  57.5808077  56.5532592  13.7236570  56.6671806
  53.6878481  68.5045677  44.1357665  53.8074508  69.2241245  44.7555762
  53.9037909  68.8838678  43.2838660  10.6749018  18.3363174  65.6192517
  10.6857594  17.3805497  65.5680441  11.5679224  18.5983251  65.3954279
   9.4944310  53.8870573  11.0529637   9.8418999  53.8210106  10.1635063
   9.8809814  54.6901274  11.4020920   4.1136273  28.5785459  54.6092432
   4.7519763  28.8271306  55.2777856   4.4271215  27.7361081  54.2802279
  30.7819517  24.6799777  59.6787506  31.3187226  25.0479768  58.9768379
  31.0278090  25.1812957  60.4562228   3.0772552  54.9134207   5.6990683
   2.7475834  54.1615152   6.1911964   2.7753931  54.7642231   4.8030484
   9.9206585  72.7510500  25.7563066  10.4163563  71.9758081  25.4926515
  10.5095601  73.4841537  25.5774570  12.9385602  58.8762426  16.9150305
  12.5507176  59.7447014  16.8073606  12.1886039  58.2892561  17.0111775
  85.5438119   6.5064405  38.5283142  85.3553111   5.5682777  38.5049754
  84.8811823   6.8981097  37.9593234  28.0638814  62.5713396   7.2163820
  28.1432056  63.5150719   7.3553503  27.8436303  62.2198915   8.0790550
  27.9651117  52.7127171   2.2313891  28.6328840  53.3809042   2.0769912
  28.4292746  52.0113325   2.6883873  22.5821686  41.8914652  14.8901534
  23.5298586  41.8999195  15.0244880  22.4489737  42.4013662  14.0910947
  40.6112161  62.6204973  52.0415049  40.8424916  62.0983892  51.2732952
  41.3951232  63.1386691  52.2237688  16.7823803  52.6955938  24.4422555
  16.5357566  51.8218422  24.1389942  16.8811429  53.2085037  23.6401320
  70.1537687  21.6255353  66.2510975  69.5555085  21.5075134  65.5132704
  70.4231614  20.7374261  66.4854478  19.7758901  79.5900011   7.9070139
  20.3174400  80.3283596   8.1859112  20.2010703  79.2678642   7.1122301
  11.1474045  13.2243798  60.9294056  11.5371235  12.3656676  61.0936200
  11.1834725  13.6696218  61.7759805  52.9429579  20.5743859  60.8078890
  53.4088534  20.9367488  61.5614592  52.0195747  20.6096242  61.0575949
  15.5812681  74.6541882  66.0853958  16.1252749  75.3672695  66.4197731
  15.6010103  74.7634363  65.1346588  35.8584404  64.6503353  28.1063724
  35.2375293  64.6929216  28.8336182  35.8669543  63.7274742  27.8524351
  71.6863781  47.2439502  42.6577692  71.7162007  46.3097308  42.8640943
  72.5957710  47.5340865  42.7288847   1.6513759  58.8078690  22.2397637
   1.3124022  59.5372677  21.7208147   0.8710387  58.3904076  22.6044989
  80.7949033  62.8326803  54.8676186  81.1486020  62.5115805  54.0381461
  80.0407138  62.2691875  55.0405496  46.1518002  50.6368017  21.1642051
  46.8020010  50.5397177  21.8599367  45.6440306  49.8260069  21.1960840
   2.3169439  22.0475554  21.0737848   2.9883417  22.1663117  20.4019570
   1.4953253  22.2615576  20.6317711  18.5709968  73.9667683  51.8224495
  19.0374305  73.1517892  52.0081335  19.2586561  74.6309691  51.7755990
  40.2648455  30.4304145  59.1147988  40.1794380  29.4799922  59.1898172
  41.0406596  30.6428741  59.6336501  55.1919405  12.9004805  23.7375402
  54.8765818  13.7935584  23.5990477  54.4053761  12.3576682  23.6836338
  10.7657373  20.9906650  13.0671930  10.3629422  20.1509500  12.8461361
  10.7781386  21.0058045  14.0241921  68.5810644  17.8931974  70.6222674
  69.4608110  17.8947519  70.9994628  68.5578746  18.6713575  70.0653464
  43.1659174  69.3049812  16.7788732  42.3566008  69.4508791  17.2687185
  42.9497814  68.6056852  16.1620271  46.8616811  33.3852237  18.5424304
  45.9471504  33.6668628  18.5191512  47.1346072  33.3815997  17.6249719
  30.1477957  76.0109234  33.3937955  30.2614069  76.1598253  34.3324924
  30.1096821  76.8891048  33.0148745  83.1768976  67.7569628   2.2110416
  83.3121355  67.9270267   3.1432542  82.9858918  68.6166573   1.8359828
  10.5469096  53.2467031   8.5674095  10.8249688  53.4340334   7.6708484
  11.3543367  53.2797480   9.0804404  51.5378666  48.1981802  22.6529384
  52.1739674  48.5116053  22.0099974  51.5143585  48.8837910  23.3204842
  28.7306666  77.1705818  46.2729406  28.5624766  77.8170681  46.9585037
  28.0657268  76.4961100  46.4114237  57.8945365  68.6912947  68.2667039
  58.6008730  68.6281972  68.9096182  57.1515717  68.2548409  68.6835285
  70.7543749  26.3739989  70.6504753  69.9355263  25.8912299  70.7629537
  71.0721106  26.1088632  69.7873540  26.7218971  57.5326586  27.1175075
  27.2474766  58.0499315  27.7277708  26.8514633  56.6267347  27.3981285
  61.0169117   2.2243254  27.1499491  60.6203763   1.7156356  27.8572202
  61.4216439   2.9716914  27.5902390  59.1810608  41.6021156  17.1156061
  59.7412491  41.0461092  16.5740526  59.7320080  42.3524618  17.3384774
   4.2792624  32.9845071  14.4787943   4.3477884  32.0680594  14.7464895
   4.5902690  33.4793520  15.2368414   4.8966682  66.0496521  33.8823771
   5.3968388  66.8647099  33.9241505   5.3999770  65.4898071  33.2912040
   6.7782789  30.3819561  16.0553432   6.9451177  31.0914183  15.4348111
   7.1240819  29.6004224  15.6242359  83.6538700  30.7766938  15.1694977
  82.8574912  31.2567782  15.3965032  83.3665941  30.1250148  14.5299518
   5.6345971  17.0571635  47.6796108   6.4195617  17.5751804  47.8577166
   5.2657541  16.8762563  48.5441690  78.4330813  59.2608786   6.3163519
  78.1341938  58.6405373   5.6514663  78.8215731  59.9789000   5.8166039
  34.3571353  54.1258240  13.9144099  34.8363280  54.6243715  14.5762694
  35.0346351  53.8049364  13.3192122  33.2059848  59.4827955  38.7848955
  33.5452377  59.4216316  37.8919249  32.3654088  59.0259772  38.7535768
  26.9774818  68.3269310  28.1290483  27.2716737  67.4536705  27.8700233
  26.3025212  68.5520077  27.4887371  77.6714138  12.6016009  15.5088782
  78.6145691  12.5365055  15.3590381  77.5665496  13.3948374  16.0342455
   3.9002156  56.1875296   0.5660262   3.0830196  56.0696077   0.0817573
   4.0411133  57.1342897   0.5711352  37.3123360  67.5994587  11.5334213
  36.6914797  66.9003963  11.3282931  37.2867465  67.6701355  12.4876654
   2.8059427   6.1042063  35.6185818   2.7880613   6.6438334  36.4089751
   3.4954731   5.4610389  35.7832336  13.8873923  62.4888849  32.6779103
  14.6070004  62.4744940  33.3089328  13.0962276  62.4799681  33.2166243
  16.9728529  52.3952055  44.4583845  16.4102888  53.0301094  44.0149355
  17.5497961  52.9277277  45.0059080  67.1748843  76.3161951  68.3905650
  67.0330491  75.4739170  67.9585009  66.7855349  76.2087899  69.2583799
  64.7909703  66.2252169  65.3709900  64.7134294  66.6176134  66.2406128
  65.3646078  66.8213373  64.8895215   7.4346769  15.7145584  16.0824335
   8.2957238  15.3491783  15.8791423   7.3934877  16.5262723  15.5768073
   6.8242057   6.7702840  51.4495771   7.0886787   7.4620507  52.0559996
   7.5726612   6.1740850  51.4252084  82.3877130  33.6535358   9.3638033
  83.2648019  33.3068419   9.2002457  82.0867268  33.1858349  10.1428390
   7.6094540  42.8384231  32.4298006   7.5207456  41.8899463  32.3362356
   6.9834336  43.0710433  33.1155210  37.0488906  53.1207705  45.2059793
  36.4404154  52.3868418  45.1203060  36.4940953  53.8663435  45.4352236
  28.1562042  64.9116564  18.7077212  27.9518700  65.4677105  19.4595754
  27.7421784  65.3513384  17.9650950  74.7857402  43.0295897  21.7182446
  74.3572555  43.7678766  21.2851596  75.4446242  43.4329748  22.2833848
   4.9619681  23.8641644  12.2849751   4.9459502  24.1168356  13.2080853
   4.5481727  23.0012441  12.2656333  42.0790339  36.0570455   5.2635306
  41.6980124  35.2092886   5.4923618  43.0121803  35.8771706   5.1490206
  17.7152967  27.9139495   3.4022769  17.9981601  27.0400620   3.6716107
  17.9171968  28.4729075   4.1526321  16.6700292  17.8398812  19.0314448
  16.5875626  18.7933540  19.0493381  17.6086438  17.6825356  18.9290905
  82.9501754   9.7022317  63.9038651  83.4075600  10.3664277  63.3882373
  82.7833826  10.1256536  64.7459619  14.1397524  55.1699734  17.2741652
  14.4905996  55.8405209  16.6880739  13.2514882  55.0129271  16.9539237
  23.7527156  59.7661400   0.3834924  24.6235275  59.7868967  -0.0133538
  23.4449911  58.8713169   0.2391475  67.5720346  43.9580939  39.5835309
  67.5976712  44.6315883  40.2632289  68.0610544  43.2239650  39.9552064
  28.2395101  63.0215168  36.2286353  27.7368784  63.8360977  36.2214947
  29.1082025  63.2733488  35.9152913  19.5738411  43.9800644  13.2602143
  20.4676414  44.1325617  12.9534602  19.6280050  43.1659079  13.7606633
  52.4859870  12.4191974  63.4561526  53.1200806  12.7933429  62.8444564
  53.0039209  11.8362973  64.0113162  83.0345470   1.0268377  65.6160217
  83.1139761   1.9807027  65.6239348  82.7130324   0.8205436  64.7383528
  85.7724894  40.8182812  25.9871888  85.9043934  39.8851705  25.8194494
  84.9097456  40.8680248  26.3988090   9.0395772  40.6558943  44.2683935
   9.9075222  40.4117584  43.9469862   9.2056376  41.0712576  45.1146364
  20.8538270  15.5424953   6.8705022  21.7217875  15.2271795   6.6186035
  20.8139467  15.4038501   7.8167683  59.1387701  59.5921993   4.0083182
  58.2099390  59.6739388   3.7919360  59.1791534  58.8531780   4.6153188
  13.2380116  45.4619884   2.0220155  12.9425728  45.6470680   2.9134718
  12.8830528  44.5946312   1.8272762  81.2902314  11.8087695  65.7710706
  81.4281899  12.6997684  66.0924958  81.1392671  11.9137119  64.8316937
  48.1921854  78.8879185  69.0711149  47.3287835  79.2659693  68.9042481
  48.6729577  79.0187436  68.2538175  52.5252533  71.3613033  24.2574739
  52.3450327  71.9432306  24.9957919  51.7370081  71.4094877  23.7165689
  79.8547012  56.9003223  44.2062645  80.5288774  56.4236854  44.6905475
  79.0825945  56.3364814  44.2527752  80.8716874  40.5064392  33.7673998
  81.6969828  40.9786987  33.8773656  81.1253367  39.6671271  33.3834124
  14.0141964  31.8709826  27.5658107  14.5475769  31.3008451  27.0120263
  13.7169087  32.5656891  26.9782424  27.3547935  53.3348894   9.3540460
  27.2111273  52.3886156   9.3414026  27.3858833  53.5847855   8.4305650
  15.2529740  33.5983348  49.9020004  14.7815859  33.6090350  49.0689850
  15.0097096  34.4215846  50.3254509  12.6341772  70.1474619   4.1217867
  12.9651070  69.4919205   4.7357750  11.6911805  70.1731300   4.2840543
   8.2607991  58.5172987   7.4014372   8.7885046  58.0639267   8.0588669
   7.8365690  57.8147745   6.9087684  43.6407518  76.9864178  20.3607202
  42.8027630  76.5243387  20.3828168  44.1926050  76.4543533  19.7874880
  60.1831165   3.9281343  66.5513467  60.0035864   3.2664798  67.2193392
  59.5916131   3.7084459  65.8315604  59.1166081  77.3818689  60.8742719
  59.1147842  76.4432817  61.0621094  59.8945393  77.7142482  61.3221293
  45.9628296  72.5013971   1.5305813  46.1616468  73.3672237   1.8870187
  45.0309944  72.3765659   1.7103872   2.3122295  38.2084010  51.7436760
   2.7008732  37.3336719  51.7381971   1.8696912  38.2685731  52.5902992
  38.0855870  35.6907940  14.8453438  38.8564062  36.1033106  14.4556034
  38.2696223  34.7523522  14.8042834   5.5043419   0.1550029  38.0681782
   5.3682001   1.0123847  38.4714084   6.4314469  -0.0335719  38.2136040
   7.2048414  56.6876173   5.7925075   6.6702700  55.9470749   5.5060470
   7.1685576  57.3057556   5.0625604  82.4234921  49.5933555  48.3866268
  82.0847661  50.3146384  48.9169531  81.9703275  48.8184283  48.7188416
  15.0126767  48.5100222  25.9469676  15.2740896  49.3547058  26.3135791
  14.3228829  48.7246418  25.3189921  18.4795296  57.0936775  29.8827195
  18.5037816  56.2300491  30.2947712  17.7214968  57.0594645  29.2992401
  43.4270668  63.5663080  45.7765388  42.7672052  63.0064917  46.1857080
  43.3251095  64.4132996  46.2106371  84.6225101  22.3978112  54.4674843
  84.8674470  21.4776490  54.3698221  85.1998169  22.7275489  55.1561218
  28.0045565  21.5173267  60.8766638  27.1930416  21.1264775  61.2005638
  27.7768477  22.4300550  60.6997269  59.0570005   1.7091869  64.9818956
  59.7194952   1.7742751  64.2940759  58.4465286   1.0438560  64.6642559
  15.1443966  32.7697156  68.2395697  15.9274634  32.2296308  68.3460858
  15.0423678  32.8594087  67.2920584  81.8982464  45.7761214  42.5463467
  82.4936229  45.1109813  42.2008877  82.4587399  46.5324424  42.7197509
  52.4003065  40.3481792  69.6737715  52.6539845  39.4253658  69.6906620
  52.6411850  40.6467841  68.7968182   4.8358863   2.8290599  18.6494076
   3.8987678   2.9491751  18.4957337   5.2346986   2.9254573  17.7846038
  16.3180375  33.8040495   7.6452911  16.1659384  33.0105305   8.1585431
  15.4690027  34.2457938   7.6299632  40.7209534   9.4265626  70.1784125
  41.1193687   9.1213248  69.3633499  41.4631576   9.6012328  70.7570787
  30.7273030  49.0904474  13.0949879  30.9302187  48.1573009  13.0294371
  30.9130836  49.3124390  14.0073669  23.7684162   4.1122745  38.1696468
  24.2824610   3.8175176  38.9213853  23.0065544   3.5329030  38.1584697
   4.0188392  16.0210918  58.1571501   3.8827213  16.1287187  59.0984898
   3.2488521  15.5377982  57.8575199  27.1168113  39.9187303  14.1241753
  27.9382396  40.4063463  14.1851306  26.6179895  40.3736877  13.4456313
  66.7072964  51.8866777   6.2343824  66.0975266  51.2359428   6.5821755
  67.0731926  51.4771175   5.4504097  48.4636736  59.4139719  22.2851110
  47.9046726  58.9161682  21.6885042  49.1596699  58.8029957  22.5270486
  61.7936194  27.3647378  62.3840838  60.8693767  27.1177600  62.4158310
  62.2659153  26.5365861  62.4697106  42.8826666  72.5752544  53.4247303
  43.5625839  72.7656937  54.0710115  42.2417259  72.0465946  53.9000607
  41.6308355  39.9720287  10.3179491  41.4822721  40.7262278   9.7475564
  41.0057116  39.3143630  10.0131047  11.4443731  62.5889015  23.1626916
  10.9817958  62.2927094  23.9466095  11.5597904  61.7961407  22.6388144
  35.1670194  48.0898285  29.4338536  35.1744962  48.4370375  28.5418797
  34.4119549  47.5019217  29.4556999  54.1581432   6.5626853  49.8188972
  54.2395536   7.1923297  49.1025496  53.2161848   6.5005725  49.9772930
   0.4422042  75.5581808   8.0972701  -0.0881751  74.8604774   7.7123863
   1.3107961  75.1694727   8.2006341  79.8374421  32.9548476  66.5496799
  79.0324670  32.7441095  67.0227914  79.5376712  33.3513902  65.7316797
  48.6735582  55.3588867  18.0050492  49.3007469  54.7622633  18.4135830
  48.0084467  54.7843456  17.6258922  34.0882373  37.4001312  21.8708253
  34.7500539  37.3177147  22.5574398  33.3294678  36.9263196  22.2114182
  53.3176565  47.0545816  18.6042845  53.8747644  47.3562193  17.8867364
  53.1053114  46.1490154  18.3782494  47.9580832  64.6048784   4.5370248
  48.5388899  63.8547802   4.4095808  47.3112679  64.5288706   3.8355368
  18.4676027  54.5755339   6.5555811  19.1649401  54.6805382   7.2028267
  18.1930614  55.4696560   6.3521063   5.0719460  22.7873634  66.1078923
   4.3251117  23.3858417  66.0907542   5.6103404  23.0548166  65.3630232
  29.7244906  37.0559359   7.2438121  29.5791221  36.6882586   6.3720816
  30.6301165  37.3653364   7.2252882  82.0560724  42.2615169  59.3544202
  81.8408257  42.9791949  59.9501007  81.2664515  41.7207931  59.3356913
  31.4826727  80.3291512  37.7195072  31.8575382  80.4697227  36.8500566
  32.2161794  80.0160599  38.2488251  61.6995955  63.8826370   3.2748514
  61.3208008  63.0093145   3.3750957  62.4828863  63.7442875   2.7423611
  67.2089589  15.8287214  63.5889327  67.5922627  15.7757638  62.7134293
  67.4205375  16.7123769  63.8899725  17.3265417  59.4207595  62.5301998
  17.6075276  58.6740897  63.0591296  17.1342762  60.1076339  63.1685298
  68.2835681  25.3461240  40.1059776  69.1894669  25.0418828  40.0510650
  67.7892083  24.5766948  40.3884941  30.7406545  34.1169262  10.3316975
  30.5735636  34.8350716  10.9420896  29.8881221  33.9356208   9.9360359
  43.5083229  20.3870271  59.4325488  42.7658564  20.6869195  59.9569910
  43.7047035  19.5140813  59.7725945  55.9808777  39.6317601  12.8280461
  55.6834458  38.8920569  13.3577669  56.4985488  40.1653290  13.4309971
  14.3215998  33.1041883  61.7396288  13.6164816  33.7200473  61.9390147
  14.0177687  32.6357721  60.9621298  76.3969416   3.6732982  42.2274523
  75.6007988   3.1552861  42.3459893  76.3868505   3.9197467  41.3025766
  81.0341970   8.3974688  34.3645501  80.1422969   8.0675929  34.2553544
  81.5546123   7.8921073  33.7400460  15.6361731  32.9323600  65.5027574
  15.5339201  31.9908593  65.3636407  14.9053868  33.3257030  65.0258272
  22.1902275  72.3799038  -0.2455272  22.3977399  71.4577150  -0.3963077
  22.3142052  72.5025225   0.6956562  15.4828131  39.1107082   9.1895252
  15.1802540  38.3614540   9.7026628  15.6343329  39.7990584   9.8371714
  14.0310752  78.0880451   3.5179684  14.2849410  77.3326778   2.9876828
  13.6206007  78.6896515   2.8968316  14.3225773  12.1042894  45.5335980
  13.6847981  11.8197559  46.1882024  13.8520344  12.0509742  44.7017460
  14.4422877  42.8551626   7.0587987  15.0149691  42.0884037   7.0774573
  14.9839854  43.5670376   7.3994315  46.9040887  24.9297946   2.0634295
  46.1092142  24.4718688   2.3367549  47.0042912  24.7044699   1.1385410
  22.8975606  56.9794941  15.1642704  23.4730530  57.3880148  15.8109164
  23.4618783  56.8212557  14.4074762  20.2414282  38.1450103  66.4286577
  20.5000122  39.0185617  66.7223804  20.0606259  38.2501529  65.4945879
  64.1880358  19.5009635  64.0806990  64.3926150  18.5663436  64.1101175
  64.9496413  19.8997186  63.6597686  25.6094646  61.7357779  20.9835649
  26.2999392  61.2695169  20.5123115  25.2635837  62.3600101  20.3456545
  72.3655025   3.0036013  35.4836130  73.1008236   3.0042117  36.0964203
  71.6981451   3.5414546  35.9097362   3.7390801  65.3640890   9.7553694
   3.1575680  65.5998230  10.4782140   3.9330193  64.4374180   9.8964328
  21.4518889  33.4978936  52.6274889  21.0863026  32.6969312  52.2519403
  22.3405608  33.2561801  52.8883844  20.9729362  68.6264992  20.7881570
  20.9917283  69.3645287  21.3974094  21.3837099  67.9081869  21.2693286
  16.2490900  51.8795131  57.1184009  16.5764054  50.9821056  57.1796613
  15.3022345  51.7826961  57.0168083  49.4596148  41.5448284   2.0011692
  49.6371365  42.1823645   2.6927367  50.1935482  40.9320068   2.0462054
  45.4548033   4.9675964  70.6081568  45.1564272   5.4473661  71.3808299
  44.6575745   4.8069595  70.1033267   9.3242554   5.5750506   7.8243369
   9.7020570   6.2308638   8.4103477   8.4276168   5.8751624   7.6753235
  64.9593735  71.0397673  14.4372237  65.2907944  70.1556396  14.2800415
  64.7810173  71.3875580  13.5634589  19.4049498  70.4473095  60.0151091
  20.1934715  69.9080115  59.9549156  19.0843060  70.3042083  60.9055810
  23.1757172  24.4500755  48.6462169  24.1298159  24.4587253  48.5697108
  23.0041893  24.7527526  49.5379572  51.1850087  20.0758879  10.6831241
  50.2803795  20.3430789  10.5203915  51.6910497  20.8848231  10.6070995
  70.4465594  62.6381593  49.7666483  70.3953471  63.5871463  49.6524768
  70.7772937  62.5215774  50.6572991  85.2455765   5.3696845  64.0561860
  85.0382024   4.9027131  63.2467633  86.1431581   5.1074956  64.2607265
  43.0262566  74.1467285  28.3062196  42.4278545  74.1607189  29.0531802
  43.8771343  73.9260387  28.6850810   4.7293957  46.6254066  64.4561153
   5.1417907  46.8148254  63.6133324   3.7909706  46.6192363  64.2675637
  10.2821445  56.6178513   3.3101282   9.7334963  57.2105122   2.7963457
   9.7085088  55.8803749   3.5182181  39.8286796  80.9379959  22.6592278
  40.5059671  81.0189819  23.3307552  40.3057003  80.6934738  21.8662000
  33.0522279  11.8990462  35.5704045  32.1210800  11.8634551  35.7893324
  33.2670025  11.0087817  35.2919698  49.8512137  34.3713830  54.2404597
  49.2383909  33.7322829  53.8768225  49.6689302  34.3702338  55.1801424
  75.0370334  28.3829618   2.5530040  75.6352220  27.7890587   2.0994817
  75.6090222  28.9507985   3.0693582  81.0495097  64.0063499  47.2483211
  81.2893755  63.8522838  48.1620818  80.1102978  64.1891406  47.2747879
  61.3326645  39.3465686   6.4357895  60.6715631  39.7704744   5.8885467
  61.6736794  38.6361337   5.8924419  49.2650879  18.7904094  46.0868650
  49.7156626  19.4388459  46.6279226  49.6820623  17.9588626  46.3124686
  10.3874534  31.1094039  25.7761049  10.1153701  31.7809623  26.4015722
  10.7440084  31.6013663  25.0364542  29.5536916  10.8865016  15.2976608
  29.9585512  11.4944594  14.6790266  30.0589728  10.0788157  15.2051747
  49.1046429  73.9542246   6.5782666  49.8113966  73.3501434   6.3506305
  48.8116169  74.3074512   5.7382679  24.0488791  40.4788113  22.0653009
  23.4189916  40.1578808  22.7106500  23.5819983  40.4318523  21.2310052
  57.7291549  39.2126201  61.2936979  58.1251710  38.4446548  60.8818334
  58.4392932  39.8528121  61.3394510  43.2132101  50.8885384  23.8274574
  43.4434032  50.8071518  22.9019213  43.2401323  49.9916363  24.1607308
  85.7339720  56.4246225  12.3689544  85.6740628  56.5375900  11.4203334
  86.6738182  56.4151382  12.5501478   0.7011026  73.9408255  14.4247603
   1.6273364  74.1088057  14.2512488   0.7009018  73.1888008  15.0169504
  14.4050109  35.4194856  12.5298655  13.5264933  35.7826805  12.4179339
  14.7611821  35.3762913  11.6424489   8.8661933  37.6609230  31.5842247
   9.8210460  37.6144552  31.6324806   8.5976958  36.7860413  31.3036489
  83.2812721  14.1633485  65.8577164  82.8893453  14.9524425  65.4836088
  83.6936814  13.7248204  65.1135098  10.0011981  62.7373743  37.5663614
  10.2159369  63.5946417  37.1986532   9.2231554  62.8943205  38.1013823
  71.5982932  50.9029697  66.7525717  72.0511228  51.6358112  66.3352909
  71.3719136  50.3182147  66.0293549  84.7538883  18.7092946  45.4072338
  84.4056827  19.5039962  45.8115106  85.2808696  18.3019851  46.0947066
   5.4539216  21.6599631  24.6431041   5.9002900  21.0516500  24.0540886
   6.0612124  22.3942137  24.7342420  83.7732689  26.3189357  36.5042472
  83.1532041  25.6767695  36.1587429  84.3226234  26.5487235  35.7548189
  36.8497825  80.3525543  48.0909395  36.2333155  79.6225739  48.1486559
  36.3642097  81.0407257  47.6361084  23.2179779   7.1458094   1.9292819
  23.4416717   6.5395968   1.2230977  24.0452331   7.2964614   2.3866484
  59.1190650  35.8996986  53.7484878  58.4739527  36.4192699  53.2687908
  58.6789549  35.6667302  54.5659607  84.2109203  43.0901480  10.9247243
  83.5123920  42.4366808  10.9603822  85.0109577  42.5954628  11.1020780
   9.3192351  80.4279804   7.1716923   8.8282710  80.4360294   6.3500345
   9.5826083  79.5146561   7.2843909  24.2610653  29.6363280  51.9521206
  23.7888726  28.8321517  51.7363267  24.9958714  29.3450854  52.4919992
  69.3802220  45.3428481  66.2431141  68.7908179  46.0163902  65.9037282
  68.8841886  44.5281146  66.1631780  36.3025403  27.7673864  10.1667511
  36.1743212  26.8190551  10.1453185  37.1384048  27.8859305  10.6178701
   7.9934796   3.9910386  65.9260084   7.0970376   4.2861531  66.0858043
   8.5382064   4.7430585  66.1583238  54.2797852  75.7033491  45.1034927
  54.2755699  76.3173103  44.3691444  53.6176205  75.0512457  44.8742914
  20.3284939  22.5346635  59.2754727  20.1720913  22.6023124  58.3335631
  20.3416260  23.4414218  59.5818179  71.6344613  20.2710412  62.8429650
  71.3662595  20.9162639  63.4971725  72.1098870  19.6070598  63.3422952
  44.3995571  23.7779713   3.0581817  44.0565681  24.5311713   3.5390922
  43.6202860  23.3016157   2.7717355  32.1156526  45.4474497  18.0225372
  31.4609861  46.1240625  17.8497970  32.9030776  45.9331703  18.2680297
  45.7117987  61.8364429  38.8379359  45.1171780  62.3805380  38.3215880
  45.3909540  61.9168711  39.7361684   2.7808422   4.7759764  39.4466567
   2.8824514   5.3548854  40.2021551   2.2078174   5.2583354  38.8506603
  36.5442204  38.5228133  26.7324185  36.9494271  39.2167211  27.2525454
  36.8536305  38.6803555  25.8404112  42.6831198  42.4600649  28.3455038
  42.6060867  42.5532532  29.2950368  42.3581791  41.5781403  28.1642485
   7.9937275  11.7243694  59.4194847   8.7862905  12.0423053  58.9870577
   8.2893380  11.4447997  60.2859073  30.2457070  29.7857189  21.8743873
  30.9415269  29.2304444  22.2261477  30.4216695  30.6518817  22.2418499
  13.1814706  63.1433821  14.8499978  13.8357639  63.5754061  15.3990781
  13.4445977  63.3531189  13.9538920  32.6239681  30.9732580  15.1000774
  33.2892323  30.5304551  15.6269383  31.9125533  31.1533904  15.7146263
  19.1272509  68.6232901   8.4199744  20.0383592  68.7023783   8.7025648
  18.6193812  68.9910316   9.1432059   1.2736114  54.4542907  56.4946597
   0.7371219  55.1903461  56.7889874   1.6743120  54.7602390  55.6809860
  78.4498594  56.5660238  37.3426461  78.3429323  55.7728577  37.8677034
  79.3345831  56.4981461  36.9836378  71.2856380  13.3992617   7.9904443
  72.1296064  13.8503020   7.9675621  71.2025301  13.0922835   8.8932663
  61.7311382  67.9076958   2.7203295  62.3238420  68.5959959   3.0222836
  61.7315102  67.9925585   1.7668989  29.4591864  12.6047204  68.6358202
  29.1039713  12.2347043  69.4439920  29.9383410  13.3833812  68.9192501
  23.6889553  62.8564739  17.8588355  23.1219292  62.5105762  18.5480881
  23.5007405  62.3089361  17.0965958  72.9695374   6.7712281  58.6956411
  73.1753367   6.0344241  59.2709690  72.1487528   6.5216230  58.2710927
   9.3573531   6.3085817  66.8051740   8.6832484   6.4727233  67.4646216
  10.1587518   6.1724637  67.3106100  40.3502695  14.9777167  28.8968611
  40.3580526  15.8283274  29.3357754  41.0666076  15.0282138  28.2639766
  62.5979311  23.0358909  48.3017998  63.2495302  23.7123559  48.4863167
  62.9854638  22.2303365  48.6440497  59.0238371  70.4273396  57.3510235
  58.7304344  70.6235247  58.2407754  59.3575611  69.5315891  57.4009126
  84.2776019  51.0933421  56.7802887  83.5995180  51.2298797  57.4419480
  84.7122103  51.9427608  56.7039078   4.1479728  65.2285051   3.8279882
   3.8879627  64.4183779   3.3894503   4.0916625  65.0242710   4.7614494
  21.4941216  52.4589014  51.2177658  20.5477405  52.4027681  51.3498449
  21.8344879  51.6371965  51.5715790   6.6106574  15.6588309  31.0423756
   6.0617248  16.4349501  30.9303570   7.2211854  15.6889384  30.3057742
  37.6466107  76.6726923   2.1016178  36.9854736  77.1758270   2.5769982
  38.1884861  77.3347235   1.6722909  61.5152979  61.0650396  45.4886484
  61.7265654  60.6237459  46.3113594  61.4719677  61.9931173  45.7189226
   1.6317266  10.5180209  19.8545158   1.0541576  11.2252372  19.5672965
   1.0385745   9.8450606  20.1884723  63.8041055  47.7769206  58.6013382
  63.0745501  47.1666358  58.7086909  64.2840910  47.4453090  57.8424721
   1.2632121  53.5970020   1.2773244   2.1831624  53.3339930   1.2499629
   1.1655401  54.2034245   0.5431928  32.5747824  76.5403652  13.3232832
  31.7256832  76.4131021  12.9001212  32.3899865  77.1214962  14.0610945
  24.3030596  36.7377138  14.6848762  23.8705444  37.5783658  14.8347640
  23.7137794  36.2668872  14.0955496  76.0121528   5.4917376  13.7787569
  76.7625324   5.1526873  14.2668235  75.2628509   5.0061744  14.1237235
  64.1303539  55.3713751  25.3168368  64.0277481  56.3176012  25.2150750
  63.2559395  55.0593185  25.5497622   8.0925687  48.6392329  64.3487465
   8.2391532  48.8851760  63.4353702   7.1539219  48.7690852  64.4840758
  11.3948973  48.7951682  57.1794670  11.1317213  49.3460296  57.9167109
  10.5718192  48.5561488  56.7532688  80.6446056  72.4382305   2.8781709
  80.7005463  71.6427422   3.4076071  80.0621609  72.2044611   2.1554390
  11.2327727  30.8660339  62.4119931  10.3283652  31.1764453  62.3681586
  11.6223534  31.1455463  61.5835421  34.2903233  50.6272316   1.4776915
  34.8751116  51.3078451   1.8108925  34.2554998  49.9768925   2.1791731
  66.5065002  74.4756556  40.9207964  66.1278629  74.3509197  41.7910290
  65.9634018  73.9384127  40.3440428  17.9146898  60.6045151   7.7243948
  17.0426917  60.5875015   8.1188083  18.4871221  60.9227991   8.4224266
  75.4668085  21.2708323  10.8193541  76.2442390  21.7365306  11.1275172
  75.8036367  20.6318705  10.1912558  35.7462184  28.6608546  18.0140495
  35.6736175  29.1890281  17.2190714  35.4393558  29.2375987  18.7136447
  79.9567730  36.2793849  57.5076466  79.1118604  36.2460540  57.9562514
  80.5961997  36.3991378  58.2098024  33.5867071  75.9657431  16.4271927
  32.7404881  76.0524321  15.9882939  33.8427281  75.0558567  16.2762094
  42.4738550  72.0100594   6.4682287  41.8974161  71.7810106   5.7391995
  43.0219316  71.2352467   6.5927744  19.2218550  32.6530145  44.2562371
  19.0180357  33.5135101  43.8898545  18.5597380  32.5184463  44.9342709
  50.1992027  37.0855086   4.7465071  49.6506206  36.3688796   4.4275385
  51.0821287  36.7169040   4.7748891  61.0080671  78.0995750  27.2930694
  60.1008844  78.1968260  27.5825357  60.9684515  78.2026720  26.3422632
  50.1791668  65.4010916  13.3210647  49.4082975  65.9654713  13.3799946
  50.8256578  65.8184576  13.8903463  54.1679875   7.7604239  14.1189146
  53.7023608   8.5593932  14.3660414  55.0857703   8.0261367  14.0614247
  72.7864647  62.9645109   8.8050401  72.9964256  62.0843124   9.1171277
  73.4896517  63.5149240   9.1497260  75.7351131  72.8453468  66.2175845
  75.0497228  73.4480594  66.5060400  75.4097718  71.9786094  66.4607810
  33.2163296  29.6152919   0.8787542  32.8421829  30.4820864   1.0365726
  33.5586391  29.6610873  -0.0139709  22.7339657  42.1835826  69.7010467
  22.0544728  42.3796008  70.3461034  22.9413374  41.2602161  69.8446752
  84.2593273   3.8818994  52.3520153  83.9563773   4.1866365  53.2073431
  85.2127073   3.8523642  52.4321776  48.9857578  40.7752037  14.9005175
  48.0943680  41.0756826  15.0776243  49.3965530  41.5045357  14.4362342
   8.6004895  68.4635878  19.9326456   8.9148229  68.9643764  19.1798913
   9.2925793  67.8240681  20.1007557   4.9183020  59.8212671  63.1064844
   5.1811481  59.8168755  62.1860886   5.6710124  59.4569826  63.5722685
  56.2656681   3.2676928   9.6402276  56.8666259   3.8160842   9.1359007
  56.3786284   2.3900931   9.2751336  66.6878510  55.4671717   4.6209636
  65.9015465  56.0089207   4.5541734  66.3738060  54.5722389   4.4917482
  55.7866859  55.0522470  47.0368099  56.4994431  55.5426264  47.4463606
  54.9948120  55.3790522  47.4638510  37.1915054  68.5982943  21.2231421
  37.5700188  68.2705355  20.4073405  37.0802736  69.5374346  21.0752439
  82.6094715   6.5409320  23.5385036  81.7815725   6.4657061  23.0639935
  82.4961225   7.3095935  24.0975595  31.8811679  69.8955393   9.4296795
  31.1936069  69.2433214   9.5642173  32.5745344  69.6417665  10.0388372
  39.6365909  21.0101836  21.5676284  40.5482701  21.1535876  21.8216085
  39.1343347  21.5893405  22.1408176  21.4387035  35.9876585   4.8498362
  21.4302087  35.3377843   5.5525625  21.4533591  36.8305302   5.3032476
  50.1361527  66.3651567  63.4644090  49.7215118  66.7375355  64.2426365
  51.0272136  66.7145448  63.4773921  44.4182124  53.6730211  60.4212945
  44.5036759  53.9313858  61.3389956  43.5251572  53.9230149  60.1842587
  36.0781574  44.4457817  11.4320982  35.2841759  43.9440680  11.6167891
  35.8979821  45.3174686  11.7841351  54.9382415  73.1855278  67.6750224
  54.1143551  73.0174642  68.1324025  55.3022208  73.9553075  68.1122752
  49.7816187  31.3234828  60.0065320  49.3883622  30.9468578  60.7937645
  50.4390073  30.6821178  59.7368627  44.2643118  63.9575768  33.4631610
  44.8417139  64.6267986  33.0957675  44.5789814  63.1362104  33.0855727
   7.0078532  78.0040818  28.4221511   6.5597455  78.7722331  28.7762361
   6.3109175  77.3625832  28.2843452  62.1398878   7.4553655  57.7121609
  61.3030380   7.2083352  58.1057220  62.5376141   6.6240142  57.4535149
  65.8409798   7.2285627  42.0689516  65.7592744   7.3880885  41.1286812
  66.5582466   7.7981256  42.3470788  23.0350121  19.2984174  65.9756922
  22.1978052  19.0115379  66.3404172  23.6207732  18.5524963  66.1049815
  11.2056041  36.1286569   0.6692387  11.1845672  35.2910352   0.2064424
  10.5484748  36.6643643   0.2249075  82.0437390   6.8010781  67.6619279
  82.6979643   6.4962600  68.2906636  81.6361290   7.5555490  68.0871990
  65.9302630  56.0150056  37.1740442  65.6272592  56.2694364  36.3024455
  65.3789821  56.5161567  37.7750187   2.7206214  21.5293668  49.9242001
   2.0345386  20.9113572  49.6720343   2.6001032  21.6497968  50.8661156
  33.8340386  72.8063899  46.8116241  34.0908834  72.1252256  46.1901122
  33.5508334  72.3262077  47.5897341  12.2738767  45.7016420   4.7803268
  11.5807402  46.3566113   4.6977985  11.9256747  45.0612926   5.4007620
  84.5368020  39.5795441  34.1438389  85.4211398  39.8422289  33.8885450
  84.1674582  39.1832423  33.3546853  53.4382772  58.5553265  16.4773536
  54.0998507  58.5752630  17.1688414  53.9030790  58.2198095  15.7107890
  59.0387701   5.5843566  57.6137560  59.3708042   5.2181457  58.4334355
  58.5938038   6.3907169  57.8745656  57.3858302  23.0057738  64.4077175
  56.5667028  22.8202174  64.8668801  57.6892288  23.8321422  64.7836166
  42.7918915   3.5585349   7.6961958  42.3369412   2.7748626   8.0045998
  42.0979933   4.2070239   7.5770372  68.9204389  33.7883447  41.5670996
  68.7140578  33.0137466  41.0439949  69.7649259  33.5870431  41.9702750
  21.7678428  70.7986832  22.2443485  22.3617506  71.4621019  21.8930912
  21.2723660  71.2562943  22.9235601  67.3981041  12.9764722  70.3909745
  67.6965875  13.3399604  71.2246520  67.3666543  12.0313571  70.5393065
  60.2641311  73.6256700  46.2401801  60.5817976  73.1093293  45.4994302
  59.8778310  72.9812270  46.8332224  72.9302317   9.6739553  57.3168295
  73.1709832   9.4409536  58.2134800  73.7383193  10.0138210  56.9324904
  14.1871598  59.6452837  63.1425904  13.2695808  59.6171658  62.8715008
  14.6499898  60.0024538  62.3846655  42.6668253  60.7728999  47.1419101
  42.4046471  59.8846691  47.3838621  43.3687212  60.6497519  46.5028434
  79.1510956  31.6211295   1.4895995  78.2174162  31.8188405   1.4162186
  79.3584500  31.7824006   2.4100490  31.9398141  47.6843166  15.8482611
  31.2346649  47.0755577  16.0682726  31.6133261  48.5398483  16.1270189
  76.6342368  81.2614994  29.5721775  76.8945613  80.5858188  30.1982122
  75.7872310  80.9655028  29.2387062  65.9622572  29.3742108  24.8176336
  65.2468322  29.5827651  24.2168808  66.5696762  30.1088929  24.7309399
  76.9304318   6.9710324  70.4720102  76.0365862   6.8766282  70.1428302
  77.0061881   7.8983710  70.6968104  50.8874273  77.9982901  14.5658600
  51.6336823  77.8223801  13.9928079  51.2254238  77.8554583  15.4499340
  52.6037485  16.9985460  64.1464328  53.1003931  17.1932433  63.3516567
  52.1793640  16.1601184  63.9643114  54.1387558  29.9817514   3.3211190
  53.7711668  29.3280554   3.9159238  53.6620951  30.7863164   3.5253343
  52.2054482  29.0933943  16.0218287  53.0337191  29.2564797  15.5706108
  52.0268059  29.9057102  16.4956045  66.7111483  56.0947090  51.7965668
  66.0004344  56.3832455  51.2239724  66.5644517  55.1551180  51.9055705
  72.9033055  74.2640858  57.5835448  72.6471677  73.5534554  56.9956427
  73.1998696  73.8217836  58.3789366  43.5068002  74.9759727  60.2623289
  44.4592359  74.8940807  60.3112429  43.1910100  74.0736752  60.2136498
   2.4745639  15.1156209  67.5470232   2.9657253  14.6118520  68.1960290
   1.5562256  14.9529193  67.7624726   5.2604669  36.8719339   8.7573373
   5.7679087  37.4632215   8.2013577   4.7810245  37.4519253   9.3489271
  84.5602256   4.3149684  49.7197442  84.5277196   4.0203164  50.6298857
  85.4875261   4.2705224  49.4865780  32.7853394  33.4936523   5.5860412
  32.4715757  33.6801863   6.4709079  33.7350678  33.5993981   5.6414211
  24.0489792  78.2391172  67.0089333  23.8020935  77.8676706  66.1619937
  24.9188116  77.8798132  67.1836486  25.7625445  24.7421048  48.5906773
  26.4794262  24.9353622  47.9865556  26.1962279  24.4312738  49.3853693
  83.5537162  78.2267957  65.9813713  82.7515092  77.9424529  65.5433702
  83.5433450  77.7682047  66.8215006  22.9867935  61.0659838  25.4280972
  22.9455113  60.9619045  24.4774675  22.9814100  62.0132160  25.5657887
  68.2557172   4.1485332  70.6606046  67.8667850   4.1458629  69.7859868
  69.1997260   4.1332124  70.5029882   4.5196128  57.8662682   3.6774749
   3.5793424  58.0283737   3.6010227   4.6819538  57.8383350   4.6203944
   5.9071597  29.7032998  56.2342613   6.3106378  30.0132869  55.4234927
   6.0847815  30.3961824  56.8703382  19.6597564   4.2744535  26.9904304
  19.8169124   3.3339381  27.0738864  19.8201001   4.6228266  27.8674483
  20.9030440  74.2047315  55.0401419  21.1745849  73.3824974  55.4481011
  21.7173400  74.6937566  54.9217909  44.3449933  32.0916246  49.2712408
  43.9105100  32.7465699  48.7248879  43.6626512  31.4479755  49.4619065
   9.4512574  67.9200583  65.1824181   9.3976943  67.5681382  64.2938714
   8.6083237  67.6993900  65.5786484  10.4437554  30.3064632  14.0602791
   9.6200502  29.9387336  13.7400985  11.0931516  29.6244264  13.8889885
  47.0537281  40.6931448  24.3127680  46.1369848  40.4778337  24.1411257
  47.5414133  40.2175522  23.6403060  42.8144789  46.9056225  29.7722173
  42.3816729  46.4820004  30.5134702  43.4890413  47.4553490  30.1709604
  11.3517578  39.7285293  54.7965115  11.3898571  40.3723071  55.5038505
  10.6757959  39.1094421  55.0722628  44.4789799  13.0301831  49.9775367
  45.1338871  13.6306165  50.3336292  43.6430224  13.3722137  50.2944308
  85.7458288  31.1025737  58.5296493  86.2142664  30.7884191  59.3030219
  85.1515109  30.3873847  58.3026700  81.7436892  19.8557208  58.2261115
  81.6178757  19.0756391  57.6858585  82.0485360  19.5173763  59.0680271
  54.7068086  74.3733292  53.7029880  54.6468606  73.4196883  53.6463468
  55.4930010  74.5939784  53.2035428  38.3320761  67.3625803   7.6286387
  38.9668941  67.9337883   8.0610251  38.8164520  66.5558863   7.4529666
   7.0069369  35.8510326  61.3217013   7.0116814  35.0504516  60.7970332
   6.6861351  35.5732177  62.1796840  65.8743539  76.5793305  62.7151584
  65.2082100  76.0114270  63.1024163  65.8244672  77.3885327  63.2240146
   8.5247930  12.0732043  67.2101571   7.8256138  12.1070789  67.8630238
   9.3313774  12.0401786  67.7245112  82.3068506  24.5187114  49.4463640
  82.4605781  23.5799001  49.3403678  82.9292351  24.7885822  50.1216679
  31.8141985  65.8660221   9.6539378  32.1414804  66.2061214   8.8212001
  31.8467522  66.6156912  10.2482152  74.1704351  24.6136735  62.2651594
  74.8920709  24.0320276  62.0260727  74.3921870  25.4506753  61.8571352
  65.3859204  22.5075029  24.9411827  65.1634801  21.6385959  24.6068817
  64.5957589  22.7985070  25.3963666   1.6453346  16.5539907  47.8369027
   1.5130170  16.1024831  48.6704879   2.5502880  16.3542484  47.5973301
  70.0228658  74.4929867  69.6207825  70.0727525  73.5553008  69.4350734
  69.1848435  74.6039610  70.0698262  19.7599947  79.3414497  26.9457340
  19.2640126  79.9672365  26.4178872  19.5316064  78.4864378  26.5810108
  20.3614481  25.3283094  60.7628261  20.4078825  25.5273460  61.6979515
  20.5673846  26.1573623  60.3309732  40.6319284  70.7423306   4.6210307
  40.1601076  70.5515862   5.4317331  40.1875925  71.5095043   4.2601430
  10.7609065  24.9830316  44.0369373  11.6602858  24.6652578  43.9571171
  10.3926547  24.4798253  44.7631650  18.3417857  46.3757753  28.7420106
  17.4433005  46.0761738  28.8805580  18.6517107  45.8655357  27.9937887
   3.7403520  34.2440818  59.3793552   3.5464009  35.1761268  59.4788986
   2.8851446  33.8339065  59.2504793  19.1648018  40.9192371  17.3979330
  18.8615477  41.3741779  18.1836164  18.4237444  40.3726339  17.1366107
  85.2493912  28.3594678  23.6682325  84.6922976  28.6679433  22.9535823
  85.7695586  29.1245530  23.9137893  45.0124741  39.2417145   4.0438989
  45.8958626  39.5207787   3.8030961  45.0837135  38.2941580   4.1591918
  34.1228414  30.1967144   4.8747593  33.9377785  29.3547082   4.4588149
  33.3102298  30.4244614   5.3264511  26.3276339  43.6235142   4.5530513
  26.5415597  43.0002880   5.2473545  26.2882710  43.0920506   3.7579221
  58.4849586  53.5227876  69.3549711  57.8469434  53.3450287  68.6639062
  59.0659513  54.1846996  68.9800682
  86.6179894  86.6179894  86.6179894 109.4712190 109.4712190 109.4712190
